       N       E                     dE             d eps       ncg     rms          ort
DAV:   1     0.217050784777E+04    0.21705E+04   -0.12097E+05  3584   0.390E+03
DAV:   2     0.557057967675E+03   -0.16134E+04   -0.15257E+04  3584   0.131E+03
DAV:   3     0.915162965578E+02   -0.46554E+03   -0.44793E+03  3584   0.327E+02
DAV:   4     0.361831111400E+02   -0.55333E+02   -0.54234E+02  3584   0.111E+02
DAV:   5     0.332755619582E+02   -0.29075E+01   -0.28948E+01  3584   0.298E+01
SDA:   6    -0.577579231677E+02   -0.91033E+02   -0.28948E+01  3584   0.965E+01 0.000E+00
CGA:   7    -0.591147162716E+02   -0.13568E+01   -0.13667E+01  3584   0.262E+01 0.242E-01
CGA:   8    -0.596417518092E+02   -0.52704E+00   -0.52690E+00  3584   0.481E+00 0.227E-01
CGA:   9    -0.598055683724E+02   -0.16382E+00   -0.16272E+00  3584   0.151E+00 0.715E-02
CGA:  10    -0.598562058120E+02   -0.50637E-01   -0.50407E-01  3584   0.638E-01 0.160E-02
CGA:  11    -0.598695095342E+02   -0.13304E-01   -0.13305E-01  3584   0.231E-01 0.269E-03
CGA:  12    -0.598762353585E+02   -0.67258E-02   -0.67235E-02  3584   0.548E-02 0.230E-05
CGA:  13    -0.598779407313E+02   -0.17054E-02   -0.17057E-02  3584   0.156E-02-0.335E-05
CGA:  14    -0.598784317585E+02   -0.49103E-03   -0.49118E-03  3584   0.453E-03-0.169E-05
CGA:  15    -0.598785617970E+02   -0.13004E-03   -0.13076E-03  3584   0.191E-03-0.111E-04
CGA:  16    -0.598786000424E+02   -0.38245E-04   -0.38355E-04  3584   0.723E-04 0.508E-05
CGA:  17    -0.598786222292E+02   -0.22187E-04   -0.22586E-04  3584   0.262E-04-0.507E-05
CGA:  18    -0.598786302433E+02   -0.80141E-05   -0.80407E-05  3584   0.816E-05-0.262E-06
CGA:  19    -0.598786328836E+02   -0.26403E-05   -0.26203E-05  3584   0.270E-05 0.220E-06
CGA:  20    -0.598786339116E+02   -0.10280E-05   -0.10765E-05  3584   0.173E-05-0.327E-06
CGA:  21    -0.598786341581E+02   -0.24656E-06   -0.27433E-06  3584   0.625E-06 0.417E-06
   1 F= -.59878634E+02 E0= -.59878634E+02  d E =-.375757E-86
