   8   8   1   0
  0.3631583E+02  0.6623111E-09  0.6623111E-09  0.6623111E-09  0.5000000E-15
  1.000000000000000E-004
  CAR 
 Name                                    
     11.23255556    -10.01225484  301      1.83172696      1.00000000
    -10.012  0.0000E+00  0.0000E+00
     -9.941  0.0000E+00  0.0000E+00
     -9.871  0.0000E+00  0.0000E+00
     -9.800  0.0000E+00  0.0000E+00
     -9.729  0.0000E+00  0.0000E+00
     -9.658  0.0000E+00  0.0000E+00
     -9.587  0.0000E+00  0.0000E+00
     -9.517  0.0000E+00  0.0000E+00
     -9.446  0.0000E+00  0.0000E+00
     -9.375  0.0000E+00  0.0000E+00
     -9.304  0.0000E+00  0.0000E+00
     -9.233  0.0000E+00  0.0000E+00
     -9.162  0.0000E+00  0.0000E+00
     -9.092  0.4087E-12  0.2894E-13
     -9.021  0.4412E-02  0.3125E-03
     -8.950  0.2648E-01  0.2188E-02
     -8.879  0.6553E-01  0.6828E-02
     -8.808  0.4869E-01  0.1028E-01
     -8.738  0.2115E+00  0.2531E-01
     -8.667  0.2352E+00  0.4197E-01
     -8.596  0.5326E+00  0.7968E-01
     -8.525  0.0000E+00  0.8000E-01
     -8.454  0.0000E+00  0.8000E-01
     -8.383  0.0000E+00  0.8000E-01
     -8.313  0.0000E+00  0.8000E-01
     -8.242  0.0000E+00  0.8000E-01
     -8.171  0.0000E+00  0.8000E-01
     -8.100  0.0000E+00  0.8000E-01
     -8.029  0.0000E+00  0.8000E-01
     -7.959  0.0000E+00  0.8000E-01
     -7.888  0.0000E+00  0.8000E-01
     -7.817  0.0000E+00  0.8000E-01
     -7.746  0.0000E+00  0.8000E-01
     -7.675  0.0000E+00  0.8000E-01
     -7.605  0.0000E+00  0.8000E-01
     -7.534  0.0000E+00  0.8000E-01
     -7.463  0.0000E+00  0.8000E-01
     -7.392  0.0000E+00  0.8000E-01
     -7.321  0.0000E+00  0.8000E-01
     -7.250  0.0000E+00  0.8000E-01
     -7.180  0.0000E+00  0.8000E-01
     -7.109  0.0000E+00  0.8000E-01
     -7.038  0.0000E+00  0.8000E-01
     -6.967  0.0000E+00  0.8000E-01
     -6.896  0.0000E+00  0.8000E-01
     -6.826  0.0000E+00  0.8000E-01
     -6.755  0.0000E+00  0.8000E-01
     -6.684  0.0000E+00  0.8000E-01
     -6.613  0.0000E+00  0.8000E-01
     -6.542  0.0000E+00  0.8000E-01
     -6.471  0.0000E+00  0.8000E-01
     -6.401  0.0000E+00  0.8000E-01
     -6.330  0.6113E-04  0.8000E-01
     -6.259  0.4845E+00  0.1143E+00
     -6.188  0.1814E+01  0.2428E+00
     -6.117  0.6547E+00  0.2901E+00
     -6.047  0.1686E+01  0.4103E+00
     -5.976  0.1062E+00  0.4178E+00
     -5.905  0.1056E+00  0.4253E+00
     -5.834  0.6747E-01  0.4301E+00
     -5.763  0.2378E+00  0.4470E+00
     -5.692  0.2207E+00  0.4629E+00
     -5.622  0.2191E+00  0.4784E+00
     -5.551  0.2282E-01  0.4800E+00
     -5.480  0.0000E+00  0.4800E+00
     -5.409  0.0000E+00  0.4800E+00
     -5.338  0.0000E+00  0.4800E+00
     -5.268  0.0000E+00  0.4800E+00
     -5.197  0.0000E+00  0.4800E+00
     -5.126  0.0000E+00  0.4800E+00
     -5.055  0.0000E+00  0.4800E+00
     -4.984  0.0000E+00  0.4800E+00
     -4.914  0.0000E+00  0.4800E+00
     -4.843  0.0000E+00  0.4800E+00
     -4.772  0.0000E+00  0.4800E+00
     -4.701  0.0000E+00  0.4800E+00
     -4.630  0.0000E+00  0.4800E+00
     -4.559  0.0000E+00  0.4800E+00
     -4.489  0.0000E+00  0.4800E+00
     -4.418  0.0000E+00  0.4800E+00
     -4.347  0.0000E+00  0.4800E+00
     -4.276  0.0000E+00  0.4800E+00
     -4.205  0.0000E+00  0.4800E+00
     -4.135  0.0000E+00  0.4800E+00
     -4.064  0.0000E+00  0.4800E+00
     -3.993  0.0000E+00  0.4800E+00
     -3.922  0.0000E+00  0.4800E+00
     -3.851  0.0000E+00  0.4800E+00
     -3.780  0.0000E+00  0.4800E+00
     -3.710  0.0000E+00  0.4800E+00
     -3.639  0.0000E+00  0.4800E+00
     -3.568  0.0000E+00  0.4800E+00
     -3.497  0.0000E+00  0.4800E+00
     -3.426  0.0000E+00  0.4800E+00
     -3.356  0.0000E+00  0.4800E+00
     -3.285  0.0000E+00  0.4800E+00
     -3.214  0.0000E+00  0.4800E+00
     -3.143  0.0000E+00  0.4800E+00
     -3.072  0.0000E+00  0.4800E+00
     -3.001  0.0000E+00  0.4800E+00
     -2.931  0.0000E+00  0.4800E+00
     -2.860  0.0000E+00  0.4800E+00
     -2.789  0.0000E+00  0.4800E+00
     -2.718  0.0000E+00  0.4800E+00
     -2.647  0.0000E+00  0.4800E+00
     -2.577  0.0000E+00  0.4800E+00
     -2.506  0.0000E+00  0.4800E+00
     -2.435  0.0000E+00  0.4800E+00
     -2.364  0.0000E+00  0.4800E+00
     -2.293  0.8161E-02  0.4806E+00
     -2.222  0.1953E-01  0.4820E+00
     -2.152  0.5812E-01  0.4861E+00
     -2.081  0.1833E+00  0.4991E+00
     -2.010  0.2635E+00  0.5177E+00
     -1.939  0.4970E-01  0.5216E+00
     -1.868  0.8959E-01  0.5279E+00
     -1.798  0.3408E-01  0.5303E+00
     -1.727  0.8715E-02  0.5309E+00
     -1.656  0.5295E-01  0.5347E+00
     -1.585  0.2297E-05  0.5347E+00
     -1.514  0.1059E+00  0.5422E+00
     -1.444  0.0000E+00  0.5422E+00
     -1.373  0.0000E+00  0.5422E+00
     -1.302  0.0000E+00  0.5422E+00
     -1.231  0.0000E+00  0.5422E+00
     -1.160  0.1449E-03  0.5422E+00
     -1.089  0.1058E+00  0.5497E+00
     -1.019  0.0000E+00  0.5497E+00
     -0.948  0.0000E+00  0.5497E+00
     -0.877  0.0000E+00  0.5497E+00
     -0.806  0.1145E-03  0.5497E+00
     -0.735  0.6167E-01  0.5541E+00
     -0.665  0.0000E+00  0.5541E+00
     -0.594  0.0000E+00  0.5541E+00
     -0.523  0.1304E-04  0.5541E+00
     -0.452  0.8268E-01  0.5599E+00
     -0.381  0.7617E-01  0.5653E+00
     -0.310  0.3017E-02  0.5655E+00
     -0.240  0.2346E-01  0.5672E+00
     -0.169  0.5269E-01  0.5709E+00
     -0.098  0.9843E-01  0.5781E+00
     -0.027  0.2686E+00  0.5972E+00
      0.044  0.1327E+00  0.6066E+00
      0.114  0.4334E-02  0.6069E+00
      0.185  0.2214E-01  0.6084E+00
      0.256  0.9318E-15  0.6084E+00
      0.327  0.6966E-01  0.6134E+00
      0.398  0.9448E-01  0.6201E+00
      0.469  0.2801E+00  0.6399E+00
      0.539  0.9146E-01  0.6471E+00
      0.610  0.1165E+00  0.6553E+00
      0.681  0.1059E+00  0.6628E+00
      0.752  0.0000E+00  0.6628E+00
      0.823  0.6996E-01  0.6678E+00
      0.893  0.8891E-01  0.6741E+00
      0.964  0.1050E+00  0.6815E+00
      1.035  0.1200E-02  0.6816E+00
      1.106  0.3479E+00  0.7063E+00
      1.177  0.0000E+00  0.7066E+00
      1.247  0.0000E+00  0.7066E+00
      1.318  0.0000E+00  0.7066E+00
      1.389  0.1105E-01  0.7073E+00
      1.460  0.1111E+00  0.7152E+00
      1.531  0.0000E+00  0.7153E+00
      1.602  0.1429E-01  0.7163E+00
      1.672  0.3867E-01  0.7191E+00
      1.743  0.5566E-06  0.7191E+00
      1.814  0.1324E-01  0.7200E+00
      1.885  0.0000E+00  0.7200E+00
      1.956  0.0000E+00  0.7200E+00
      2.026  0.0000E+00  0.7200E+00
      2.097  0.0000E+00  0.7200E+00
      2.168  0.0000E+00  0.7200E+00
      2.239  0.0000E+00  0.7200E+00
      2.310  0.4054E-08  0.7200E+00
      2.381  0.4413E-02  0.7203E+00
      2.451  0.0000E+00  0.7203E+00
      2.522  0.0000E+00  0.7203E+00
      2.593  0.0000E+00  0.7203E+00
      2.664  0.0000E+00  0.7203E+00
      2.735  0.0000E+00  0.7203E+00
      2.805  0.0000E+00  0.7203E+00
      2.876  0.0000E+00  0.7203E+00
      2.947  0.0000E+00  0.7203E+00
      3.018  0.0000E+00  0.7203E+00
      3.089  0.0000E+00  0.7203E+00
      3.160  0.0000E+00  0.7203E+00
      3.230  0.0000E+00  0.7203E+00
      3.301  0.0000E+00  0.7203E+00
      3.372  0.0000E+00  0.7203E+00
      3.443  0.0000E+00  0.7203E+00
      3.514  0.2577E-02  0.7205E+00
      3.584  0.1509E-01  0.7216E+00
      3.655  0.6027E-01  0.7258E+00
      3.726  0.0000E+00  0.7259E+00
      3.797  0.0000E+00  0.7259E+00
      3.868  0.2175E-01  0.7275E+00
      3.939  0.3120E-01  0.7297E+00
      4.009  0.0000E+00  0.7297E+00
      4.080  0.0000E+00  0.7297E+00
      4.151  0.5439E-03  0.7297E+00
      4.222  0.1563E+00  0.7408E+00
      4.293  0.5500E-01  0.7447E+00
      4.363  0.0000E+00  0.7447E+00
      4.434  0.3410E-02  0.7449E+00
      4.505  0.3680E-01  0.7475E+00
      4.576  0.1753E-01  0.7488E+00
      4.647  0.2169E-01  0.7503E+00
      4.717  0.2636E+00  0.7690E+00
      4.788  0.5286E-01  0.7728E+00
      4.859  0.9804E-01  0.7798E+00
      4.930  0.3434E-01  0.7822E+00
      5.001  0.8711E-02  0.7828E+00
      5.072  0.1502E+00  0.7934E+00
      5.142  0.1620E-03  0.7934E+00
      5.213  0.7927E-01  0.7991E+00
      5.284  0.1049E+00  0.8065E+00
      5.355  0.4344E-04  0.8066E+00
      5.426  0.1059E+00  0.8141E+00
      5.496  0.0000E+00  0.8141E+00
      5.567  0.0000E+00  0.8141E+00
      5.638  0.0000E+00  0.8141E+00
      5.709  0.0000E+00  0.8141E+00
      5.780  0.1456E-02  0.8142E+00
      5.851  0.1553E+00  0.8252E+00
      5.921  0.0000E+00  0.8253E+00
      5.992  0.0000E+00  0.8253E+00
      6.063  0.0000E+00  0.8253E+00
      6.134  0.0000E+00  0.8253E+00
      6.205  0.9606E-01  0.8321E+00
      6.275  0.1157E+00  0.8403E+00
      6.346  0.0000E+00  0.8403E+00
      6.417  0.1090E+00  0.8480E+00
      6.488  0.1329E+00  0.8581E+00
      6.559  0.0000E+00  0.8581E+00
      6.630  0.0000E+00  0.8581E+00
      6.700  0.3785E-02  0.8584E+00
      6.771  0.2307E+00  0.8747E+00
      6.842  0.3030E-01  0.8769E+00
      6.913  0.1374E-01  0.8778E+00
      6.984  0.1904E+00  0.8913E+00
      7.054  0.4286E-01  0.8944E+00
      7.125  0.4007E-02  0.8947E+00
      7.196  0.1549E+00  0.9056E+00
      7.267  0.1329E+00  0.9150E+00
      7.338  0.1566E+00  0.9261E+00
      7.408  0.0000E+00  0.9263E+00
      7.479  0.7975E-09  0.9263E+00
      7.550  0.1059E+00  0.9337E+00
      7.621  0.5739E-01  0.9378E+00
      7.692  0.4851E-01  0.9413E+00
      7.763  0.5062E-04  0.9413E+00
      7.833  0.1059E+00  0.9487E+00
      7.904  0.5797E-01  0.9529E+00
      7.975  0.1263E-01  0.9537E+00
      8.046  0.7679E-12  0.9538E+00
      8.117  0.2647E-01  0.9556E+00
      8.187  0.0000E+00  0.9556E+00
      8.258  0.0000E+00  0.9556E+00
      8.329  0.0000E+00  0.9556E+00
      8.400  0.0000E+00  0.9556E+00
      8.471  0.0000E+00  0.9556E+00
      8.542  0.0000E+00  0.9556E+00
      8.612  0.0000E+00  0.9556E+00
      8.683  0.0000E+00  0.9556E+00
      8.754  0.0000E+00  0.9556E+00
      8.825  0.0000E+00  0.9556E+00
      8.896  0.0000E+00  0.9556E+00
      8.966  0.0000E+00  0.9556E+00
      9.037  0.1262E-01  0.9565E+00
      9.108  0.4033E-01  0.9594E+00
      9.179  0.4413E-02  0.9597E+00
      9.250  0.0000E+00  0.9597E+00
      9.321  0.0000E+00  0.9597E+00
      9.391  0.0000E+00  0.9597E+00
      9.462  0.0000E+00  0.9597E+00
      9.533  0.0000E+00  0.9597E+00
      9.604  0.0000E+00  0.9597E+00
      9.675  0.0000E+00  0.9597E+00
      9.745  0.0000E+00  0.9597E+00
      9.816  0.0000E+00  0.9597E+00
      9.887  0.0000E+00  0.9597E+00
      9.958  0.0000E+00  0.9597E+00
     10.029  0.0000E+00  0.9597E+00
     10.099  0.0000E+00  0.9597E+00
     10.170  0.0000E+00  0.9597E+00
     10.241  0.5974E-06  0.9597E+00
     10.312  0.4412E-02  0.9600E+00
     10.383  0.0000E+00  0.9600E+00
     10.454  0.0000E+00  0.9600E+00
     10.524  0.0000E+00  0.9600E+00
     10.595  0.0000E+00  0.9600E+00
     10.666  0.0000E+00  0.9600E+00
     10.737  0.0000E+00  0.9600E+00
     10.808  0.0000E+00  0.9600E+00
     10.878  0.0000E+00  0.9600E+00
     10.949  0.0000E+00  0.9600E+00
     11.020  0.0000E+00  0.9600E+00
     11.091  0.0000E+00  0.9600E+00
     11.162  0.0000E+00  0.9600E+00
     11.233  0.0000E+00  0.9600E+00
     11.23255556    -10.01225484  301      1.83172696      1.00000000
    -10.012  0.0000E+00  0.0000E+00  0.0000E+00
     -9.941  0.0000E+00  0.0000E+00  0.0000E+00
     -9.871  0.0000E+00  0.0000E+00  0.0000E+00
     -9.800  0.0000E+00  0.0000E+00  0.0000E+00
     -9.729  0.0000E+00  0.0000E+00  0.0000E+00
     -9.658  0.0000E+00  0.0000E+00  0.0000E+00
     -9.587  0.0000E+00  0.0000E+00  0.0000E+00
     -9.517  0.0000E+00  0.0000E+00  0.0000E+00
     -9.446  0.0000E+00  0.0000E+00  0.0000E+00
     -9.375  0.0000E+00  0.0000E+00  0.0000E+00
     -9.304  0.0000E+00  0.0000E+00  0.0000E+00
     -9.233  0.0000E+00  0.0000E+00  0.0000E+00
     -9.162  0.0000E+00  0.0000E+00  0.0000E+00
     -9.092  0.5469E-12  0.1063E-36  0.2432E-35
     -9.021  0.5905E-02  0.5517E-11  0.4281E-10
     -8.950  0.3094E-01  0.1087E-02  0.8437E-02
     -8.879  0.6475E-01  0.5368E-02  0.4556E-01
     -8.808  0.3856E-01  0.6099E-02  0.5509E-01
     -8.738  0.1218E+00  0.3585E-01  0.3523E+00
     -8.667  0.7424E-01  0.5159E-01  0.5588E+00
     -8.596  0.6487E-01  0.1375E+00  0.1550E+01
     -8.525  0.0000E+00  0.0000E+00  0.0000E+00
     -8.454  0.0000E+00  0.0000E+00  0.0000E+00
     -8.383  0.0000E+00  0.0000E+00  0.0000E+00
     -8.313  0.0000E+00  0.0000E+00  0.0000E+00
     -8.242  0.0000E+00  0.0000E+00  0.0000E+00
     -8.171  0.0000E+00  0.0000E+00  0.0000E+00
     -8.100  0.0000E+00  0.0000E+00  0.0000E+00
     -8.029  0.0000E+00  0.0000E+00  0.0000E+00
     -7.959  0.0000E+00  0.0000E+00  0.0000E+00
     -7.888  0.0000E+00  0.0000E+00  0.0000E+00
     -7.817  0.0000E+00  0.0000E+00  0.0000E+00
     -7.746  0.0000E+00  0.0000E+00  0.0000E+00
     -7.675  0.0000E+00  0.0000E+00  0.0000E+00
     -7.605  0.0000E+00  0.0000E+00  0.0000E+00
     -7.534  0.0000E+00  0.0000E+00  0.0000E+00
     -7.463  0.0000E+00  0.0000E+00  0.0000E+00
     -7.392  0.0000E+00  0.0000E+00  0.0000E+00
     -7.321  0.0000E+00  0.0000E+00  0.0000E+00
     -7.250  0.0000E+00  0.0000E+00  0.0000E+00
     -7.180  0.0000E+00  0.0000E+00  0.0000E+00
     -7.109  0.0000E+00  0.0000E+00  0.0000E+00
     -7.038  0.0000E+00  0.0000E+00  0.0000E+00
     -6.967  0.0000E+00  0.0000E+00  0.0000E+00
     -6.896  0.0000E+00  0.0000E+00  0.0000E+00
     -6.826  0.0000E+00  0.0000E+00  0.0000E+00
     -6.755  0.0000E+00  0.0000E+00  0.0000E+00
     -6.684  0.0000E+00  0.0000E+00  0.0000E+00
     -6.613  0.0000E+00  0.0000E+00  0.0000E+00
     -6.542  0.0000E+00  0.0000E+00  0.0000E+00
     -6.471  0.0000E+00  0.0000E+00  0.0000E+00
     -6.401  0.0000E+00  0.0000E+00  0.0000E+00
     -6.330  0.3305E-15  0.4265E-06  0.1392E-02
     -6.259  0.2287E-02  0.3767E-02  0.1110E+02
     -6.188  0.9523E-02  0.1562E-01  0.4192E+02
     -6.117  0.1637E-01  0.5934E-03  0.1524E+02
     -6.047  0.5279E-02  0.4022E-03  0.3989E+02
     -5.976  0.2025E-01  0.1053E-02  0.2318E+01
     -5.905  0.2160E-01  0.1715E-02  0.2271E+01
     -5.834  0.1293E-01  0.2013E-02  0.1427E+01
     -5.763  0.3576E-01  0.9790E-02  0.5011E+01
     -5.692  0.2407E-01  0.1109E-01  0.4633E+01
     -5.622  0.9272E-02  0.1572E-01  0.4541E+01
     -5.551  0.7149E-28  0.1812E-02  0.4721E+00
     -5.480  0.0000E+00  0.0000E+00  0.0000E+00
     -5.409  0.0000E+00  0.0000E+00  0.0000E+00
     -5.338  0.0000E+00  0.0000E+00  0.0000E+00
     -5.268  0.0000E+00  0.0000E+00  0.0000E+00
     -5.197  0.0000E+00  0.0000E+00  0.0000E+00
     -5.126  0.0000E+00  0.0000E+00  0.0000E+00
     -5.055  0.0000E+00  0.0000E+00  0.0000E+00
     -4.984  0.0000E+00  0.0000E+00  0.0000E+00
     -4.914  0.0000E+00  0.0000E+00  0.0000E+00
     -4.843  0.0000E+00  0.0000E+00  0.0000E+00
     -4.772  0.0000E+00  0.0000E+00  0.0000E+00
     -4.701  0.0000E+00  0.0000E+00  0.0000E+00
     -4.630  0.0000E+00  0.0000E+00  0.0000E+00
     -4.559  0.0000E+00  0.0000E+00  0.0000E+00
     -4.489  0.0000E+00  0.0000E+00  0.0000E+00
     -4.418  0.0000E+00  0.0000E+00  0.0000E+00
     -4.347  0.0000E+00  0.0000E+00  0.0000E+00
     -4.276  0.0000E+00  0.0000E+00  0.0000E+00
     -4.205  0.0000E+00  0.0000E+00  0.0000E+00
     -4.135  0.0000E+00  0.0000E+00  0.0000E+00
     -4.064  0.0000E+00  0.0000E+00  0.0000E+00
     -3.993  0.0000E+00  0.0000E+00  0.0000E+00
     -3.922  0.0000E+00  0.0000E+00  0.0000E+00
     -3.851  0.0000E+00  0.0000E+00  0.0000E+00
     -3.780  0.0000E+00  0.0000E+00  0.0000E+00
     -3.710  0.0000E+00  0.0000E+00  0.0000E+00
     -3.639  0.0000E+00  0.0000E+00  0.0000E+00
     -3.568  0.0000E+00  0.0000E+00  0.0000E+00
     -3.497  0.0000E+00  0.0000E+00  0.0000E+00
     -3.426  0.0000E+00  0.0000E+00  0.0000E+00
     -3.356  0.0000E+00  0.0000E+00  0.0000E+00
     -3.285  0.0000E+00  0.0000E+00  0.0000E+00
     -3.214  0.0000E+00  0.0000E+00  0.0000E+00
     -3.143  0.0000E+00  0.0000E+00  0.0000E+00
     -3.072  0.0000E+00  0.0000E+00  0.0000E+00
     -3.001  0.0000E+00  0.0000E+00  0.0000E+00
     -2.931  0.0000E+00  0.0000E+00  0.0000E+00
     -2.860  0.0000E+00  0.0000E+00  0.0000E+00
     -2.789  0.0000E+00  0.0000E+00  0.0000E+00
     -2.718  0.0000E+00  0.0000E+00  0.0000E+00
     -2.647  0.0000E+00  0.0000E+00  0.0000E+00
     -2.577  0.0000E+00  0.0000E+00  0.0000E+00
     -2.506  0.0000E+00  0.0000E+00  0.0000E+00
     -2.435  0.0000E+00  0.0000E+00  0.0000E+00
     -2.364  0.0000E+00  0.0000E+00  0.0000E+00
     -2.293  0.3417E-01  0.4630E-02  0.2523E-04
     -2.222  0.9983E-01  0.5384E-02  0.5591E-02
     -2.152  0.3567E+00  0.8159E-03  0.2073E-01
     -2.081  0.1025E+01  0.3923E-01  0.2362E-01
     -2.010  0.1352E+01  0.8316E-01  0.7177E-01
     -1.939  0.2625E+00  0.1268E-01  0.1838E-01
     -1.868  0.4980E+00  0.1132E-01  0.6048E-01
     -1.798  0.1880E+00  0.3444E-02  0.2812E-01
     -1.727  0.4773E-01  0.6784E-03  0.8393E-02
     -1.656  0.2587E+00  0.1810E-01  0.3182E-01
     -1.585  0.9430E-05  0.1161E-05  0.1713E-05
     -1.514  0.4348E+00  0.5351E-01  0.7897E-01
     -1.444  0.0000E+00  0.0000E+00  0.0000E+00
     -1.373  0.0000E+00  0.0000E+00  0.0000E+00
     -1.302  0.0000E+00  0.0000E+00  0.0000E+00
     -1.231  0.0000E+00  0.0000E+00  0.0000E+00
     -1.160  0.6413E-03  0.5057E-04  0.1526E-03
     -1.089  0.4681E+00  0.3691E-01  0.1114E+00
     -1.019  0.0000E+00  0.0000E+00  0.0000E+00
     -0.948  0.0000E+00  0.0000E+00  0.0000E+00
     -0.877  0.0000E+00  0.0000E+00  0.0000E+00
     -0.806  0.3997E-03  0.6729E-04  0.1200E-03
     -0.735  0.2441E+00  0.2610E-01  0.7156E-01
     -0.665  0.0000E+00  0.0000E+00  0.0000E+00
     -0.594  0.0000E+00  0.0000E+00  0.0000E+00
     -0.523  0.4795E-08  0.2225E-04  0.6494E-05
     -0.452  0.4567E-02  0.1386E+00  0.4428E-01
     -0.381  0.1165E-01  0.1235E+00  0.4588E-01
     -0.310  0.4041E-27  0.4526E-02  0.2741E-02
     -0.240  0.3142E-26  0.3519E-01  0.2131E-01
     -0.169  0.1773E+00  0.2929E-01  0.6011E-01
     -0.098  0.2237E-01  0.1625E+00  0.5559E-01
     -0.027  0.1261E+00  0.4115E+00  0.1805E+00
      0.044  0.1944E-01  0.2254E+00  0.6895E-01
      0.114  0.1256E-21  0.7837E-02  0.1657E-02
      0.185  0.6418E-21  0.4004E-01  0.8465E-02
      0.256  0.7972E-40  0.1614E-14  0.5116E-15
      0.327  0.6342E-03  0.1198E+00  0.3980E-01
      0.398  0.3295E-02  0.1590E+00  0.6022E-01
      0.469  0.4982E-01  0.4404E+00  0.2123E+00
      0.539  0.1019E+00  0.1099E+00  0.8639E-01
      0.610  0.4178E-01  0.1760E+00  0.8918E-01
      0.681  0.1767E-02  0.1670E+00  0.8537E-01
      0.752  0.0000E+00  0.0000E+00  0.0000E+00
      0.823  0.1741E-01  0.9655E-01  0.6941E-01
      0.893  0.4575E-01  0.1138E+00  0.9170E-01
      0.964  0.4569E-25  0.1492E+00  0.1048E+00
      1.035  0.1350E-03  0.1570E-02  0.1315E-02
      1.106  0.1893E-01  0.4616E+00  0.3769E+00
      1.177  0.0000E+00  0.0000E+00  0.0000E+00
      1.247  0.0000E+00  0.0000E+00  0.0000E+00
      1.318  0.0000E+00  0.0000E+00  0.0000E+00
      1.389  0.4625E-26  0.1179E-01  0.1473E-01
      1.460  0.2679E-25  0.1143E+00  0.1529E+00
      1.531  0.0000E+00  0.0000E+00  0.0000E+00
      1.602  0.2926E-27  0.1214E-01  0.2140E-01
      1.672  0.7918E-27  0.3287E-01  0.5791E-01
      1.743  0.7482E-32  0.3382E-06  0.9383E-06
      1.814  0.1779E-27  0.8045E-02  0.2232E-01
      1.885  0.0000E+00  0.0000E+00  0.0000E+00
      1.956  0.0000E+00  0.0000E+00  0.0000E+00
      2.026  0.0000E+00  0.0000E+00  0.0000E+00
      2.097  0.0000E+00  0.0000E+00  0.0000E+00
      2.168  0.0000E+00  0.0000E+00  0.0000E+00
      2.239  0.0000E+00  0.0000E+00  0.0000E+00
      2.310  0.3315E-07  0.2915E-33  0.1529E-33
      2.381  0.3609E-01  0.3174E-27  0.1664E-27
      2.451  0.0000E+00  0.0000E+00  0.0000E+00
      2.522  0.0000E+00  0.0000E+00  0.0000E+00
      2.593  0.0000E+00  0.0000E+00  0.0000E+00
      2.664  0.0000E+00  0.0000E+00  0.0000E+00
      2.735  0.0000E+00  0.0000E+00  0.0000E+00
      2.805  0.0000E+00  0.0000E+00  0.0000E+00
      2.876  0.0000E+00  0.0000E+00  0.0000E+00
      2.947  0.0000E+00  0.0000E+00  0.0000E+00
      3.018  0.0000E+00  0.0000E+00  0.0000E+00
      3.089  0.0000E+00  0.0000E+00  0.0000E+00
      3.160  0.0000E+00  0.0000E+00  0.0000E+00
      3.230  0.0000E+00  0.0000E+00  0.0000E+00
      3.301  0.0000E+00  0.0000E+00  0.0000E+00
      3.372  0.0000E+00  0.0000E+00  0.0000E+00
      3.443  0.0000E+00  0.0000E+00  0.0000E+00
      3.514  0.1593E-01  0.2076E-02  0.4538E-03
      3.584  0.9327E-01  0.1214E-01  0.2659E-02
      3.655  0.3337E+00  0.3862E-01  0.1230E-01
      3.726  0.0000E+00  0.0000E+00  0.0000E+00
      3.797  0.0000E+00  0.0000E+00  0.0000E+00
      3.868  0.1191E+00  0.1456E-01  0.3602E-02
      3.939  0.1709E+00  0.2089E-01  0.5167E-02
      4.009  0.0000E+00  0.0000E+00  0.0000E+00
      4.080  0.0000E+00  0.0000E+00  0.0000E+00
      4.151  0.2990E-02  0.5003E-03  0.1156E-03
      4.222  0.8538E+00  0.1385E+00  0.3458E-01
      4.293  0.2968E+00  0.4492E-01  0.1316E-01
      4.363  0.0000E+00  0.0000E+00  0.0000E+00
      4.434  0.1832E-01  0.8867E-07  0.2725E-02
      4.505  0.1703E+00  0.2284E-01  0.2534E-01
      4.576  0.2933E-01  0.3176E-01  0.1146E-01
      4.647  0.1329E+00  0.2962E-03  0.1021E-01
      4.717  0.1253E+01  0.2171E+00  0.1095E+00
      4.788  0.2827E+00  0.6013E-01  0.9723E-02
      4.859  0.4077E+00  0.1115E+00  0.3705E-01
      4.930  0.1809E+00  0.2849E-01  0.1003E-01
      5.001  0.4741E-01  0.1197E-02  0.5033E-02
      5.072  0.8353E+00  0.2387E-01  0.8209E-01
      5.142  0.3721E-05  0.5780E-03  0.2571E-04
      5.213  0.6236E-03  0.2174E+00  0.4490E-01
      5.284  0.5301E+00  0.8515E-01  0.3783E-01
      5.355  0.5043E-05  0.1132E-03  0.2565E-04
      5.426  0.1229E-01  0.2760E+00  0.6250E-01
      5.496  0.0000E+00  0.0000E+00  0.0000E+00
      5.567  0.0000E+00  0.0000E+00  0.0000E+00
      5.638  0.0000E+00  0.0000E+00  0.0000E+00
      5.709  0.0000E+00  0.0000E+00  0.0000E+00
      5.780  0.8760E-02  0.2106E-03  0.3349E-03
      5.851  0.2103E+00  0.4768E+00  0.4244E-01
      5.921  0.0000E+00  0.0000E+00  0.0000E+00
      5.992  0.0000E+00  0.0000E+00  0.0000E+00
      6.063  0.0000E+00  0.0000E+00  0.0000E+00
      6.134  0.0000E+00  0.0000E+00  0.0000E+00
      6.205  0.1932E+00  0.1394E+00  0.4601E-01
      6.275  0.1721E+00  0.2705E+00  0.4632E-01
      6.346  0.0000E+00  0.0000E+00  0.0000E+00
      6.417  0.5733E-01  0.4155E+00  0.3749E-01
      6.488  0.6232E-02  0.2697E+00  0.1065E+00
      6.559  0.0000E+00  0.0000E+00  0.0000E+00
      6.630  0.0000E+00  0.0000E+00  0.0000E+00
      6.700  0.1285E-02  0.1309E-01  0.1552E-02
      6.771  0.8824E-01  0.6010E+00  0.1348E+00
      6.842  0.5322E-02  0.8682E-01  0.2022E-01
      6.913  0.2878E-13  0.7194E-01  0.3407E-02
      6.984  0.4428E-01  0.7721E+00  0.6425E-01
      7.054  0.4177E-01  0.1031E+00  0.1696E-01
      7.125  0.2017E-02  0.1419E-01  0.1462E-02
      7.196  0.5406E-01  0.5943E+00  0.5154E-01
      7.267  0.2019E-04  0.5650E+00  0.6725E-01
      7.338  0.1899E-01  0.3878E+00  0.1075E+00
      7.408  0.0000E+00  0.0000E+00  0.0000E+00
      7.479  0.6308E-21  0.3361E-08  0.4350E-09
      7.550  0.8378E-13  0.4464E+00  0.5778E-01
      7.621  0.1996E-01  0.1091E+00  0.3683E-01
      7.692  0.1687E-01  0.9224E-01  0.3113E-01
      7.763  0.1191E-04  0.1294E-03  0.3203E-04
      7.833  0.2490E-01  0.2705E+00  0.6699E-01
      7.904  0.5096E-02  0.1786E+00  0.4695E-01
      7.975  0.1110E-02  0.3892E-01  0.1023E-01
      8.046  0.3512E-27  0.1752E-11  0.6516E-12
      8.117  0.1211E-16  0.6039E-01  0.2246E-01
      8.187  0.0000E+00  0.0000E+00  0.0000E+00
      8.258  0.0000E+00  0.0000E+00  0.0000E+00
      8.329  0.0000E+00  0.0000E+00  0.0000E+00
      8.400  0.0000E+00  0.0000E+00  0.0000E+00
      8.471  0.0000E+00  0.0000E+00  0.0000E+00
      8.542  0.0000E+00  0.0000E+00  0.0000E+00
      8.612  0.0000E+00  0.0000E+00  0.0000E+00
      8.683  0.0000E+00  0.0000E+00  0.0000E+00
      8.754  0.0000E+00  0.0000E+00  0.0000E+00
      8.825  0.0000E+00  0.0000E+00  0.0000E+00
      8.896  0.0000E+00  0.0000E+00  0.0000E+00
      8.966  0.0000E+00  0.0000E+00  0.0000E+00
      9.037  0.6874E-08  0.4611E-01  0.6420E-02
      9.108  0.4623E-07  0.1473E+00  0.2052E-01
      9.179  0.2445E-01  0.8757E-22  0.5971E-23
      9.250  0.0000E+00  0.0000E+00  0.0000E+00
      9.321  0.0000E+00  0.0000E+00  0.0000E+00
      9.391  0.0000E+00  0.0000E+00  0.0000E+00
      9.462  0.0000E+00  0.0000E+00  0.0000E+00
      9.533  0.0000E+00  0.0000E+00  0.0000E+00
      9.604  0.0000E+00  0.0000E+00  0.0000E+00
      9.675  0.0000E+00  0.0000E+00  0.0000E+00
      9.745  0.0000E+00  0.0000E+00  0.0000E+00
      9.816  0.0000E+00  0.0000E+00  0.0000E+00
      9.887  0.0000E+00  0.0000E+00  0.0000E+00
      9.958  0.0000E+00  0.0000E+00  0.0000E+00
     10.029  0.0000E+00  0.0000E+00  0.0000E+00
     10.099  0.0000E+00  0.0000E+00  0.0000E+00
     10.170  0.0000E+00  0.0000E+00  0.0000E+00
     10.241  0.8326E-06  0.4017E-13  0.1257E-06
     10.312  0.6149E-02  0.2967E-09  0.9284E-03
     10.383  0.0000E+00  0.0000E+00  0.0000E+00
     10.454  0.0000E+00  0.0000E+00  0.0000E+00
     10.524  0.0000E+00  0.0000E+00  0.0000E+00
     10.595  0.0000E+00  0.0000E+00  0.0000E+00
     10.666  0.0000E+00  0.0000E+00  0.0000E+00
     10.737  0.0000E+00  0.0000E+00  0.0000E+00
     10.808  0.0000E+00  0.0000E+00  0.0000E+00
     10.878  0.0000E+00  0.0000E+00  0.0000E+00
     10.949  0.0000E+00  0.0000E+00  0.0000E+00
     11.020  0.0000E+00  0.0000E+00  0.0000E+00
     11.091  0.0000E+00  0.0000E+00  0.0000E+00
     11.162  0.0000E+00  0.0000E+00  0.0000E+00
     11.233  0.0000E+00  0.0000E+00  0.0000E+00
     11.23255556    -10.01225484  301      1.83172696      1.00000000
    -10.012  0.0000E+00  0.0000E+00  0.0000E+00
     -9.941  0.0000E+00  0.0000E+00  0.0000E+00
     -9.871  0.0000E+00  0.0000E+00  0.0000E+00
     -9.800  0.0000E+00  0.0000E+00  0.0000E+00
     -9.729  0.0000E+00  0.0000E+00  0.0000E+00
     -9.658  0.0000E+00  0.0000E+00  0.0000E+00
     -9.587  0.0000E+00  0.0000E+00  0.0000E+00
     -9.517  0.0000E+00  0.0000E+00  0.0000E+00
     -9.446  0.0000E+00  0.0000E+00  0.0000E+00
     -9.375  0.0000E+00  0.0000E+00  0.0000E+00
     -9.304  0.0000E+00  0.0000E+00  0.0000E+00
     -9.233  0.0000E+00  0.0000E+00  0.0000E+00
     -9.162  0.0000E+00  0.0000E+00  0.0000E+00
     -9.092  0.5469E-12  0.2634E-36  0.2295E-35
     -9.021  0.5905E-02  0.5517E-11  0.4281E-10
     -8.950  0.3094E-01  0.1087E-02  0.8437E-02
     -8.879  0.6475E-01  0.5368E-02  0.4556E-01
     -8.808  0.3856E-01  0.6099E-02  0.5509E-01
     -8.738  0.1218E+00  0.3585E-01  0.3523E+00
     -8.667  0.7424E-01  0.5159E-01  0.5588E+00
     -8.596  0.6487E-01  0.1375E+00  0.1550E+01
     -8.525  0.0000E+00  0.0000E+00  0.0000E+00
     -8.454  0.0000E+00  0.0000E+00  0.0000E+00
     -8.383  0.0000E+00  0.0000E+00  0.0000E+00
     -8.313  0.0000E+00  0.0000E+00  0.0000E+00
     -8.242  0.0000E+00  0.0000E+00  0.0000E+00
     -8.171  0.0000E+00  0.0000E+00  0.0000E+00
     -8.100  0.0000E+00  0.0000E+00  0.0000E+00
     -8.029  0.0000E+00  0.0000E+00  0.0000E+00
     -7.959  0.0000E+00  0.0000E+00  0.0000E+00
     -7.888  0.0000E+00  0.0000E+00  0.0000E+00
     -7.817  0.0000E+00  0.0000E+00  0.0000E+00
     -7.746  0.0000E+00  0.0000E+00  0.0000E+00
     -7.675  0.0000E+00  0.0000E+00  0.0000E+00
     -7.605  0.0000E+00  0.0000E+00  0.0000E+00
     -7.534  0.0000E+00  0.0000E+00  0.0000E+00
     -7.463  0.0000E+00  0.0000E+00  0.0000E+00
     -7.392  0.0000E+00  0.0000E+00  0.0000E+00
     -7.321  0.0000E+00  0.0000E+00  0.0000E+00
     -7.250  0.0000E+00  0.0000E+00  0.0000E+00
     -7.180  0.0000E+00  0.0000E+00  0.0000E+00
     -7.109  0.0000E+00  0.0000E+00  0.0000E+00
     -7.038  0.0000E+00  0.0000E+00  0.0000E+00
     -6.967  0.0000E+00  0.0000E+00  0.0000E+00
     -6.896  0.0000E+00  0.0000E+00  0.0000E+00
     -6.826  0.0000E+00  0.0000E+00  0.0000E+00
     -6.755  0.0000E+00  0.0000E+00  0.0000E+00
     -6.684  0.0000E+00  0.0000E+00  0.0000E+00
     -6.613  0.0000E+00  0.0000E+00  0.0000E+00
     -6.542  0.0000E+00  0.0000E+00  0.0000E+00
     -6.471  0.0000E+00  0.0000E+00  0.0000E+00
     -6.401  0.0000E+00  0.0000E+00  0.0000E+00
     -6.330  0.3305E-15  0.4265E-06  0.1392E-02
     -6.259  0.2287E-02  0.3767E-02  0.1110E+02
     -6.188  0.9523E-02  0.1562E-01  0.4192E+02
     -6.117  0.1637E-01  0.5934E-03  0.1524E+02
     -6.047  0.5279E-02  0.4022E-03  0.3989E+02
     -5.976  0.2025E-01  0.1053E-02  0.2318E+01
     -5.905  0.2160E-01  0.1715E-02  0.2271E+01
     -5.834  0.1293E-01  0.2013E-02  0.1427E+01
     -5.763  0.3576E-01  0.9790E-02  0.5011E+01
     -5.692  0.2407E-01  0.1109E-01  0.4633E+01
     -5.622  0.9272E-02  0.1572E-01  0.4541E+01
     -5.551  0.3225E-27  0.1812E-02  0.4721E+00
     -5.480  0.0000E+00  0.0000E+00  0.0000E+00
     -5.409  0.0000E+00  0.0000E+00  0.0000E+00
     -5.338  0.0000E+00  0.0000E+00  0.0000E+00
     -5.268  0.0000E+00  0.0000E+00  0.0000E+00
     -5.197  0.0000E+00  0.0000E+00  0.0000E+00
     -5.126  0.0000E+00  0.0000E+00  0.0000E+00
     -5.055  0.0000E+00  0.0000E+00  0.0000E+00
     -4.984  0.0000E+00  0.0000E+00  0.0000E+00
     -4.914  0.0000E+00  0.0000E+00  0.0000E+00
     -4.843  0.0000E+00  0.0000E+00  0.0000E+00
     -4.772  0.0000E+00  0.0000E+00  0.0000E+00
     -4.701  0.0000E+00  0.0000E+00  0.0000E+00
     -4.630  0.0000E+00  0.0000E+00  0.0000E+00
     -4.559  0.0000E+00  0.0000E+00  0.0000E+00
     -4.489  0.0000E+00  0.0000E+00  0.0000E+00
     -4.418  0.0000E+00  0.0000E+00  0.0000E+00
     -4.347  0.0000E+00  0.0000E+00  0.0000E+00
     -4.276  0.0000E+00  0.0000E+00  0.0000E+00
     -4.205  0.0000E+00  0.0000E+00  0.0000E+00
     -4.135  0.0000E+00  0.0000E+00  0.0000E+00
     -4.064  0.0000E+00  0.0000E+00  0.0000E+00
     -3.993  0.0000E+00  0.0000E+00  0.0000E+00
     -3.922  0.0000E+00  0.0000E+00  0.0000E+00
     -3.851  0.0000E+00  0.0000E+00  0.0000E+00
     -3.780  0.0000E+00  0.0000E+00  0.0000E+00
     -3.710  0.0000E+00  0.0000E+00  0.0000E+00