    8    8  100    1
  0.3631583E+02  0.6623111E-09  0.6623111E-09  0.6623111E-09  0.5000000E-15
  1.000000000000000E-004
  CAR 
 Name                                    
     72     10     48
 
  0.0000000E+00  0.0000000E+00  0.0000000E+00  0.1562500E-01
    1       -9.046582
    2       -8.607043
    3       -8.607043
    4       -8.607043
    5       -6.311413
    6       -6.311413
    7       -6.311413
    8       -6.178526
    9       -6.178526
   10       -6.178526
   11       -6.178526
   12       -6.178526
   13       -6.178526
   14       -6.175874
   15       -6.175874
   16       -6.175874
   17       -6.097089
   18       -6.097089
   19       -6.071658
   20       -6.071658
   21       -6.071658
   22       -5.676929
   23       -5.676929
   24       -5.676929
   25       -2.227447
   26       -2.227447
   27       -2.227447
   28        0.121364
   29        0.121364
   30        0.121364
   31        0.121364
   32        0.121364
   33        0.121364
   34        1.771014
   35        1.771014
   36        1.771014
   37        2.343468
   38        4.438819
   39        4.438819
   40        4.438819
   41        4.517634
   42        4.517634
   43        4.517634
   44        6.410587
   45        6.410587
   46        6.410587
   47        9.141697
   48       10.266882
 
  0.2500000E+00  0.0000000E+00  0.0000000E+00  0.9375000E-01
    1       -8.980326
    2       -8.668039
    3       -8.607683
    4       -8.607683
    5       -6.293506
    6       -6.293506
    7       -6.267079
    8       -6.199668
    9       -6.199668
   10       -6.197399
   11       -6.197399
   12       -6.196089
   13       -6.196089
   14       -6.168027
   15       -6.145697
   16       -6.145697
   17       -6.102037
   18       -6.093380
   19       -6.079844
   20       -6.079844
   21       -6.075383
   22       -5.830409
   23       -5.644701
   24       -5.644701
   25       -2.172310
   26       -2.172310
   27       -1.800722
   28       -0.096316
   29       -0.096316
   30       -0.027097
   31       -0.027097
   32        0.309652
   33        0.309652
   34        0.538210
   35        1.446288
   36        1.446288
   37        3.608131
   38        4.465751
   39        4.812387
   40        5.008552
   41        5.008552
   42        5.168781
   43        5.168781
   44        5.840511
   45        6.923232
   46        6.923232
   47        9.042290
   48        9.042290
 
  0.5000000E+00  0.0000000E+00  0.0000000E+00  0.4687500E-01
    1       -8.821602
    2       -8.821602
    3       -8.608347
    4       -8.608347
    5       -6.248189
    6       -6.248189
    7       -6.248189
    8       -6.248189
    9       -6.211920
   10       -6.211920
   11       -6.203939
   12       -6.203939
   13       -6.167427
   14       -6.167427
   15       -6.120622
   16       -6.120622
   17       -6.095244
   18       -6.095244
   19       -6.084382
   20       -6.084382
   21       -6.064203
   22       -6.064203
   23       -5.613964
   24       -5.613964
   25       -2.109258
   26       -2.109258
   27       -0.774847
   28       -0.774847
   29       -0.301932
   30       -0.301932
   31       -0.160747
   32       -0.160747
   33        0.817380
   34        0.817380
   35        0.817380
   36        0.817380
   37        4.582300
   38        4.582300
   39        5.160169
   40        5.160169
   41        5.791170
   42        5.791170
   43        6.469125
   44        6.469125
   45        7.250123
   46        7.250123
   47        8.092141
   48        8.092141
 
  0.2500000E+00  0.2500000E+00  0.0000000E+00  0.1875000E+00
    1       -8.923622
    2       -8.659241
    3       -8.659241
    4       -8.616619
    5       -6.292227
    6       -6.281683
    7       -6.216615
    8       -6.216249
    9       -6.216249
   10       -6.211566
   11       -6.211566
   12       -6.201046
   13       -6.198527
   14       -6.142873
   15       -6.142873
   16       -6.133040
   17       -6.102545
   18       -6.092052
   19       -6.085288
   20       -6.080847
   21       -6.080847
   22       -5.776087
   23       -5.776087
   24       -5.643058
   25       -2.129195
   26       -1.875618
   27       -1.875618
   28       -0.498265
   29       -0.179349
   30        0.001340
   31        0.001340
   32        0.333877
   33        0.333877
   34        0.406488
   35        1.095344
   36        1.605912
   37        3.869283
   38        4.688263
   39        5.016115
   40        5.016115
   41        5.378483
   42        5.378483
   43        6.200648
   44        6.252652
   45        6.712895
   46        7.165319
   47        7.785927
   48        7.785927
 
  0.5000000E+00  0.2500000E+00  0.0000000E+00  0.1875000E+00
    1       -8.788887
    2       -8.788887
    3       -8.637990
    4       -8.637990
    5       -6.258876
    6       -6.258876
    7       -6.249152
    8       -6.249152
    9       -6.226478
   10       -6.226478
   11       -6.215653
   12       -6.215653
   13       -6.130832
   14       -6.130832
   15       -6.115937
   16       -6.115937
   17       -6.094575
   18       -6.094575
   19       -6.088646
   20       -6.088646
   21       -6.010400
   22       -6.010400
   23       -5.682918
   24       -5.682918
   25       -2.022191
   26       -2.022191
   27       -1.139066
   28       -1.139066
   29       -0.447985
   30       -0.447985
   31        0.446583
   32        0.446583
   33        0.458910
   34        0.458910
   35        1.051171
   36        1.051171
   37        4.686967
   38        4.686967
   39        5.267391
   40        5.267391
   41        5.802718
   42        5.802718
   43        6.715346
   44        6.715346
   45        7.137787
   46        7.137787
   47        7.284342
   48        7.284342
 
  0.5000000E+00  0.5000000E+00  0.0000000E+00  0.4687500E-01
    1       -8.711876
    2       -8.711876
    3       -8.711876
    4       -8.711876
    5       -6.246198
    6       -6.246198
    7       -6.246198
    8       -6.246198
    9       -6.243709
   10       -6.243709
   11       -6.243709
   12       -6.243709
   13       -6.102903
   14       -6.102903
   15       -6.102903
   16       -6.102903
   17       -6.101444
   18       -6.101444
   19       -6.101444
   20       -6.101444
   21       -5.850696
   22       -5.850696
   23       -5.850696
   24       -5.850696
   25       -1.690817
   26       -1.690817
   27       -1.690817
   28       -1.690817
   29       -0.134697
   30       -0.134697
   31       -0.134697
   32       -0.134697
   33        1.062163
   34        1.062163
   35        1.062163
   36        1.062163
   37        4.767928
   38        4.767928
   39        4.767928
   40        4.767928
   41        6.962944
   42        6.962944
   43        6.962944
   44        6.962944
   45        7.324244
   46        7.324244
   47        7.324244
   48        7.324244
 
  0.2500000E+00  0.2500000E+00  0.2500000E+00  0.1250000E+00
    1       -8.876595
    2       -8.659010
    3       -8.659010
    4       -8.659010
    5       -6.282110
    6       -6.282110
    7       -6.231081
    8       -6.231081
    9       -6.231081
   10       -6.217243
   11       -6.217243
   12       -6.217243
   13       -6.132447
   14       -6.128156
   15       -6.128156
   16       -6.128156
   17       -6.097155
   18       -6.097155
   19       -6.083600
   20       -6.083600
   21       -6.083600
   22       -5.745370
   23       -5.745370
   24       -5.745370
   25       -2.010589
   26       -2.010589
   27       -2.010589
   28       -0.786920
   29       -0.080658
   30       -0.080658
   31       -0.080658
   32        0.556128
   33        0.556128
   34        0.556128
   35        1.396262
   36        1.396262
   37        3.643057
   38        4.701215
   39        4.701215
   40        4.701215
   41        6.203716
   42        6.203716
   43        6.203716
   44        6.920340
   45        6.920340
   46        7.015802
   47        7.897700
   48        7.897700
 
  0.5000000E+00  0.2500000E+00  0.2500000E+00  0.1875000E+00
    1       -8.765462
    2       -8.765462
    3       -8.658780
    4       -8.658780
    5       -6.262140
    6       -6.262140
    7       -6.253570
    8       -6.253570
    9       -6.238250
   10       -6.238250
   11       -6.228563
   12       -6.228563
   13       -6.113766
   14       -6.113766
   15       -6.108771
   16       -6.108771
   17       -6.092013
   18       -6.092013
   19       -6.087232
   20       -6.087232
   21       -5.956319
   22       -5.956319
   23       -5.715007
   24       -5.715007
   25       -2.137012
   26       -2.137012
   27       -1.556235
   28       -1.556235
   29       -0.076787
   30       -0.076787
   31        0.656672
   32        0.656672
   33        0.826811
   34        0.826811
   35        0.947443
   36        0.947443
   37        4.222111
   38        4.222111
   39        4.855888
   40        4.855888
   41        6.407572
   42        6.407572
   43        6.432190
   44        6.432190
   45        7.519334
   46        7.519334
   47        7.620193
   48        7.620194
 
  0.5000000E+00  0.5000000E+00  0.2500000E+00  0.9375000E-01
    1       -8.710796
    2       -8.710796
    3       -8.710796
    4       -8.710796
    5       -6.253055
    6       -6.253055
    7       -6.253055
    8       -6.253055
    9       -6.252195
   10       -6.252195
   11       -6.252195
   12       -6.252195
   13       -6.095955
   14       -6.095955
   15       -6.095955
   16       -6.095955
   17       -6.094763
   18       -6.094763
   19       -6.094763
   20       -6.094763
   21       -5.823498
   22       -5.823498
   23       -5.823498
   24       -5.823498
   25       -2.043146
   26       -2.043146
   27       -2.043146
   28       -2.043146
   29        0.472514
   30        0.472514
   31        0.472514
   32        0.472514
   33        1.075432
   34        1.075432
   35        1.075432
   36        1.075432
   37        4.169101
   38        4.169101
   39        4.169101
   40        4.169101
   41        6.767151
   42        6.767151
   43        6.767151
   44        6.767151
   45        7.227525
   46        7.227525
   47        7.227525
   48        7.227525
 
  0.5000000E+00  0.5000000E+00  0.5000000E+00  0.1562500E-01
    1       -8.709698
    2       -8.709698
    3       -8.709698
    4       -8.709698
    5       -6.259354
    6       -6.259354
    7       -6.259354
    8       -6.259354
    9       -6.259354
   10       -6.259354
   11       -6.259354
   12       -6.259354
   13       -6.089567
   14       -6.089567
   15       -6.089567
   16       -6.089567
   17       -6.089567
   18       -6.089567
   19       -6.089567
   20       -6.089567
   21       -5.795042
   22       -5.795042
   23       -5.795042
   24       -5.795042
   25       -2.292639
   26       -2.292639
   27       -2.292639
   28       -2.292639
   29        1.088906
   30        1.088906
   31        1.088906
   32        1.088906
   33        1.088906
   34        1.088906
   35        1.088906
   36        1.088906
   37        3.521059
   38        3.521059
   39        3.521059
   40        3.521059
   41        6.977988
   42        6.977988
   43        6.977988
   44        6.977988
   45        6.977988
   46        6.977988
   47        6.977988
   48        6.977988
