       N       E                     dE             d eps       ncg     rms          rms(c)
DAV:   1    -0.192438215754E+02   -0.19244E+02   -0.16352E-02   960   0.149E+00    0.931E-03
DAV:   2    -0.192438233131E+02   -0.17376E-05   -0.92148E-07   544   0.895E-03    0.721E-03
DAV:   3    -0.192438260122E+02   -0.26991E-05   -0.61754E-07   528   0.727E-03    0.131E-03
DAV:   4    -0.192438262251E+02   -0.21293E-06   -0.13359E-07   512   0.384E-03
   1 F= -.19243826E+02 E0= -.19243826E+02  d E =-.192438E+02
       N       E                     dE             d eps       ncg     rms          rms(c)
DAV:   1    -0.192445446439E+02   -0.71863E-03   -0.14851E-02  1032   0.846E-01    0.200E-01
DAV:   2    -0.192439393705E+02    0.60527E-03   -0.17288E-03  1016   0.349E-01    0.630E-02
DAV:   3    -0.192438733533E+02    0.66017E-04   -0.15951E-04   992   0.708E-02    0.548E-02
DAV:   4    -0.192438532076E+02    0.20146E-04   -0.20970E-05   992   0.184E-02    0.956E-03
DAV:   5    -0.192438502067E+02    0.30009E-05   -0.49999E-06   944   0.160E-02    0.647E-03
DAV:   6    -0.192438497175E+02    0.48911E-06   -0.63981E-07   520   0.532E-03
   2 F= -.19243850E+02 E0= -.19243850E+02  d E =-.234925E-04
