 vasp.5.3.5 31Mar14 (build Mar 26 2015 15:03:36) complex                        
  
 executed on             LinuxIFC date 2015.12.16  11:13:28
 running on    8 total cores
 distrk:  each k-point on    8 cores,    1 groups
 distr:  one band on NCORES_PER_BAND=   1 cores,    8 groups


--------------------------------------------------------------------------------------------------------


 INCAR:
 POTCAR:    PAW_PBE Cd 06Sep2000                  
 POTCAR:    PAW_PBE Te 08Apr2002                  

 ----------------------------------------------------------------------------- 
|                                                                             |
|           W    W    AA    RRRRR   N    N  II  N    N   GGGG   !!!           |
|           W    W   A  A   R    R  NN   N  II  NN   N  G    G  !!!           |
|           W    W  A    A  R    R  N N  N  II  N N  N  G       !!!           |
|           W WW W  AAAAAA  RRRRR   N  N N  II  N  N N  G  GGG   !            |
|           WW  WW  A    A  R   R   N   NN  II  N   NN  G    G                |
|           W    W  A    A  R    R  N    N  II  N    N   GGGG   !!!           |
|                                                                             |
|      For optimal performance we recommend to set                            |
|        NCORE= 4 - approx SQRT( number of cores)                             |
|      NCORE specifies how many cores store one orbital (NPAR=cpu/NCORE).     |
|      This setting can  greatly improve the performance of VASP for DFT.     |
|      The default, NPAR=number of cores might be grossly inefficient         |
|      on modern multi-core architectures or massively parallel machines.     |
|      Do your own testing !!!!                                               |
|      Unfortunately you need to use the default for GW and RPA calculations. |
|      (for HF NCORE is supported but not extensively tested yet)             |
|                                                                             |
 ----------------------------------------------------------------------------- 

 POTCAR:    PAW_PBE Cd 06Sep2000                  
   VRHFIN =Cd : s2 d10                                                          
   LEXCH  = PE                                                                  
   EATOM  =  1293.1815 eV,   95.0462 Ry                                         
                                                                                
   TITEL  = PAW_PBE Cd 06Sep2000                                                
   LULTRA =        F    use ultrasoft PP ?                                      
   IUNSCR =        1    unscreen: 0-lin 1-nonlin 2-no                           
   RPACOR =    2.000    partial core radius                                     
   POMASS =  112.411; ZVAL   =   12.000    mass and valenz                      
   RCORE  =    2.300    outmost cutoff radius                                   
   RWIGS  =    2.980; RWIGS  =    1.577    wigner-seitz radius (au A)           
   ENMAX  =  274.336; ENMIN  =  205.752 eV                                      
   RCLOC  =    2.054    cutoff for local pot                                    
   LCOR   =        T    correct aug charges                                     
   LPAW   =        T    paw PP                                                  
   EAUG   =  456.106                                                            
   DEXC   =    0.000                                                            
   RMAX   =    2.358    core radius for proj-oper                               
   RAUG   =    1.300    factor for augmentation sphere                          
   RDEP   =    2.450    radius for radial grids                                 
   RDEPT  =    1.955    core radius for aug-charge                              
                                                                                
   Atomic configuration                                                         
   12 entries                                                                   
     n  l   j            E        occ.                                          
     1  0  0.50    -26519.7817   2.0000                                         
     2  0  0.50     -3936.9612   2.0000                                         
     2  1  1.50     -3532.2230   6.0000                                         
     3  0  0.50      -733.7908   2.0000                                         
     3  1  1.50      -601.0792   6.0000                                         
     3  2  2.50      -393.5307  10.0000                                         
     4  0  0.50      -105.8977   2.0000                                         
     4  1  1.50       -66.9488   6.0000                                         
     4  2  2.50       -11.7331  10.0000                                         
     5  0  0.50        -5.6592   2.0000                                         
     5  1  0.50        -1.3606   0.0000                                         
     4  3  2.50        -1.3606   0.0000                                         
   Description                                                                  
     l       E           TYP  RCUT    TYP  RCUT                                 
     2    -11.7331479     23  2.300                                             
     2    -13.0937305     23  2.300                                             
     0     -5.6591502     23  2.300                                             
     0     -1.5561433     23  2.300                                             
     1     -2.7211652     23  2.300                                             
     1      8.3548275     23  2.300                                             
  local pseudopotential read in
  partial core-charges read in
  partial kinetic energy density read in
  atomic valenz-charges read in
  non local Contribution for L=           2  read in
    real space projection operators read in
  non local Contribution for L=           2  read in
    real space projection operators read in
  non local Contribution for L=           0  read in
    real space projection operators read in
  non local Contribution for L=           0  read in
    real space projection operators read in
  non local Contribution for L=           1  read in
    real space projection operators read in
  non local Contribution for L=           1  read in
    real space projection operators read in
    PAW grid and wavefunctions read in
 
   number of l-projection  operators is LMAX  =           6
   number of lm-projection operators is LMMAX =          18
 
 POTCAR:    PAW_PBE Te 08Apr2002                  
   VRHFIN =Te: s2p4                                                             
   LEXCH  = PE                                                                  
   EATOM  =   223.2721 eV,   16.4100 Ry                                         
                                                                                
   TITEL  = PAW_PBE Te 08Apr2002                                                
   LULTRA =        F    use ultrasoft PP ?                                      
   IUNSCR =        1    unscreen: 0-lin 1-nonlin 2-no                           
   RPACOR =    2.200    partial core radius                                     
   POMASS =  127.600; ZVAL   =    6.000    mass and valenz                      
   RCORE  =    2.300    outmost cutoff radius                                   
   RWIGS  =    2.900; RWIGS  =    1.535    wigner-seitz radius (au A)           
   ENMAX  =  174.982; ENMIN  =  131.236 eV                                      
   ICORE  =        3    local potential                                         
   LCOR   =        T    correct aug charges                                     
   LPAW   =        T    paw PP                                                  
   EAUG   =  368.792                                                            
   DEXC   =    0.000                                                            
   RMAX   =    2.345    core radius for proj-oper                               
   RAUG   =    1.300    factor for augmentation sphere                          
   RDEP   =    2.397    radius for radial grids                                 
   RDEPT  =    2.174    core radius for aug-charge                              
                                                                                
   Atomic configuration                                                         
   13 entries                                                                   
     n  l   j            E        occ.                                          
     1  0  0.50    -31621.2075   2.0000                                         
     2  0  0.50     -4848.7941   2.0000                                         
     2  1  1.50     -4352.1960   6.0000                                         
     3  0  0.50      -964.9612   2.0000                                         
     3  1  1.50      -803.6179   6.0000                                         
     3  2  2.50      -559.8710  10.0000                                         
     4  0  0.50      -164.3522   2.0000                                         
     4  1  1.50      -114.3756   6.0000                                         
     4  2  2.50       -41.6483  10.0000                                         
     5  0  0.50       -15.1072   2.0000                                         
     5  1  0.50        -5.9526   4.0000                                         
     5  2  1.50        -5.4423   0.0000                                         
     4  3  2.50        -5.4423   0.0000                                         
   Description                                                                  
     l       E           TYP  RCUT    TYP  RCUT                                 
     0    -15.1072389     23  2.300                                             
     0    -16.4678215     23  2.300                                             
     1     -5.9526306     23  2.300                                             
     1     -2.4873968     23  2.300                                             
     2     -5.4423304     23  2.300                                             
     3     -1.3605826     23  2.300                                             
  local pseudopotential read in
  partial core-charges read in
  partial kinetic energy density read in
  atomic valenz-charges read in
  non local Contribution for L=           0  read in
    real space projection operators read in
  non local Contribution for L=           0  read in
    real space projection operators read in
  non local Contribution for L=           1  read in
    real space projection operators read in
  non local Contribution for L=           1  read in
    real space projection operators read in
  non local Contribution for L=           2  read in
    real space projection operators read in
    PAW grid and wavefunctions read in
 
   number of l-projection  operators is LMAX  =           5
   number of lm-projection operators is LMMAX =          13
 
  PAW_PBE Cd 06Sep2000                  :
 energy of atom  1       EATOM=-1293.1815
 kinetic energy error for atom=    0.0063 (will be added to EATOM!!)
  PAW_PBE Te 08Apr2002                  :
 energy of atom  2       EATOM= -223.2721
 kinetic energy error for atom=    0.0007 (will be added to EATOM!!)
 
 
 POSCAR: Cd1 Te1                                 
  positions in direct lattice
  velocities in cartesian coordinates
 exchange correlation table for  LEXCH =        8
   RHO(1)=    0.500       N(1)  =     2000
   RHO(2)=  100.500       N(2)  =     4000
 


--------------------------------------------------------------------------------------------------------


 ion  position               nearest neighbor table
   1  0.000  0.000  0.000-   5 2.87   6 2.87   7 2.87   8 2.87
   2  0.000  0.500  0.500-   5 2.87   6 2.87   7 2.87   8 2.87
   3  0.500  0.000  0.500-   5 2.87   6 2.87   7 2.87   8 2.87
   4  0.500  0.500  0.000-   5 2.87   6 2.87   7 2.87   8 2.87
   5  0.250  0.250  0.250-   1 2.87   2 2.87   3 2.87   4 2.87
   6  0.750  0.750  0.250-   1 2.87   2 2.87   3 2.87   4 2.87
   7  0.750  0.250  0.750-   1 2.87   2 2.87   3 2.87   4 2.87
   8  0.250  0.750  0.750-   1 2.87   2 2.87   3 2.87   4 2.87
 
  LATTYP: Found a simple cubic cell.
 ALAT       =     6.6231105740
  
  Lattice vectors:
  
 A1 = (   6.6231105740,   0.0000000000,   0.0000000000)
 A2 = (   0.0000000000,   6.6231105740,   0.0000000000)
 A3 = (   0.0000000000,   0.0000000000,   6.6231105740)


Analysis of symmetry for initial positions (statically):
=====================================================================
 Subroutine PRICEL returns following result:
 
  LATTYP: Found a face centered cubic cell.
 ALAT       =     6.6231105740
  
  Lattice vectors:
  
 A1 = (   3.3115552870,   3.3115552870,   0.0000000000)
 A2 = (   3.3115552870,   0.0000000000,  -3.3115552870)
 A3 = (   0.0000000000,   3.3115552870,  -3.3115552870)
 
   4 primitive cells build up your supercell.
 

 Routine SETGRP: Setting up the symmetry group for a 
 simple cubic supercell.


 Subroutine GETGRP returns: Found 24 space group operations
 (whereof 24 operations were pure point group operations)
 out of a pool of 48 trial point group operations.


The static configuration has the point symmetry T_d .


Analysis of symmetry for dynamics (positions and initial velocities):
=====================================================================
 Subroutine PRICEL returns following result:
 
  LATTYP: Found a face centered cubic cell.
 ALAT       =     6.6231105740
  
  Lattice vectors:
  
 A1 = (   3.3115552870,   3.3115552870,   0.0000000000)
 A2 = (   3.3115552870,   0.0000000000,  -3.3115552870)
 A3 = (   0.0000000000,   3.3115552870,  -3.3115552870)
 
   4 primitive cells build up your supercell.
 

 Routine SETGRP: Setting up the symmetry group for a 
 simple cubic supercell.


 Subroutine GETGRP returns: Found 24 space group operations
 (whereof 24 operations were pure point group operations)
 out of a pool of 48 trial point group operations.


The dynamic configuration has the point symmetry T_d .
 
 
 KPOINTS: Automatic mesh                          

Automatic generation of k-mesh.
Space group operators:
 irot       det(A)        alpha          n_x          n_y          n_z        tau_x        tau_y        tau_z
    1     1.000000     0.000000     1.000000     0.000000     0.000000     0.000000     0.000000     0.000000
    2     1.000000   120.000000    -0.577350    -0.577350    -0.577350     0.000000     0.000000     0.000000
    3     1.000000   120.000000     0.577350     0.577350     0.577350     0.000000     0.000000     0.000000
    4    -1.000000    90.000000     0.000000     0.000000    -1.000000     0.000000     0.000000     0.000000
    5    -1.000000   180.000000     0.000000     0.707107     0.707107     0.000000     0.000000     0.000000
    6    -1.000000    90.000000     0.000000     1.000000     0.000000     0.000000     0.000000     0.000000
    7     1.000000   180.000000     0.000000     0.000000     1.000000     0.000000     0.000000     0.000000
    8     1.000000   120.000000    -0.577350     0.577350     0.577350     0.000000     0.000000     0.000000
    9     1.000000   120.000000    -0.577350     0.577350    -0.577350     0.000000     0.000000     0.000000
   10    -1.000000    90.000000     0.000000     0.000000     1.000000     0.000000     0.000000     0.000000
   11    -1.000000    90.000000    -1.000000     0.000000     0.000000     0.000000     0.000000     0.000000
   12    -1.000000   180.000000     0.707107     0.000000     0.707107     0.000000     0.000000     0.000000
   13     1.000000   120.000000     0.577350    -0.577350     0.577350     0.000000     0.000000     0.000000
   14     1.000000   120.000000    -0.577350    -0.577350     0.577350     0.000000     0.000000     0.000000
   15     1.000000   180.000000     1.000000     0.000000     0.000000     0.000000     0.000000     0.000000
   16    -1.000000    90.000000     0.000000    -1.000000     0.000000     0.000000     0.000000     0.000000
   17    -1.000000   180.000000     0.707107     0.707107     0.000000     0.000000     0.000000     0.000000
   18    -1.000000    90.000000     1.000000     0.000000     0.000000     0.000000     0.000000     0.000000
   19     1.000000   120.000000     0.577350    -0.577350    -0.577350     0.000000     0.000000     0.000000
   20     1.000000   180.000000     0.000000     1.000000     0.000000     0.000000     0.000000     0.000000
   21     1.000000   120.000000     0.577350     0.577350    -0.577350     0.000000     0.000000     0.000000
   22    -1.000000   180.000000     0.000000    -0.707107     0.707107     0.000000     0.000000     0.000000
   23    -1.000000   180.000000     0.707107    -0.707107     0.000000     0.000000     0.000000     0.000000
   24    -1.000000   180.000000     0.707107     0.000000    -0.707107     0.000000     0.000000     0.000000
 
 Subroutine IBZKPT returns following result:
 ===========================================
 
 Found     10 irreducible k-points:
 
 Following reciprocal coordinates:
            Coordinates               Weight
  0.000000  0.000000  0.000000      1.000000
  0.250000  0.000000  0.000000      6.000000
  0.500000  0.000000  0.000000      3.000000
  0.250000  0.250000  0.000000     12.000000
  0.500000  0.250000  0.000000     12.000000
  0.500000  0.500000  0.000000      3.000000
  0.250000  0.250000  0.250000      8.000000
  0.500000  0.250000  0.250000     12.000000
  0.500000  0.500000  0.250000      6.000000
  0.500000  0.500000  0.500000      1.000000
 
 Following cartesian coordinates:
            Coordinates               Weight
  0.000000  0.000000  0.000000      1.000000
  0.037747  0.000000  0.000000      6.000000
  0.075493  0.000000  0.000000      3.000000
  0.037747  0.037747  0.000000     12.000000
  0.075493  0.037747  0.000000     12.000000
  0.075493  0.075493  0.000000      3.000000
  0.037747  0.037747  0.037747      8.000000
  0.075493  0.037747  0.037747     12.000000
  0.075493  0.075493  0.037747      6.000000
  0.075493  0.075493  0.075493      1.000000
 


--------------------------------------------------------------------------------------------------------




 Dimension of arrays:
   k-points           NKPTS =     10   k-points in BZ     NKDIM =     10   number of bands    NBANDS=     48
   number of dos      NEDOS =    301   number of ions     NIONS =      8
   non local maximal  LDIM  =      6   non local SUM 2l+1 LMDIM =     18
   total plane-waves  NPLWV =  46656
   max r-space proj   IRMAX =      1   max aug-charges    IRDMAX=   9539
   dimension x,y,z NGX =    36 NGY =   36 NGZ =   36
   dimension x,y,z NGXF=    72 NGYF=   72 NGZF=   72
   support grid    NGXF=    72 NGYF=   72 NGZF=   72
   ions per type =               4   4
 NGX,Y,Z   is equivalent  to a cutoff of   9.04,  9.04,  9.04 a.u.
 NGXF,Y,Z  is equivalent  to a cutoff of  18.07, 18.07, 18.07 a.u.


 I would recommend the setting:
   dimension x,y,z NGX =    36 NGY =   36 NGZ =   36
 SYSTEM =  Name                                    
 POSCAR =  Cd1 Te1                                 

 Startparameter for this run:
   NWRITE =      2    write-flag & timer
   PREC   = normal    normal or accurate (medium, high low for compatibility)
   ISTART =      1    job   : 0-new  1-cont  2-samecut
   ICHARG =      0    charge: 1-file 2-atom 10-const
   ISPIN  =      1    spin polarized calculation?
   LNONCOLLINEAR =      F non collinear calculations
   LSORBIT =      F    spin-orbit coupling
   INIWAV =      1    electr: 0-lowe 1-rand  2-diag
   LASPH  =      F    aspherical Exc in radial PAW
   METAGGA=      F    non-selfconsistent MetaGGA calc.

 Electronic Relaxation 1
   ENCUT  =  500.0 eV  36.75 Ry    6.06 a.u.  12.08 12.08 12.08*2*pi/ulx,y,z
   ENINI  =  500.0     initial cutoff
   ENAUG  =  456.1 eV  augmentation charge cutoff
   NELM   =     60;   NELMIN=  2; NELMDL=  0     # of ELM steps 
   EDIFF  = 0.1E-05   stopping-criterion for ELM
   LREAL  =      F    real-space projection
   NLSPLINE    = F    spline interpolate recip. space projectors
   LCOMPAT=      F    compatible to vasp.4.4
   GGA_COMPAT  = T    GGA compatible to vasp.4.4-vasp.4.6
   LMAXPAW     = -100 max onsite density
   LMAXMIX     =    2 max onsite mixed and CHGCAR
   VOSKOWN=      0    Vosko Wilk Nusair interpolation
   ROPT   =    0.00000   0.00000
 Ionic relaxation
   EDIFFG = -.5E-02   stopping-criterion for IOM
   NSW    =    100    number of steps for IOM
   NBLOCK =      1;   KBLOCK =    100    inner block; outer block 
   IBRION =      2    ionic relax: 0-MD 1-quasi-New 2-CG
   NFREE  =      1    steps in history (QN), initial steepest desc. (CG)
   ISIF   =      3    stress and relaxation
   IWAVPR =     11    prediction:  0-non 1-charg 2-wave 3-comb
   ISYM   =      2    0-nonsym 1-usesym 2-fastsym
   LCORR  =      T    Harris-Foulkes like correction to forces

   POTIM  = 0.5000    time-step for ionic-motion
   TEIN   =    0.0    initial temperature
   TEBEG  =    0.0;   TEEND  =   0.0 temperature during run
   SMASS  =  -3.00    Nose mass-parameter (am)
   estimated Nose-frequenzy (Omega)   =  0.10E-29 period in steps =****** mass=  -0.100E-26a.u.
   SCALEE = 1.0000    scale energy and forces
   NPACO  =    256;   APACO  = 16.0  distance and # of slots for P.C.
   PSTRESS=    0.0 pullay stress

  Mass of Ions in am
   POMASS = 112.41127.60
  Ionic Valenz
   ZVAL   =  12.00  6.00
  Atomic Wigner-Seitz radii
   RWIGS  =  -1.00 -1.00
  virtual crystal weights 
   VCA    =   1.00  1.00
   NELECT =      72.0000    total number of electrons
   NUPDOWN=      -1.0000    fix difference up-down

 DOS related values:
   EMIN   =  10.00;   EMAX   =-10.00  energy-range for DOS
   EFERMI =   0.00
   ISMEAR =     0;   SIGMA  =   0.01  broadening in eV -4-tet -1-fermi 0-gaus

 Electronic relaxation 2 (details)
   IALGO  =     38    algorithm
   LDIAG  =      T    sub-space diagonalisation (order eigenvalues)
   LSUBROT=      F    optimize rotation matrix (better conditioning)
   TURBO    =      0    0=normal 1=particle mesh
   IRESTART =      0    0=no restart 2=restart with 2 vectors
   NREBOOT  =      0    no. of reboots
   NMIN     =      0    reboot dimension
   EREF     =   0.00    reference energy to select bands
   IMIX   =      4    mixing-type and parameters
     AMIX     =   0.40;   BMIX     =  1.00
     AMIX_MAG =   1.60;   BMIX_MAG =  1.00
     AMIN     =   0.01
     WC   =   100.;   INIMIX=   1;  MIXPRE=   1;  MAXMIX= -45

 Intra band minimization:
   WEIMIN = 0.0010     energy-eigenvalue tresh-hold
   EBREAK =  0.52E-08  absolut break condition
   DEPER  =   0.30     relativ break condition  

   TIME   =   0.40     timestep for ELM

  volume/ion in A,a.u.               =      36.32       245.07
  Fermi-wavevector in a.u.,A,eV,Ry     =   1.028309  1.943222 14.387066  1.057419
  Thomas-Fermi vector in A             =   2.162299
 
 Write flags
   LWAVE  =      T    write WAVECAR
   LCHARG =      T    write CHGCAR
   LVTOT  =      F    write LOCPOT, total local potential
   LVHAR  =      F    write LOCPOT, Hartree potential only
   LELF   =      F    write electronic localiz. function (ELF)
   LORBIT =     10    0 simple, 1 ext, 2 COOP (PROOUT)


 Dipole corrections
   LMONO  =      F    monopole corrections only (constant potential shift)
   LDIPOL =      F    correct potential (dipole corrections)
   IDIPOL =      0    1-x, 2-y, 3-z, 4-all directions 
   EPSILON=  1.0000000 bulk dielectric constant

 Core level calculations are selected ICORELEVEL =  1
 Exchange correlation treatment:
   GGA     =    PE    GGA type
   LEXCH   =     8    internal setting for exchange type
   VOSKOWN=      0    Vosko Wilk Nusair interpolation
   LHFCALC =     F    Hartree Fock is set to
   LHFONE  =     F    Hartree Fock one center treatment
   AEXX    =    0.0000 exact exchange contribution

 Linear response parameters
   LEPSILON=     F    determine dielectric tensor
   LRPA    =     F    only Hartree local field effects (RPA)
   LNABLA  =     F    use nabla operator in PAW spheres
   LVEL    =     F    velocity operator in full k-point grid
   LINTERFAST=   F  fast interpolation
   KINTER  =     0    interpolate to denser k-point grid
   CSHIFT  =0.1000    complex shift for real part using Kramers Kronig
   OMEGAMAX=  -1.0    maximum frequency
   DEG_THRESHOLD= 0.2000000E-02 threshold for treating states as degnerate
   RTIME   =    0.100 relaxation time in fs

 Orbital magnetization related:
   ORBITALMAG=     F  switch on orbital magnetization
   LCHIMAG   =     F  perturbation theory with respect to B field
   DQ        =  0.001000  dq finite difference perturbation B field



--------------------------------------------------------------------------------------------------------


 conjugate gradient relaxation of ions
 charge density and potential will be updated during run
 non-spin polarized calculation
 Variant of blocked Davidson
 Davidson routine will perform the subspace rotation
 perform sub-space diagonalisation
    after iterative eigenvector-optimisation
 modified Broyden-mixing scheme, WC =      100.0
 initial mixing is a Kerker type mixing with AMIX =  0.4000 and BMIX =      1.0000
 Hartree-type preconditioning will be used
 using additional bands           12
 reciprocal scheme for non local part
 use partial core corrections
 calculate Harris-corrections to forces 
   (improved forces if not selfconsistent)
 use gradient corrections 
 use of overlap-Matrix (Vanderbilt PP)
 Gauss-broadening in eV      SIGMA  =   0.01


--------------------------------------------------------------------------------------------------------


  energy-cutoff  :      500.00
  volume of cell :      290.53
      direct lattice vectors                 reciprocal lattice vectors
     6.623110574  0.000000000  0.000000000     0.150986457  0.000000000  0.000000000
     0.000000000  6.623110574  0.000000000     0.000000000  0.150986457  0.000000000
     0.000000000  0.000000000  6.623110574     0.000000000  0.000000000  0.150986457

  length of vectors
     6.623110574  6.623110574  6.623110574     0.150986457  0.150986457  0.150986457


 
 old parameters found on file WAVECAR:
  energy-cutoff  :      500.00
  volume of cell :      271.59
      direct lattice vectors                 reciprocal lattice vectors
     6.475999832  0.000000000  0.000000000     0.154416310  0.000000000  0.000000000
     0.000000000  6.475999832  0.000000000     0.000000000  0.154416310  0.000000000
     0.000000000  0.000000000  6.475999832     0.000000000  0.000000000  0.154416310

  length of vectors

 
 k-points in units of 2pi/SCALE and weight: Automatic mesh                          
   0.00000000  0.00000000  0.00000000       0.016
   0.03774661  0.00000000  0.00000000       0.094
   0.07549323  0.00000000  0.00000000       0.047
   0.03774661  0.03774661  0.00000000       0.188
   0.07549323  0.03774661  0.00000000       0.188
   0.07549323  0.07549323  0.00000000       0.047
   0.03774661  0.03774661  0.03774661       0.125
   0.07549323  0.03774661  0.03774661       0.188
   0.07549323  0.07549323  0.03774661       0.094
   0.07549323  0.07549323  0.07549323       0.016
 
 k-points in reciprocal lattice and weights: Automatic mesh                          
   0.00000000  0.00000000  0.00000000       0.016
   0.25000000  0.00000000  0.00000000       0.094
   0.50000000  0.00000000  0.00000000       0.047
   0.25000000  0.25000000  0.00000000       0.188
   0.50000000  0.25000000  0.00000000       0.188
   0.50000000  0.50000000  0.00000000       0.047
   0.25000000  0.25000000  0.25000000       0.125
   0.50000000  0.25000000  0.25000000       0.188
   0.50000000  0.50000000  0.25000000       0.094
   0.50000000  0.50000000  0.50000000       0.016
 
 position of ions in fractional coordinates (direct lattice) 
   0.00000000  0.00000000  0.00000000
   0.00000000  0.50000000  0.50000000
   0.50000000  0.00000000  0.50000000
   0.50000000  0.50000000  0.00000000
   0.25000000  0.25000000  0.25000000
   0.75000000  0.75000000  0.25000000
   0.75000000  0.25000000  0.75000000
   0.25000000  0.75000000  0.75000000
 
 position of ions in cartesian coordinates  (Angst):
   0.00000000  0.00000000  0.00000000
   0.00000000  3.31155529  3.31155529
   3.31155529  0.00000000  3.31155529
   3.31155529  3.31155529  0.00000000
   1.65577764  1.65577764  1.65577764
   4.96733293  4.96733293  1.65577764
   4.96733293  1.65577764  4.96733293
   1.65577764  4.96733293  4.96733293
 


--------------------------------------------------------------------------------------------------------


 k-point  1 :   0.0000 0.0000 0.0000  plane waves:    7249
 k-point  2 :   0.2500 0.0000 0.0000  plane waves:    7360
 k-point  3 :   0.5000 0.0000 0.0000  plane waves:    7368
 k-point  4 :   0.2500 0.2500 0.0000  plane waves:    7395
 k-point  5 :   0.5000 0.2500 0.0000  plane waves:    7398
 k-point  6 :   0.5000 0.5000 0.0000  plane waves:    7380
 k-point  7 :   0.2500 0.2500 0.2500  plane waves:    7394
 k-point  8 :   0.5000 0.2500 0.2500  plane waves:    7354
 k-point  9 :   0.5000 0.5000 0.2500  plane waves:    7384
 k-point 10 :   0.5000 0.5000 0.5000  plane waves:    7400

 maximum and minimum number of plane-waves per node :      7400     7249

 maximum number of plane-waves:      7400
 maximum index in each direction: 
   IXMAX=   12   IYMAX=   12   IZMAX=   12
   IXMIN=  -12   IYMIN=  -12   IZMIN=  -12

 WARNING: aliasing errors must be expected set NGX to  50 to avoid them
 WARNING: aliasing errors must be expected set NGY to  50 to avoid them
 WARNING: aliasing errors must be expected set NGZ to  50 to avoid them
 aliasing errors are usually negligible using standard VASP settings
 and one can safely disregard these warnings

 serial   3D FFT for wavefunctions
 parallel 3D FFT for charge:
    minimum data exchange during FFTs selected (reduces bandwidth)


 total amount of memory used by VASP on root node    65974. kBytes
========================================================================

   base      :      30000. kBytes
   nonl-proj :      22259. kBytes
   fftplans  :       1814. kBytes
   grid      :       4551. kBytes
   one-center:        124. kBytes
   wavefun   :       7226. kBytes
 
     INWAV:  cpu time    0.10: real time    0.13
 Broyden mixing: mesh for mixing (old mesh)
   NGX = 25   NGY = 25   NGZ = 25
  (NGX  = 72   NGY  = 72   NGZ  = 72)
  gives a total of  15625 points

 charge density for first step will be calculated from the start-wavefunctions


--------------------------------------------------------------------------------------------------------


 Maximum index for augmentation-charges         1143 (set IRDMAX)


--------------------------------------------------------------------------------------------------------


 initial charge from wavefunction
 First call to EWALD:  gamma=   0.268
 Maximum number of real-space cells 3x 3x 3
 Maximum number of reciprocal cells 3x 3x 3

 FEWALD executed in parallel
    FEWALD:  cpu time    0.00: real time    0.00


----------------------------------------- Iteration    1(   1)  ---------------------------------------


    POTLOK:  cpu time    0.03: real time    0.07
    SETDIJ:  cpu time    0.00: real time    0.01
     EDDAV:  cpu time    1.09: real time    2.26
       DOS:  cpu time    0.00: real time    0.01
    CHARGE:  cpu time    0.06: real time    0.10
    MIXING:  cpu time    0.00: real time    0.00
    --------------------------------------------
      LOOP:  cpu time    1.19: real time    2.46

 eigenvalue-minimisations  :   960
 total energy-change (2. order) :-0.1924382E+02  (-0.1635244E-02)
 number of electron      71.9999863 magnetization 
 augmentation part       18.3455370 magnetization 

 Broyden mixing:
  rms(total) = 0.93097E-03    rms(broyden)= 0.91247E-03
  rms(prec ) = 0.96755E-03
  weight for this iteration     100.00

 Free energy of the ion-electron system (eV)
  ---------------------------------------------------
  alpha Z        PSCENC =       188.19369429
  Ewald energy   TEWEN  =     -4090.72356811
  -Hartree energ DENC   =     -2064.11108120
  -exchange      EXHF   =         0.00000000
  -V(xc)+E(xc)   XCENC  =       -91.16185696
  PAW double counting   =      6761.22585160    -6469.57490482
  entropy T*S    EENTRO =        -0.00000000
  eigenvalues    EBANDS =      -318.87841954
  atomic energy  EATOM  =      6065.78646317
  ---------------------------------------------------
  free energy    TOTEN  =       -19.24382158 eV

  energy without entropy =      -19.24382158  energy(sigma->0) =      -19.24382158


--------------------------------------------------------------------------------------------------------




----------------------------------------- Iteration    1(   2)  ---------------------------------------


    POTLOK:  cpu time    0.03: real time    0.07
    SETDIJ:  cpu time    0.00: real time    0.00
     EDDAV:  cpu time    0.76: real time    1.57
       DOS:  cpu time    0.00: real time    0.01
    CHARGE:  cpu time    0.06: real time    0.10
    MIXING:  cpu time    0.00: real time    0.00
    --------------------------------------------
      LOOP:  cpu time    0.86: real time    1.76

 eigenvalue-minimisations  :   544
 total energy-change (2. order) :-0.1737619E-05  (-0.9214825E-07)
 number of electron      71.9999863 magnetization 
 augmentation part       18.3456949 magnetization 

 Broyden mixing:
  rms(total) = 0.72080E-03    rms(broyden)= 0.71982E-03
  rms(prec ) = 0.74933E-03
  weight for this iteration     100.00

 eigenvalues of (default mixing * dielectric matrix)
  average eigenvalue GAMMA=   1.9106
  1.9106

 Free energy of the ion-electron system (eV)
  ---------------------------------------------------
  alpha Z        PSCENC =       188.19369429
  Ewald energy   TEWEN  =     -4090.72356811
  -Hartree energ DENC   =     -2064.11147467
  -exchange      EXHF   =         0.00000000
  -V(xc)+E(xc)   XCENC  =       -91.16177680
  PAW double counting   =      6761.05157158    -6469.40150652
  entropy T*S    EENTRO =        -0.00000000
  eigenvalues    EBANDS =      -318.87722626
  atomic energy  EATOM  =      6065.78646317
  ---------------------------------------------------
  free energy    TOTEN  =       -19.24382331 eV

  energy without entropy =      -19.24382331  energy(sigma->0) =      -19.24382331


--------------------------------------------------------------------------------------------------------




----------------------------------------- Iteration    1(   3)  ---------------------------------------


    POTLOK:  cpu time    0.03: real time    0.06
    SETDIJ:  cpu time    0.00: real time    0.01
     EDDAV:  cpu time    0.75: real time    1.54
       DOS:  cpu time    0.00: real time    0.00
    CHARGE:  cpu time    0.06: real time    0.11
    MIXING:  cpu time    0.00: real time    0.00
    --------------------------------------------
      LOOP:  cpu time    0.84: real time    1.72

 eigenvalue-minimisations  :   528
 total energy-change (2. order) :-0.2699099E-05  (-0.6175411E-07)
 number of electron      71.9999863 magnetization 
 augmentation part       18.3455913 magnetization 

 Broyden mixing:
  rms(total) = 0.13130E-03    rms(broyden)= 0.13105E-03
  rms(prec ) = 0.15244E-03
  weight for this iteration     100.00

 eigenvalues of (default mixing * dielectric matrix)
  average eigenvalue GAMMA=   1.6351
  0.7721  2.4980

 Free energy of the ion-electron system (eV)
  ---------------------------------------------------
  alpha Z        PSCENC =       188.19369429
  Ewald energy   TEWEN  =     -4090.72356811
  -Hartree energ DENC   =     -2064.12010277
  -exchange      EXHF   =         0.00000000
  -V(xc)+E(xc)   XCENC  =       -91.16139220
  PAW double counting   =      6760.91893515    -6469.27078573
  entropy T*S    EENTRO =        -0.00000000
  eigenvalues    EBANDS =      -318.86706981
  atomic energy  EATOM  =      6065.78646317
  ---------------------------------------------------
  free energy    TOTEN  =       -19.24382601 eV

  energy without entropy =      -19.24382601  energy(sigma->0) =      -19.24382601


--------------------------------------------------------------------------------------------------------




----------------------------------------- Iteration    1(   4)  ---------------------------------------


    POTLOK:  cpu time    0.03: real time    0.07
    SETDIJ:  cpu time    0.00: real time    0.01
     EDDAV:  cpu time    0.73: real time    1.51
       DOS:  cpu time    0.00: real time    0.00
    --------------------------------------------
      LOOP:  cpu time    0.80: real time    1.65

 eigenvalue-minimisations  :   512
 total energy-change (2. order) :-0.2129273E-06  (-0.1335945E-07)
 number of electron      71.9999863 magnetization 
 augmentation part       18.3455913 magnetization 

 Free energy of the ion-electron system (eV)
  ---------------------------------------------------
  alpha Z        PSCENC =       188.19369429
  Ewald energy   TEWEN  =     -4090.72356811
  -Hartree energ DENC   =     -2064.11802260
  -exchange      EXHF   =         0.00000000
  -V(xc)+E(xc)   XCENC  =       -91.16141715
  PAW double counting   =      6760.89746106    -6469.24950222
  entropy T*S    EENTRO =        -0.00000000
  eigenvalues    EBANDS =      -318.86893466
  atomic energy  EATOM  =      6065.78646317
  ---------------------------------------------------
  free energy    TOTEN  =       -19.24382623 eV

  energy without entropy =      -19.24382623  energy(sigma->0) =      -19.24382623


--------------------------------------------------------------------------------------------------------




 the core state eigenenergies are
   1-  1s -26514.0248  2s  -3931.1886  2p  -3526.4441  3s   -728.0576  3p   -595.3469
       3d   -387.7978  4s   -100.2338  4p    -61.2909
   2-  1s -26514.0248  2s  -3931.1886  2p  -3526.4441  3s   -728.0576  3p   -595.3469
       3d   -387.7978  4s   -100.2338  4p    -61.2909
   3-  1s -26514.0248  2s  -3931.1886  2p  -3526.4441  3s   -728.0576  3p   -595.3469
       3d   -387.7978  4s   -100.2338  4p    -61.2909
   4-  1s -26514.0248  2s  -3931.1886  2p  -3526.4441  3s   -728.0576  3p   -595.3469
       3d   -387.7978  4s   -100.2338  4p    -61.2909
   5-  1s -31613.4434  2s  -4841.0154  2p  -4344.4125  3s   -957.2171  3p   -795.8751
       3d   -552.1268  4s   -156.6971  4p   -106.7327  4d    -34.0445
   6-  1s -31613.4434  2s  -4841.0154  2p  -4344.4125  3s   -957.2171  3p   -795.8751
       3d   -552.1268  4s   -156.6971  4p   -106.7327  4d    -34.0445
   7-  1s -31613.4434  2s  -4841.0154  2p  -4344.4125  3s   -957.2171  3p   -795.8751
       3d   -552.1268  4s   -156.6971  4p   -106.7327  4d    -34.0445
   8-  1s -31613.4434  2s  -4841.0154  2p  -4344.4125  3s   -957.2171  3p   -795.8751
       3d   -552.1268  4s   -156.6971  4p   -106.7327  4d    -34.0445
 
 E-fermi :   1.8410     XC(G=0):  -8.2989     alpha+bet : -6.9605


 k-point     1 :       0.0000    0.0000    0.0000
  band No.  band energies     occupation 
      1      -9.0432      2.00000
      2      -8.6024      2.00000
      3      -8.6024      2.00000
      4      -8.6024      2.00000
      5      -6.3053      2.00000
      6      -6.3053      2.00000
      7      -6.3053      2.00000
      8      -6.1720      2.00000
      9      -6.1720      2.00000
     10      -6.1720      2.00000
     11      -6.1720      2.00000
     12      -6.1720      2.00000
     13      -6.1720      2.00000
     14      -6.1695      2.00000
     15      -6.1695      2.00000
     16      -6.1695      2.00000
     17      -6.0903      2.00000
     18      -6.0903      2.00000
     19      -6.0648      2.00000
     20      -6.0648      2.00000
     21      -6.0648      2.00000
     22      -5.6692      2.00000
     23      -5.6692      2.00000
     24      -5.6692      2.00000
     25      -2.2234      2.00000
     26      -2.2234      2.00000
     27      -2.2234      2.00000
     28       0.1268      2.00000
     29       0.1268      2.00000
     30       0.1268      2.00000
     31       0.1268      2.00000
     32       0.1268      2.00000
     33       0.1268      2.00000
     34       1.7796      2.00000
     35       1.7796      2.00000
     36       1.7796      2.00000
     37       2.3551      0.00000
     38       4.4477      0.00000
     39       4.4477      0.00000
     40       4.4477      0.00000
     41       4.5242      0.00000
     42       4.5242      0.00000
     43       4.5242      0.00000
     44       6.4187      0.00000
     45       6.4187      0.00000
     46       6.4187      0.00000
     47       9.1519      0.00000
     48      10.2806      0.00000

 k-point     2 :       0.2500    0.0000    0.0000
  band No.  band energies     occupation 
      1      -8.9767      2.00000
      2      -8.6636      2.00000
      3      -8.6031      2.00000
      4      -8.6031      2.00000
      5      -6.2874      2.00000
      6      -6.2874      2.00000
      7      -6.2610      2.00000
      8      -6.1932      2.00000
      9      -6.1932      2.00000
     10      -6.1910      2.00000
     11      -6.1910      2.00000
     12      -6.1896      2.00000
     13      -6.1896      2.00000
     14      -6.1616      2.00000
     15      -6.1391      2.00000
     16      -6.1391      2.00000
     17      -6.0953      2.00000
     18      -6.0866      2.00000
     19      -6.0730      2.00000
     20      -6.0730      2.00000
     21      -6.0686      2.00000
     22      -5.8232      2.00000
     23      -5.6368      2.00000
     24      -5.6368      2.00000
     25      -2.1683      2.00000
     26      -2.1683      2.00000
     27      -1.7957      2.00000
     28      -0.0912      2.00000
     29      -0.0912      2.00000
     30      -0.0221      2.00000
     31      -0.0221      2.00000
     32       0.3154      2.00000
     33       0.3154      2.00000
     34       0.5465      2.00000
     35       1.4541      2.00000
     36       1.4541      2.00000
     37       3.6199      0.00000
     38       4.4740      0.00000
     39       4.8204      0.00000
     40       5.0185      0.00000
     41       5.0185      0.00000
     42       5.1762      0.00000
     43       5.1762      0.00000
     44       5.8482      0.00000
     45       6.9322      0.00000
     46       6.9322      0.00000
     47       9.0538      0.00000
     48       9.0538      0.00000

 k-point     3 :       0.5000    0.0000    0.0000
  band No.  band energies     occupation 
      1      -8.8176      2.00000
      2      -8.8176      2.00000
      3      -8.6038      2.00000
      4      -8.6038      2.00000
      5      -6.2419      2.00000
      6      -6.2419      2.00000
      7      -6.2419      2.00000
      8      -6.2419      2.00000
      9      -6.2055      2.00000
     10      -6.2055      2.00000
     11      -6.1975      2.00000
     12      -6.1975      2.00000
     13      -6.1611      2.00000
     14      -6.1611      2.00000
     15      -6.1139      2.00000
     16      -6.1139      2.00000
     17      -6.0885      2.00000
     18      -6.0885      2.00000
     19      -6.0776      2.00000
     20      -6.0776      2.00000
     21      -6.0575      2.00000
     22      -6.0575      2.00000
     23      -5.6059      2.00000
     24      -5.6059      2.00000
     25      -2.1052      2.00000
     26      -2.1052      2.00000
     27      -0.7681      2.00000
     28      -0.7681      2.00000
     29      -0.2971      2.00000
     30      -0.2971      2.00000
     31      -0.1560      2.00000
     32      -0.1560      2.00000
     33       0.8240      2.00000
     34       0.8240      2.00000
     35       0.8240      2.00000
     36       0.8240      2.00000
     37       4.5934      0.00000
     38       4.5934      0.00000
     39       5.1678      0.00000
     40       5.1678      0.00000
     41       5.8034      0.00000
     42       5.8034      0.00000
     43       6.4776      0.00000
     44       6.4776      0.00000
     45       7.2601      0.00000
     46       7.2601      0.00000
     47       8.1004      0.00000
     48       8.1004      0.00000

 k-point     4 :       0.2500    0.2500    0.0000
  band No.  band energies     occupation 
      1      -8.9199      2.00000
      2      -8.6548      2.00000
      3      -8.6548      2.00000
      4      -8.6121      2.00000
      5      -6.2861      2.00000
      6      -6.2755      2.00000
      7      -6.2102      2.00000
      8      -6.2098      2.00000
      9      -6.2098      2.00000
     10      -6.2052      2.00000
     11      -6.2052      2.00000
     12      -6.1948      2.00000
     13      -6.1921      2.00000
     14      -6.1363      2.00000
     15      -6.1363      2.00000
     16      -6.1264      2.00000
     17      -6.0958      2.00000
     18      -6.0853      2.00000
     19      -6.0785      2.00000
     20      -6.0740      2.00000
     21      -6.0740      2.00000
     22      -5.7687      2.00000
     23      -5.7687      2.00000
     24      -5.6351      2.00000
     25      -2.1251      2.00000
     26      -1.8709      2.00000
     27      -1.8709      2.00000
     28      -0.4939      2.00000
     29      -0.1721      2.00000
     30       0.0066      2.00000
     31       0.0066      2.00000
     32       0.3396      2.00000
     33       0.3396      2.00000
     34       0.4124      2.00000
     35       1.1025      2.00000
     36       1.6142      2.00000
     37       3.8808      0.00000
     38       4.6968      0.00000
     39       5.0265      0.00000
     40       5.0265      0.00000
     41       5.3864      0.00000
     42       5.3864      0.00000
     43       6.2107      0.00000
     44       6.2614      0.00000
     45       6.7213      0.00000
     46       7.1745      0.00000
     47       7.7955      0.00000
     48       7.7955      0.00000

 k-point     5 :       0.5000    0.2500    0.0000
  band No.  band energies     occupation 
      1      -8.7848      2.00000
      2      -8.7848      2.00000
      3      -8.6335      2.00000
      4      -8.6335      2.00000
      5      -6.2526      2.00000
      6      -6.2526      2.00000
      7      -6.2429      2.00000
      8      -6.2429      2.00000
      9      -6.2201      2.00000
     10      -6.2201      2.00000
     11      -6.2093      2.00000
     12      -6.2093      2.00000
     13      -6.1243      2.00000
     14      -6.1243      2.00000
     15      -6.1092      2.00000
     16      -6.1092      2.00000
     17      -6.0878      2.00000
     18      -6.0878      2.00000
     19      -6.0819      2.00000
     20      -6.0819      2.00000
     21      -6.0037      2.00000
     22      -6.0037      2.00000
     23      -5.6751      2.00000
     24      -5.6751      2.00000
     25      -2.0180      2.00000
     26      -2.0180      2.00000
     27      -1.1331      2.00000
     28      -1.1331      2.00000
     29      -0.4435      2.00000
     30      -0.4435      2.00000
     31       0.4525      2.00000
     32       0.4525      2.00000
     33       0.4649      2.00000
     34       0.4649      2.00000
     35       1.0583      2.00000
     36       1.0583      2.00000
     37       4.6987      0.00000
     38       4.6987      0.00000
     39       5.2783      0.00000
     40       5.2783      0.00000
     41       5.8108      0.00000
     42       5.8108      0.00000
     43       6.7245      0.00000
     44       6.7245      0.00000
     45       7.1473      0.00000
     46       7.1473      0.00000
     47       7.2928      0.00000
     48       7.2928      0.00000

 k-point     6 :       0.5000    0.5000    0.0000
  band No.  band energies     occupation 
      1      -8.7076      2.00000
      2      -8.7076      2.00000
      3      -8.7076      2.00000
      4      -8.7076      2.00000
      5      -6.2399      2.00000
      6      -6.2399      2.00000
      7      -6.2399      2.00000
      8      -6.2399      2.00000
      9      -6.2374      2.00000
     10      -6.2374      2.00000
     11      -6.2374      2.00000
     12      -6.2374      2.00000
     13      -6.0962      2.00000
     14      -6.0962      2.00000
     15      -6.0962      2.00000
     16      -6.0962      2.00000
     17      -6.0947      2.00000
     18      -6.0947      2.00000
     19      -6.0947      2.00000
     20      -6.0947      2.00000
     21      -5.8435      2.00000
     22      -5.8435      2.00000
     23      -5.8435      2.00000
     24      -5.8435      2.00000
     25      -1.6859      2.00000
     26      -1.6859      2.00000
     27      -1.6859      2.00000
     28      -1.6859      2.00000
     29      -0.1297      2.00000
     30      -0.1297      2.00000
     31      -0.1297      2.00000
     32      -0.1297      2.00000
     33       1.0693      2.00000
     34       1.0693      2.00000
     35       1.0693      2.00000
     36       1.0693      2.00000
     37       4.7789      0.00000
     38       4.7789      0.00000
     39       4.7789      0.00000
     40       4.7789      0.00000
     41       6.9719      0.00000
     42       6.9719      0.00000
     43       6.9719      0.00000
     44       6.9719      0.00000
     45       7.3346      0.00000
     46       7.3346      0.00000
     47       7.3346      0.00000
     48       7.3346      0.00000

 k-point     7 :       0.2500    0.2500    0.2500
  band No.  band energies     occupation 
      1      -8.8727      2.00000
      2      -8.6546      2.00000
      3      -8.6546      2.00000
      4      -8.6546      2.00000
      5      -6.2759      2.00000
      6      -6.2759      2.00000
      7      -6.2247      2.00000
      8      -6.2247      2.00000
      9      -6.2247      2.00000
     10      -6.2108      2.00000
     11      -6.2108      2.00000
     12      -6.2108      2.00000
     13      -6.1261      2.00000
     14      -6.1215      2.00000
     15      -6.1215      2.00000
     16      -6.1215      2.00000
     17      -6.0904      2.00000
     18      -6.0904      2.00000
     19      -6.0768      2.00000
     20      -6.0768      2.00000
     21      -6.0768      2.00000
     22      -5.7378      2.00000
     23      -5.7378      2.00000
     24      -5.7378      2.00000
     25      -2.0064      2.00000
     26      -2.0064      2.00000
     27      -2.0064      2.00000
     28      -0.7808      2.00000
     29      -0.0754      2.00000
     30      -0.0754      2.00000
     31      -0.0754      2.00000
     32       0.5623      2.00000
     33       0.5623      2.00000
     34       0.5623      2.00000
     35       1.4041      2.00000
     36       1.4041      2.00000
     37       3.6536      0.00000
     38       4.7107      0.00000
     39       4.7107      0.00000
     40       4.7107      0.00000
     41       6.2134      0.00000
     42       6.2134      0.00000
     43       6.2134      0.00000
     44       6.9290      0.00000
     45       6.9290      0.00000
     46       7.0263      0.00000
     47       7.9072      0.00000
     48       7.9072      0.00000

 k-point     8 :       0.5000    0.2500    0.2500
  band No.  band energies     occupation 
      1      -8.7613      2.00000
      2      -8.7613      2.00000
      3      -8.6543      2.00000
      4      -8.6543      2.00000
      5      -6.2559      2.00000
      6      -6.2559      2.00000
      7      -6.2473      2.00000
      8      -6.2473      2.00000
      9      -6.2319      2.00000
     10      -6.2319      2.00000
     11      -6.2222      2.00000
     12      -6.2222      2.00000
     13      -6.1071      2.00000
     14      -6.1071      2.00000
     15      -6.1021      2.00000
     16      -6.1021      2.00000
     17      -6.0852      2.00000
     18      -6.0852      2.00000
     19      -6.0804      2.00000
     20      -6.0804      2.00000
     21      -5.9494      2.00000
     22      -5.9494      2.00000
     23      -5.7073      2.00000
     24      -5.7073      2.00000
     25      -2.1332      2.00000
     26      -2.1332      2.00000
     27      -1.5513      2.00000
     28      -1.5513      2.00000
     29      -0.0714      2.00000
     30      -0.0714      2.00000
     31       0.6630      2.00000
     32       0.6630      2.00000
     33       0.8337      2.00000
     34       0.8337      2.00000
     35       0.9544      2.00000
     36       0.9544      2.00000
     37       4.2328      0.00000
     38       4.2328      0.00000
     39       4.8669      0.00000
     40       4.8669      0.00000
     41       6.4162      0.00000
     42       6.4162      0.00000
     43       6.4400      0.00000
     44       6.4400      0.00000
     45       7.5286      0.00000
     46       7.5286      0.00000
     47       7.6299      0.00000
     48       7.6299      0.00000

 k-point     9 :       0.5000    0.5000    0.2500
  band No.  band energies     occupation 
      1      -8.7065      2.00000
      2      -8.7065      2.00000
      3      -8.7065      2.00000
      4      -8.7065      2.00000
      5      -6.2468      2.00000
      6      -6.2468      2.00000
      7      -6.2468      2.00000
      8      -6.2468      2.00000
      9      -6.2459      2.00000
     10      -6.2459      2.00000
     11      -6.2459      2.00000
     12      -6.2459      2.00000
     13      -6.0892      2.00000
     14      -6.0892      2.00000
     15      -6.0892      2.00000
     16      -6.0892      2.00000
     17      -6.0880      2.00000
     18      -6.0880      2.00000
     19      -6.0880      2.00000
     20      -6.0880      2.00000
     21      -5.8162      2.00000
     22      -5.8162      2.00000
     23      -5.8162      2.00000
     24      -5.8162      2.00000
     25      -2.0393      2.00000
     26      -2.0393      2.00000
     27      -2.0393      2.00000
     28      -2.0393      2.00000
     29       0.4788      2.00000
     30       0.4788      2.00000
     31       0.4788      2.00000
     32       0.4788      2.00000
     33       1.0826      2.00000
     34       1.0826      2.00000
     35       1.0826      2.00000
     36       1.0826      2.00000
     37       4.1796      0.00000
     38       4.1796      0.00000
     39       4.1796      0.00000
     40       4.1796      0.00000
     41       6.7753      0.00000
     42       6.7753      0.00000
     43       6.7753      0.00000
     44       6.7753      0.00000
     45       7.2363      0.00000
     46       7.2363      0.00000
     47       7.2363      0.00000
     48       7.2363      0.00000

 k-point    10 :       0.5000    0.5000    0.5000
  band No.  band energies     occupation 
      1      -8.7054      2.00000
      2      -8.7054      2.00000
      3      -8.7054      2.00000
      4      -8.7054      2.00000
      5      -6.2531      2.00000
      6      -6.2531      2.00000
      7      -6.2531      2.00000
      8      -6.2531      2.00000
      9      -6.2531      2.00000
     10      -6.2531      2.00000
     11      -6.2531      2.00000
     12      -6.2531      2.00000
     13      -6.0828      2.00000
     14      -6.0828      2.00000
     15      -6.0828      2.00000
     16      -6.0828      2.00000
     17      -6.0828      2.00000
     18      -6.0828      2.00000
     19      -6.0828      2.00000
     20      -6.0828      2.00000
     21      -5.7876      2.00000
     22      -5.7876      2.00000
     23      -5.7876      2.00000
     24      -5.7876      2.00000
     25      -2.2894      2.00000
     26      -2.2894      2.00000
     27      -2.2894      2.00000
     28      -2.2894      2.00000
     29       1.0961      2.00000
     30       1.0961      2.00000
     31       1.0961      2.00000
     32       1.0961      2.00000
     33       1.0961      2.00000
     34       1.0961      2.00000
     35       1.0961      2.00000
     36       1.0961      2.00000
     37       3.5308      0.00000
     38       3.5308      0.00000
     39       3.5308      0.00000
     40       3.5308      0.00000
     41       6.9864      0.00000
     42       6.9864      0.00000
     43       6.9864      0.00000
     44       6.9864      0.00000
     45       6.9864      0.00000
     46       6.9864      0.00000
     47       6.9864      0.00000
     48       6.9864      0.00000


--------------------------------------------------------------------------------------------------------


 soft charge-density along one line, spin component           1
         0         1         2         3         4         5         6         7         8         9
 total charge-density along one line
 
 pseudopotential strength for first ion, spin component:           1
-18.104  -0.000  -0.000  -0.000  -0.000 -18.139  -0.000  -0.000
 -0.000 -18.104  -0.000   0.000   0.000  -0.000 -18.139  -0.000
 -0.000  -0.000 -18.106  -0.000   0.000  -0.000  -0.000 -18.141
 -0.000   0.000  -0.000 -18.104  -0.000  -0.000   0.000  -0.000
 -0.000   0.000   0.000  -0.000 -18.106  -0.000   0.000   0.000
-18.139  -0.000  -0.000  -0.000  -0.000 -18.154  -0.000  -0.000
 -0.000 -18.139  -0.000   0.000   0.000  -0.000 -18.154  -0.000
 -0.000  -0.000 -18.141  -0.000   0.000  -0.000  -0.000 -18.155
 -0.000   0.000  -0.000 -18.139  -0.000  -0.000   0.000  -0.000
 -0.000   0.000   0.000  -0.000 -18.141  -0.000   0.000   0.000
 -0.000   0.000  -0.000   0.000   0.000  -0.000   0.000  -0.000
 -0.000   0.000  -0.000   0.000   0.000  -0.000   0.000  -0.000
 -0.000   0.000  -0.000  -0.003  -0.000  -0.000   0.000  -0.000
 -0.003   0.000   0.000  -0.000   0.000  -0.003   0.000   0.000
  0.000  -0.003   0.000   0.000  -0.000   0.000  -0.003   0.000
 -0.000   0.000  -0.000  -0.003  -0.000  -0.000   0.000  -0.000
 -0.003   0.000   0.000  -0.000   0.000  -0.003   0.000   0.000
  0.000  -0.003   0.000   0.000  -0.000   0.000  -0.003   0.000
 total augmentation occupancy for first ion, spin component:           1
  3.939   0.000   0.000  -0.000  -0.000  -1.814  -0.000  -0.000   0.000   0.000  -0.000   0.000   0.000  -0.468   0.000   0.000
  0.000   3.939  -0.000  -0.000  -0.000  -0.000  -1.814   0.000   0.000  -0.000   0.000   0.000  -0.000  -0.000  -0.468   0.000
  0.000  -0.000   2.581  -0.000  -0.000  -0.000  -0.000  -0.513  -0.000   0.000  -0.000   0.000  -0.000  -0.000   0.000  -0.000
  0.000   0.000  -0.000   3.939  -0.000   0.000   0.000   0.000  -1.814   0.000   0.000   0.000  -0.468  -0.000   0.000   0.066
  0.000   0.000   0.000  -0.000   2.581   0.000  -0.000   0.000   0.000  -0.513   0.000   0.000  -0.000  -0.000   0.000   0.000
 -1.814  -0.000  -0.000   0.000  -0.000   1.686   0.000   0.000   0.000   0.000   0.000   0.000   0.000   0.447  -0.000  -0.000
  0.000  -1.814  -0.000   0.000  -0.000   0.000   1.686  -0.000   0.000  -0.000  -0.000   0.000   0.000  -0.000   0.447   0.000
 -0.000  -0.000  -0.513   0.000   0.000   0.000  -0.000   0.440  -0.000   0.000   0.000  -0.000  -0.000  -0.000   0.000  -0.000
  0.000  -0.000   0.000  -1.814   0.000   0.000  -0.000  -0.000   1.686   0.000   0.000   0.000   0.447   0.000   0.000  -0.077
 -0.000   0.000  -0.000  -0.000  -0.513   0.000   0.000  -0.000   0.000   0.440   0.000   0.000  -0.000   0.000   0.000  -0.000
 -0.000   0.000   0.000  -0.000   0.000   0.000  -0.000   0.000   0.000   0.000   2.762  -0.683   0.000   0.000   0.000  -0.000
  0.000   0.000   0.000   0.000   0.000  -0.000   0.000   0.000   0.000  -0.000  -0.683   0.202   0.000   0.000  -0.000   0.000
  0.000   0.000   0.000  -0.468   0.000   0.000  -0.000  -0.000   0.447  -0.000   0.000  -0.000   0.186   0.000  -0.000  -0.032
 -0.468  -0.000   0.000  -0.000  -0.000   0.447  -0.000  -0.000   0.000   0.000   0.000  -0.000  -0.000   0.186  -0.000   0.000
  0.000  -0.468   0.000   0.000  -0.000   0.000   0.447  -0.000  -0.000   0.000  -0.000  -0.000  -0.000   0.000   0.186   0.000
 -0.000  -0.000   0.000   0.066   0.000  -0.000  -0.000   0.000  -0.077   0.000  -0.000  -0.000  -0.032   0.000   0.000   0.007
  0.066   0.000  -0.000   0.000   0.000  -0.077   0.000   0.000  -0.000  -0.000   0.000  -0.000   0.000  -0.032   0.000  -0.000
 -0.000   0.066   0.000   0.000   0.000  -0.000  -0.077   0.000  -0.000  -0.000   0.000  -0.000   0.000  -0.000  -0.032  -0.000


------------------------ aborting loop because EDIFF is reached ----------------------------------------


 


 total charge     
 
# of ion     s       p       d       tot
----------------------------------------
  1        0.462   0.282   9.533  10.276
  2        0.462   0.282   9.533  10.276
  3        0.462   0.282   9.533  10.276
  4        0.462   0.282   9.533  10.276
  5        1.353   2.031   0.017   3.402
  6        1.353   2.031   0.017   3.402
  7        1.353   2.031   0.017   3.402
  8        1.353   2.031   0.017   3.402
------------------------------------------------
tot        7.260   9.252  38.201  54.712
 
    CHARGE:  cpu time    0.06: real time    0.12
    FORLOC:  cpu time    0.00: real time    0.00
    FORNL :  cpu time    0.35: real time    0.72
    STRESS:  cpu time    0.90: real time    1.84
    FORCOR:  cpu time    0.03: real time    0.06
    FORHAR:  cpu time    0.01: real time    0.02
    MIXING:  cpu time    0.00: real time    0.00
    OFIELD:  cpu time    0.00: real time    0.00

  FORCE on cell =-STRESS in cart. coord.  units (eV):
  Direction    XX          YY          ZZ          XY          YZ          ZX
  --------------------------------------------------------------------------------------
  Alpha Z   188.19369   188.19369   188.19369
  Ewald   -1363.57655 -1363.57655 -1363.57655     0.00000    -0.00000     0.00000
  Hartree   688.03783   688.03783   688.03783    -0.00000    -0.00000    -0.00000
  E(xc)    -348.65068  -348.65068  -348.65068     0.00000    -0.00000    -0.00000
  Local    -101.62134  -101.62134  -101.62134     0.00000    -0.00000    -0.00000
  n-local   101.76121   106.08997   102.84105    -2.21988    -1.90666    -0.78836
  augment    25.15764    25.15764    25.15764     0.00000    -0.00000     0.00000
  Kinetic   805.41473   811.29772   810.14292    -2.03435    -2.11941    -0.83714
  Fock        0.00000     0.00000     0.00000     0.00000     0.00000     0.00000
  -------------------------------------------------------------------------------------
  Total       0.05646     0.05646     0.05646    -0.00000     0.00000    -0.00000
  in kB       0.31136     0.31136     0.31136    -0.00000     0.00000    -0.00000
  external pressure =        0.31 kB  Pullay stress =        0.00 kB


 VOLUME and BASIS-vectors are now :
 -----------------------------------------------------------------------------
  energy-cutoff  :      500.00
  volume of cell :      290.53
      direct lattice vectors                 reciprocal lattice vectors
     6.623110574  0.000000000  0.000000000     0.150986457  0.000000000  0.000000000
     0.000000000  6.623110574  0.000000000     0.000000000  0.150986457  0.000000000
     0.000000000  0.000000000  6.623110574     0.000000000  0.000000000  0.150986457

  length of vectors
     6.623110574  6.623110574  6.623110574     0.150986457  0.150986457  0.150986457


 FORCES acting on ions
    electron-ion (+dipol)            ewald-force                    non-local-force                 convergence-correction
 -----------------------------------------------------------------------------------------------
   0.536E-13 0.727E-13 -.116E-12   -.568E-13 -.213E-13 -.711E-14   0.564E-17 -.358E-17 0.997E-17   -.143E-13 0.373E-13 -.141E-12
   0.483E-13 0.647E-12 0.486E-12   -.568E-13 -.213E-13 0.711E-14   0.694E-17 -.466E-17 0.434E-17   0.382E-14 0.656E-13 -.104E-12
   0.625E-12 0.818E-13 0.641E-11   -.568E-13 -.213E-13 0.711E-14   0.607E-17 -.228E-17 0.173E-17   0.495E-13 0.348E-13 -.931E-13
   0.614E-12 0.355E-11 0.203E-11   -.568E-13 -.213E-13 -.711E-14   -.152E-16 -.314E-17 -.390E-17   0.497E-13 0.660E-13 -.139E-12
   -.794E-13 0.234E-12 -.513E-13   0.633E-13 0.206E-13 -.631E-15   0.434E-17 0.282E-16 0.173E-16   0.141E-13 0.737E-14 -.239E-13
   -.102E-12 0.199E-12 -.140E-12   0.506E-13 0.220E-13 -.640E-15   0.113E-16 -.247E-16 0.121E-16   0.350E-13 0.162E-13 -.256E-13
   -.111E-12 0.556E-12 -.636E-12   0.500E-13 0.209E-13 0.548E-15   -.434E-17 -.239E-16 -.434E-17   0.351E-13 0.716E-14 -.374E-13
   -.633E-13 0.359E-13 -.755E-13   0.636E-13 0.222E-13 0.540E-15   -.954E-17 0.130E-17 -.260E-17   0.138E-13 0.175E-13 -.356E-13
 -----------------------------------------------------------------------------------------------
   0.986E-12 0.538E-11 0.790E-11   0.147E-15 0.428E-15 -.183E-15   0.520E-17 -.327E-16 0.347E-16   0.187E-12 0.252E-12 -.599E-12
 
 
 POSITION                                       TOTAL-FORCE (eV/Angst)
 -----------------------------------------------------------------------------------
      0.00000      0.00000      0.00000        -0.000000     -0.000000     -0.000000
      0.00000      3.31156      3.31156         0.000000      0.000000      0.000000
      3.31156      0.00000      3.31156         0.000000     -0.000000     -0.000000
      3.31156      3.31156      0.00000        -0.000000      0.000000      0.000000
      1.65578      1.65578      1.65578         0.000000     -0.000000     -0.000000
      4.96733      4.96733      1.65578         0.000000     -0.000000     -0.000000
      4.96733      1.65578      4.96733         0.000000     -0.000000     -0.000000
      1.65578      4.96733      4.96733         0.000000     -0.000000     -0.000000
 -----------------------------------------------------------------------------------
    total drift:                                0.000000      0.000000      0.000000


--------------------------------------------------------------------------------------------------------



  FREE ENERGIE OF THE ION-ELECTRON SYSTEM (eV)
  ---------------------------------------------------
  free  energy   TOTEN  =       -19.24382623 eV

  energy  without entropy=      -19.24382623  energy(sigma->0) =      -19.24382623
 


--------------------------------------------------------------------------------------------------------


    POTLOK:  cpu time    0.03: real time    0.06


--------------------------------------------------------------------------------------------------------




--------------------------------------------------------------------------------------------------------


    WAVPRE:  cpu time    0.01: real time    0.01
 FEWALD executed in parallel
    FEWALD:  cpu time    0.00: real time    0.00
    GENKIN:  cpu time    0.01: real time    0.01
    ORTHCH:  cpu time    0.08: real time    0.12
     LOOP+:  cpu time    5.47: real time   11.01


----------------------------------------- Iteration    2(   1)  ---------------------------------------


    POTLOK:  cpu time    0.03: real time    0.07
    SETDIJ:  cpu time    0.00: real time    0.01
     EDDAV:  cpu time    1.14: real time    2.40
       DOS:  cpu time    0.00: real time    0.00
    CHARGE:  cpu time    0.06: real time    0.11
    MIXING:  cpu time    0.00: real time    0.00
    --------------------------------------------
      LOOP:  cpu time    1.23: real time    2.59

 eigenvalue-minimisations  :  1032
 total energy-change (2. order) :-0.7186318E-03  (-0.1485135E-02)
 number of electron      71.9999870 magnetization 
 augmentation part       18.3572948 magnetization 

 Broyden mixing:
  rms(total) = 0.19988E-01    rms(broyden)= 0.19987E-01
  rms(prec ) = 0.26463E-01
  weight for this iteration     100.00

 Free energy of the ion-electron system (eV)
  ---------------------------------------------------
  alpha Z        PSCENC =       188.00160341
  Ewald energy   TEWEN  =     -4089.33128238
  -Hartree energ DENC   =     -2063.41353916
  -exchange      EXHF   =         0.00000000
  -V(xc)+E(xc)   XCENC  =       -91.22105904
  PAW double counting   =      6760.91556059    -6469.26755717
  entropy T*S    EENTRO =        -0.00000000
  eigenvalues    EBANDS =      -320.71473407
  atomic energy  EATOM  =      6065.78646317
  ---------------------------------------------------
  free energy    TOTEN  =       -19.24454464 eV

  energy without entropy =      -19.24454464  energy(sigma->0) =      -19.24454464


--------------------------------------------------------------------------------------------------------




----------------------------------------- Iteration    2(   2)  ---------------------------------------


    POTLOK:  cpu time    0.03: real time    0.06
    SETDIJ:  cpu time    0.00: real time    0.01
     EDDAV:  cpu time    1.13: real time    2.35
       DOS:  cpu time    0.00: real time    0.01
    CHARGE:  cpu time    0.06: real time    0.11
    MIXING:  cpu time    0.00: real time    0.00
    --------------------------------------------
      LOOP:  cpu time    1.23: real time    2.54

 eigenvalue-minimisations  :  1016
 total energy-change (2. order) : 0.6052735E-03  (-0.1728817E-03)
 number of electron      71.9999870 magnetization 
 augmentation part       18.3484112 magnetization 

 Broyden mixing:
  rms(total) = 0.63002E-02    rms(broyden)= 0.63002E-02
  rms(prec ) = 0.83952E-02
  weight for this iteration     100.00

 eigenvalues of (default mixing * dielectric matrix)
  average eigenvalue GAMMA=   0.9236
  0.9236

 Free energy of the ion-electron system (eV)
  ---------------------------------------------------
  alpha Z        PSCENC =       188.00160341
  Ewald energy   TEWEN  =     -4089.33128238
  -Hartree energ DENC   =     -2064.43816094
  -exchange      EXHF   =         0.00000000
  -V(xc)+E(xc)   XCENC  =       -91.18807348
  PAW double counting   =      6758.48770025    -6466.86311029
  entropy T*S    EENTRO =        -0.00000000
  eigenvalues    EBANDS =      -319.69907911
  atomic energy  EATOM  =      6065.78646317
  ---------------------------------------------------
  free energy    TOTEN  =       -19.24393937 eV

  energy without entropy =      -19.24393937  energy(sigma->0) =      -19.24393937


--------------------------------------------------------------------------------------------------------




----------------------------------------- Iteration    2(   3)  ---------------------------------------


    POTLOK:  cpu time    0.03: real time    0.06
    SETDIJ:  cpu time    0.00: real time    0.01
     EDDAV:  cpu time    1.12: real time    2.30
       DOS:  cpu time    0.00: real time    0.01
    CHARGE:  cpu time    0.06: real time    0.10
    MIXING:  cpu time    0.00: real time    0.00
    --------------------------------------------
      LOOP:  cpu time    1.21: real time    2.49

 eigenvalue-minimisations  :   992
 total energy-change (2. order) : 0.6601715E-04  (-0.1595095E-04)
 number of electron      71.9999870 magnetization 
 augmentation part       18.3462173 magnetization 

 Broyden mixing:
  rms(total) = 0.54781E-02    rms(broyden)= 0.54781E-02
  rms(prec ) = 0.57778E-02
  weight for this iteration     100.00

 eigenvalues of (default mixing * dielectric matrix)
  average eigenvalue GAMMA=   1.4652
  1.4652  1.4652

 Free energy of the ion-electron system (eV)
  ---------------------------------------------------
  alpha Z        PSCENC =       188.00160341
  Ewald energy   TEWEN  =     -4089.33128238
  -Hartree energ DENC   =     -2064.74291340
  -exchange      EXHF   =         0.00000000
  -V(xc)+E(xc)   XCENC  =       -91.17869252
  PAW double counting   =      6757.68411912    -6466.04346271
  entropy T*S    EENTRO =        -0.00000000
  eigenvalues    EBANDS =      -319.41970803
  atomic energy  EATOM  =      6065.78646317
  ---------------------------------------------------
  free energy    TOTEN  =       -19.24387335 eV

  energy without entropy =      -19.24387335  energy(sigma->0) =      -19.24387335


--------------------------------------------------------------------------------------------------------




----------------------------------------- Iteration    2(   4)  ---------------------------------------


    POTLOK:  cpu time    0.03: real time    0.06
    SETDIJ:  cpu time    0.00: real time    0.00
     EDDAV:  cpu time    1.12: real time    2.32
       DOS:  cpu time    0.00: real time    0.00
    CHARGE:  cpu time    0.06: real time    0.11
    MIXING:  cpu time    0.00: real time    0.01
    --------------------------------------------
      LOOP:  cpu time    1.21: real time    2.51

 eigenvalue-minimisations  :   992
 total energy-change (2. order) : 0.2014577E-04  (-0.2096969E-05)
 number of electron      71.9999870 magnetization 
 augmentation part       18.3465224 magnetization 

 Broyden mixing:
  rms(total) = 0.95563E-03    rms(broyden)= 0.95563E-03
  rms(prec ) = 0.12298E-02
  weight for this iteration     100.00

 eigenvalues of (default mixing * dielectric matrix)
  average eigenvalue GAMMA=   1.4869
  2.1720  1.0527  1.2359

 Free energy of the ion-electron system (eV)
  ---------------------------------------------------
  alpha Z        PSCENC =       188.00160341
  Ewald energy   TEWEN  =     -4089.33128238
  -Hartree energ DENC   =     -2064.82466071
  -exchange      EXHF   =         0.00000000
  -V(xc)+E(xc)   XCENC  =       -91.17744781
  PAW double counting   =      6758.01643562    -6466.34983329
  entropy T*S    EENTRO =        -0.00000000
  eigenvalues    EBANDS =      -319.36513121
  atomic energy  EATOM  =      6065.78646317
  ---------------------------------------------------
  free energy    TOTEN  =       -19.24385321 eV

  energy without entropy =      -19.24385321  energy(sigma->0) =      -19.24385321


--------------------------------------------------------------------------------------------------------




----------------------------------------- Iteration    2(   5)  ---------------------------------------


    POTLOK:  cpu time    0.03: real time    0.06
    SETDIJ:  cpu time    0.00: real time    0.01
     EDDAV:  cpu time    1.08: real time    2.22
       DOS:  cpu time    0.00: real time    0.00
    CHARGE:  cpu time    0.06: real time    0.11
    MIXING:  cpu time    0.00: real time    0.00
    --------------------------------------------
      LOOP:  cpu time    1.17: real time    2.40

 eigenvalue-minimisations  :   944
 total energy-change (2. order) : 0.3000903E-05  (-0.4999851E-06)
 number of electron      71.9999870 magnetization 
 augmentation part       18.3461735 magnetization 

 Broyden mixing:
  rms(total) = 0.64661E-03    rms(broyden)= 0.64660E-03
  rms(prec ) = 0.69103E-03
  weight for this iteration     100.00

 eigenvalues of (default mixing * dielectric matrix)
  average eigenvalue GAMMA=   1.4592
  1.9978  1.7012  1.0690  1.0690

 Free energy of the ion-electron system (eV)
  ---------------------------------------------------
  alpha Z        PSCENC =       188.00160341
  Ewald energy   TEWEN  =     -4089.33128238
  -Hartree energ DENC   =     -2064.89041550
  -exchange      EXHF   =         0.00000000
  -V(xc)+E(xc)   XCENC  =       -91.17603815
  PAW double counting   =      6757.85219598    -6466.18366232
  entropy T*S    EENTRO =        -0.00000000
  eigenvalues    EBANDS =      -319.30271442
  atomic energy  EATOM  =      6065.78646317
  ---------------------------------------------------
  free energy    TOTEN  =       -19.24385021 eV

  energy without entropy =      -19.24385021  energy(sigma->0) =      -19.24385021


--------------------------------------------------------------------------------------------------------




----------------------------------------- Iteration    2(   6)  ---------------------------------------


    POTLOK:  cpu time    0.03: real time    0.06
    SETDIJ:  cpu time    0.00: real time    0.01
     EDDAV:  cpu time    0.74: real time    1.53
       DOS:  cpu time    0.00: real time    0.00
    --------------------------------------------
      LOOP:  cpu time    0.81: real time    1.67

 eigenvalue-minimisations  :   520
 total energy-change (2. order) : 0.4891144E-06  (-0.6398093E-07)
 number of electron      71.9999870 magnetization 
 augmentation part       18.3461735 magnetization 

 Free energy of the ion-electron system (eV)
  ---------------------------------------------------
  alpha Z        PSCENC =       188.00160341
  Ewald energy   TEWEN  =     -4089.33128238
  -Hartree energ DENC   =     -2064.88539468
  -exchange      EXHF   =         0.00000000
  -V(xc)+E(xc)   XCENC  =       -91.17637785
  PAW double counting   =      6757.90185708    -6466.23350601
  entropy T*S    EENTRO =        -0.00000000
  eigenvalues    EBANDS =      -319.30721246
  atomic energy  EATOM  =      6065.78646317
  ---------------------------------------------------
  free energy    TOTEN  =       -19.24384972 eV

  energy without entropy =      -19.24384972  energy(sigma->0) =      -19.24384972


--------------------------------------------------------------------------------------------------------




 the core state eigenenergies are
   1-  1s -26514.0320  2s  -3931.1956  2p  -3526.4511  3s   -728.0646  3p   -595.3539
       3d   -387.8048  4s   -100.2409  4p    -61.2980
   2-  1s -26514.0320  2s  -3931.1956  2p  -3526.4511  3s   -728.0646  3p   -595.3539
       3d   -387.8048  4s   -100.2409  4p    -61.2980
   3-  1s -26514.0320  2s  -3931.1956  2p  -3526.4511  3s   -728.0646  3p   -595.3539
       3d   -387.8048  4s   -100.2409  4p    -61.2980
   4-  1s -26514.0320  2s  -3931.1956  2p  -3526.4511  3s   -728.0646  3p   -595.3539
       3d   -387.8048  4s   -100.2409  4p    -61.2980
   5-  1s -31613.4511  2s  -4841.0230  2p  -4344.4201  3s   -957.2245  3p   -795.8825
       3d   -552.1343  4s   -156.7042  4p   -106.7397  4d    -34.0514
   6-  1s -31613.4511  2s  -4841.0230  2p  -4344.4201  3s   -957.2245  3p   -795.8825
       3d   -552.1343  4s   -156.7042  4p   -106.7397  4d    -34.0514
   7-  1s -31613.4511  2s  -4841.0230  2p  -4344.4201  3s   -957.2245  3p   -795.8825
       3d   -552.1343  4s   -156.7042  4p   -106.7397  4d    -34.0514
   8-  1s -31613.4511  2s  -4841.0230  2p  -4344.4201  3s   -957.2245  3p   -795.8825
       3d   -552.1343  4s   -156.7042  4p   -106.7397  4d    -34.0514
 
 E-fermi :   1.8317     XC(G=0):  -8.2946     alpha+bet : -6.9534


 k-point     1 :       0.0000    0.0000    0.0000
  band No.  band energies     occupation 
      1      -9.0466      2.00000
      2      -8.6070      2.00000
      3      -8.6070      2.00000
      4      -8.6070      2.00000
      5      -6.3114      2.00000
      6      -6.3114      2.00000
      7      -6.3114      2.00000
      8      -6.1785      2.00000
      9      -6.1785      2.00000
     10      -6.1785      2.00000
     11      -6.1785      2.00000
     12      -6.1785      2.00000
     13      -6.1785      2.00000
     14      -6.1759      2.00000
     15      -6.1759      2.00000
     16      -6.1759      2.00000
     17      -6.0971      2.00000
     18      -6.0971      2.00000
     19      -6.0717      2.00000
     20      -6.0717      2.00000
     21      -6.0717      2.00000
     22      -5.6769      2.00000
     23      -5.6769      2.00000
     24      -5.6769      2.00000
     25      -2.2274      2.00000
     26      -2.2274      2.00000
     27      -2.2274      2.00000
     28       0.1214      2.00000
     29       0.1214      2.00000
     30       0.1214      2.00000
     31       0.1214      2.00000
     32       0.1214      2.00000
     33       0.1214      2.00000
     34       1.7710      2.00000
     35       1.7710      2.00000
     36       1.7710      2.00000
     37       2.3435      0.00000
     38       4.4388      0.00000
     39       4.4388      0.00000
     40       4.4388      0.00000
     41       4.5176      0.00000
     42       4.5176      0.00000
     43       4.5176      0.00000
     44       6.4106      0.00000
     45       6.4106      0.00000
     46       6.4106      0.00000
[...]
     27      -1.6908      2.00000
     28      -1.6908      2.00000
     29      -0.1347      2.00000
     30      -0.1347      2.00000
     31      -0.1347      2.00000
     32      -0.1347      2.00000
     33       1.0622      2.00000
     34       1.0622      2.00000
     35       1.0622      2.00000
     36       1.0622      2.00000
     37       4.7679      0.00000
     38       4.7679      0.00000
     39       4.7679      0.00000
     40       4.7679      0.00000
     41       6.9629      0.00000
     42       6.9629      0.00000
     43       6.9629      0.00000
     44       6.9629      0.00000
     45       7.3242      0.00000
     46       7.3242      0.00000
     47       7.3242      0.00000
     48       7.3242      0.00000

 k-point     7 :       0.2500    0.2500    0.2500
  band No.  band energies     occupation 
      1      -8.8766      2.00000
      2      -8.6590      2.00000
      3      -8.6590      2.00000
      4      -8.6590      2.00000
      5      -6.2821      2.00000
      6      -6.2821      2.00000
      7      -6.2311      2.00000
      8      -6.2311      2.00000
      9      -6.2311      2.00000
     10      -6.2172      2.00000
     11      -6.2172      2.00000
     12      -6.2172      2.00000
     13      -6.1324      2.00000
     14      -6.1282      2.00000
     15      -6.1282      2.00000
     16      -6.1282      2.00000
     17      -6.0972      2.00000
     18      -6.0972      2.00000
     19      -6.0836      2.00000
     20      -6.0836      2.00000
     21      -6.0836      2.00000
     22      -5.7454      2.00000
     23      -5.7454      2.00000
     24      -5.7454      2.00000
     25      -2.0106      2.00000
     26      -2.0106      2.00000
     27      -2.0106      2.00000
     28      -0.7869      2.00000
     29      -0.0807      2.00000
     30      -0.0807      2.00000
     31      -0.0807      2.00000
     32       0.5561      2.00000
     33       0.5561      2.00000
     34       0.5561      2.00000
     35       1.3963      2.00000
     36       1.3963      2.00000
     37       3.6431      0.00000
     38       4.7012      0.00000
     39       4.7012      0.00000
     40       4.7012      0.00000
     41       6.2037      0.00000
     42       6.2037      0.00000
     43       6.2037      0.00000
     44       6.9203      0.00000
     45       6.9203      0.00000
     46       7.0158      0.00000
     47       7.8977      0.00000
     48       7.8977      0.00000

 k-point     8 :       0.5000    0.2500    0.2500
  band No.  band energies     occupation 
      1      -8.7655      2.00000
      2      -8.7655      2.00000
      3      -8.6588      2.00000
      4      -8.6588      2.00000
      5      -6.2621      2.00000
      6      -6.2621      2.00000
      7      -6.2536      2.00000
      8      -6.2536      2.00000
      9      -6.2382      2.00000
     10      -6.2382      2.00000
     11      -6.2286      2.00000
     12      -6.2286      2.00000
     13      -6.1138      2.00000
     14      -6.1138      2.00000
     15      -6.1088      2.00000
     16      -6.1088      2.00000
     17      -6.0920      2.00000
     18      -6.0920      2.00000
     19      -6.0872      2.00000
     20      -6.0872      2.00000
     21      -5.9563      2.00000
     22      -5.9563      2.00000
     23      -5.7150      2.00000
     24      -5.7150      2.00000
     25      -2.1370      2.00000
     26      -2.1370      2.00000
     27      -1.5562      2.00000
     28      -1.5562      2.00000
     29      -0.0768      2.00000
     30      -0.0768      2.00000
     31       0.6567      2.00000
     32       0.6567      2.00000
     33       0.8268      2.00000
     34       0.8268      2.00000
     35       0.9474      2.00000
     36       0.9474      2.00000
     37       4.2221      0.00000
     38       4.2221      0.00000
     39       4.8559      0.00000
     40       4.8559      0.00000
     41       6.4076      0.00000
     42       6.4076      0.00000
     43       6.4322      0.00000
     44       6.4322      0.00000
     45       7.5193      0.00000
     46       7.5193      0.00000
     47       7.6202      0.00000
     48       7.6202      0.00000

 k-point     9 :       0.5000    0.5000    0.2500
  band No.  band energies     occupation 
      1      -8.7108      2.00000
      2      -8.7108      2.00000
      3      -8.7108      2.00000
      4      -8.7108      2.00000
      5      -6.2531      2.00000
      6      -6.2531      2.00000
      7      -6.2531      2.00000
      8      -6.2531      2.00000
      9      -6.2522      2.00000
     10      -6.2522      2.00000
     11      -6.2522      2.00000
     12      -6.2522      2.00000
     13      -6.0960      2.00000
     14      -6.0960      2.00000
     15      -6.0960      2.00000
     16      -6.0960      2.00000
     17      -6.0948      2.00000
     18      -6.0948      2.00000
     19      -6.0948      2.00000
     20      -6.0948      2.00000
     21      -5.8235      2.00000
     22      -5.8235      2.00000
     23      -5.8235      2.00000
     24      -5.8235      2.00000
     25      -2.0431      2.00000
     26      -2.0431      2.00000
     27      -2.0431      2.00000
     28      -2.0431      2.00000
     29       0.4725      2.00000
     30       0.4725      2.00000
     31       0.4725      2.00000
     32       0.4725      2.00000
     33       1.0754      2.00000
     34       1.0754      2.00000
     35       1.0754      2.00000
     36       1.0754      2.00000
     37       4.1691      0.00000
     38       4.1691      0.00000
     39       4.1691      0.00000
     40       4.1691      0.00000
     41       6.7672      0.00000
     42       6.7672      0.00000
     43       6.7672      0.00000
     44       6.7672      0.00000
     45       7.2275      0.00000
     46       7.2275      0.00000
     47       7.2275      0.00000
     48       7.2275      0.00000

 k-point    10 :       0.5000    0.5000    0.5000
  band No.  band energies     occupation 
      1      -8.7097      2.00000
      2      -8.7097      2.00000
      3      -8.7097      2.00000
      4      -8.7097      2.00000
      5      -6.2594      2.00000
      6      -6.2594      2.00000
      7      -6.2594      2.00000
      8      -6.2594      2.00000
      9      -6.2594      2.00000
     10      -6.2594      2.00000
     11      -6.2594      2.00000
     12      -6.2594      2.00000
     13      -6.0896      2.00000
     14      -6.0896      2.00000
     15      -6.0896      2.00000
     16      -6.0896      2.00000
     17      -6.0896      2.00000
     18      -6.0896      2.00000
     19      -6.0896      2.00000
     20      -6.0896      2.00000
     21      -5.7950      2.00000
     22      -5.7950      2.00000
     23      -5.7950      2.00000
     24      -5.7950      2.00000
     25      -2.2926      2.00000
     26      -2.2926      2.00000
     27      -2.2926      2.00000
     28      -2.2926      2.00000
     29       1.0889      2.00000
     30       1.0889      2.00000
     31       1.0889      2.00000
     32       1.0889      2.00000
     33       1.0889      2.00000
     34       1.0889      2.00000
     35       1.0889      2.00000
     36       1.0889      2.00000
     37       3.5211      0.00000
     38       3.5211      0.00000
     39       3.5211      0.00000
     40       3.5211      0.00000
     41       6.9780      0.00000
     42       6.9780      0.00000
     43       6.9780      0.00000
     44       6.9780      0.00000
     45       6.9780      0.00000
     46       6.9780      0.00000
     47       6.9780      0.00000
     48       6.9780      0.00000


--------------------------------------------------------------------------------------------------------


 soft charge-density along one line, spin component           1
         0         1         2         3         4         5         6         7         8         9
 total charge-density along one line
 
 pseudopotential strength for first ion, spin component:           1
-18.109  -0.000   0.000  -0.000   0.000 -18.143  -0.000   0.000
 -0.000 -18.109  -0.000  -0.000   0.000  -0.000 -18.143  -0.000
  0.000  -0.000 -18.110  -0.000   0.000   0.000  -0.000 -18.145
 -0.000  -0.000  -0.000 -18.109  -0.000  -0.000  -0.000  -0.000
  0.000   0.000   0.000  -0.000 -18.110   0.000   0.000   0.000
-18.143  -0.000   0.000  -0.000   0.000 -18.158  -0.000   0.000
 -0.000 -18.143  -0.000  -0.000   0.000  -0.000 -18.158  -0.000
  0.000  -0.000 -18.145  -0.000   0.000   0.000  -0.000 -18.159
 -0.000  -0.000  -0.000 -18.143  -0.000  -0.000  -0.000  -0.000
  0.000   0.000   0.000  -0.000 -18.145   0.000   0.000   0.000
  0.000   0.000  -0.000   0.000   0.000   0.000   0.000  -0.000
  0.000   0.000  -0.000   0.000   0.000   0.000   0.000  -0.000
 -0.000   0.000  -0.000  -0.003  -0.000  -0.000   0.000  -0.000
 -0.003   0.000   0.000  -0.000   0.000  -0.003   0.000   0.000
  0.000  -0.003   0.000   0.000  -0.000   0.000  -0.003   0.000
 -0.000   0.000  -0.000  -0.003  -0.000  -0.000   0.000  -0.000
 -0.003   0.000   0.000  -0.000   0.000  -0.003   0.000   0.000
  0.000  -0.003   0.000   0.000  -0.000   0.000  -0.003   0.000
 total augmentation occupancy for first ion, spin component:           1
  3.935  -0.000   0.000  -0.000  -0.000  -1.810   0.000   0.000   0.000   0.000  -0.000  -0.000   0.000  -0.467   0.000   0.000
 -0.000   3.935   0.000  -0.000  -0.000  -0.000  -1.810  -0.000  -0.000   0.000  -0.000  -0.000  -0.000  -0.000  -0.467   0.000
  0.000   0.000   2.580  -0.000   0.000  -0.000  -0.000  -0.512   0.000  -0.000   0.000  -0.000  -0.000   0.000  -0.000  -0.000
 -0.000  -0.000  -0.000   3.935  -0.000   0.000  -0.000   0.000  -1.810   0.000  -0.000   0.000  -0.467  -0.000   0.000   0.066
 -0.000  -0.000  -0.000  -0.000   2.580   0.000   0.000   0.000   0.000  -0.512   0.000   0.000   0.000   0.000   0.000   0.000
 -1.810  -0.000   0.000   0.000   0.000   1.682  -0.000   0.000   0.000  -0.000  -0.000   0.000  -0.000   0.446  -0.000  -0.000
  0.000  -1.810  -0.000   0.000   0.000   0.000   1.682   0.000   0.000  -0.000  -0.000  -0.000   0.000   0.000   0.446  -0.000
  0.000  -0.000  -0.512   0.000   0.000   0.000   0.000   0.438  -0.000  -0.000  -0.000  -0.000   0.000  -0.000  -0.000  -0.000
  0.000   0.000   0.000  -1.810   0.000   0.000  -0.000  -0.000   1.682  -0.000  -0.000  -0.000   0.446   0.000   0.000  -0.077
  0.000   0.000   0.000   0.000  -0.512  -0.000  -0.000  -0.000  -0.000   0.438   0.000   0.000  -0.000  -0.000   0.000  -0.000
 -0.000  -0.000  -0.000  -0.000   0.000  -0.000  -0.000   0.000  -0.000   0.000   2.759  -0.681  -0.000   0.000  -0.000  -0.000
  0.000   0.000  -0.000  -0.000   0.000   0.000   0.000   0.000   0.000   0.000  -0.681   0.202   0.000  -0.000   0.000   0.000
  0.000   0.000   0.000  -0.467   0.000   0.000   0.000   0.000   0.446   0.000   0.000   0.000   0.186  -0.000   0.000  -0.032
 -0.467  -0.000   0.000  -0.000   0.000   0.446  -0.000   0.000   0.000  -0.000  -0.000   0.000   0.000   0.186  -0.000  -0.000
  0.000  -0.467  -0.000  -0.000  -0.000   0.000   0.446   0.000  -0.000  -0.000  -0.000  -0.000  -0.000  -0.000   0.186   0.000
  0.000   0.000  -0.000   0.066   0.000  -0.000  -0.000   0.000  -0.077  -0.000  -0.000   0.000  -0.032  -0.000   0.000   0.007
  0.066  -0.000   0.000   0.000  -0.000  -0.077   0.000  -0.000  -0.000   0.000   0.000  -0.000  -0.000  -0.032   0.000   0.000
 -0.000   0.066  -0.000  -0.000  -0.000   0.000  -0.077  -0.000   0.000   0.000   0.000   0.000   0.000   0.000  -0.032  -0.000


------------------------ aborting loop because EDIFF is reached ----------------------------------------


 


 total charge     
 
# of ion     s       p       d       tot
----------------------------------------
  1        0.461   0.282   9.533  10.276
  2        0.461   0.282   9.533  10.276
  3        0.461   0.282   9.533  10.276
  4        0.461   0.282   9.533  10.276
  5        1.353   2.030   0.017   3.401
  6        1.353   2.030   0.017   3.401
  7        1.353   2.030   0.017   3.401
  8        1.353   2.030   0.017   3.401
------------------------------------------------
tot        7.259   9.248  38.201  54.708
 
    CHARGE:  cpu time    0.06: real time    0.11
    FORLOC:  cpu time    0.00: real time    0.00
    FORNL :  cpu time    0.35: real time    0.72
    STRESS:  cpu time    0.90: real time    1.84
    FORCOR:  cpu time    0.03: real time    0.06
    FORHAR:  cpu time    0.01: real time    0.02
    MIXING:  cpu time    0.00: real time    0.00
    OFIELD:  cpu time    0.00: real time    0.00

  FORCE on cell =-STRESS in cart. coord.  units (eV):
  Direction    XX          YY          ZZ          XY          YZ          ZX
  --------------------------------------------------------------------------------------
  Alpha Z   188.00160   188.00160   188.00160
  Ewald   -1363.11245 -1363.11245 -1363.11245     0.00000    -0.00000    -0.00000
  Hartree   688.30499   688.30499   688.30499    -0.00000    -0.00000    -0.00000
  E(xc)    -348.63415  -348.63415  -348.63415     0.00000    -0.00000    -0.00000
  Local    -102.10951  -102.10951  -102.10951     0.00000     0.00000    -0.00000
  n-local   101.68182   106.01318   102.76789    -2.21989    -1.90629    -0.78839
  augment    25.15407    25.15407    25.15407    -0.00000    -0.00000    -0.00000
  Kinetic   805.38027   811.26007   810.10443    -2.03421    -2.11831    -0.83688
  Fock        0.00000     0.00000     0.00000     0.00000     0.00000     0.00000
  -------------------------------------------------------------------------------------
  Total       0.00710     0.00710     0.00710    -0.00000     0.00000    -0.00000
  in kB       0.03913     0.03913     0.03913    -0.00000     0.00000    -0.00000
  external pressure =        0.04 kB  Pullay stress =        0.00 kB


 VOLUME and BASIS-vectors are now :
 -----------------------------------------------------------------------------
  energy-cutoff  :      500.00
  volume of cell :      290.82
      direct lattice vectors                 reciprocal lattice vectors
     6.625365530  0.000000000 -0.000000000     0.150935068  0.000000000  0.000000000
    -0.000000000  6.625365530  0.000000000    -0.000000000  0.150935068 -0.000000000
    -0.000000000  0.000000000  6.625365530     0.000000000 -0.000000000  0.150935068

  length of vectors
     6.625365530  6.625365530  6.625365530     0.150935068  0.150935068  0.150935068


 FORCES acting on ions
    electron-ion (+dipol)            ewald-force                    non-local-force                 convergence-correction
 -----------------------------------------------------------------------------------------------
   0.408E-13 0.672E-13 -.960E-13   0.142E-13 0.000E+00 -.711E-14   0.347E-17 0.672E-17 -.217E-17   0.783E-13 0.102E-12 -.869E-13
   -.290E-13 0.670E-12 0.488E-12   0.142E-13 0.000E+00 0.000E+00   -.650E-17 0.976E-17 0.434E-18   0.722E-13 0.109E-12 -.178E-13
   0.582E-12 0.711E-13 0.641E-11   0.142E-13 0.000E+00 0.000E+00   0.434E-18 0.167E-16 -.130E-17   0.727E-13 0.107E-12 -.326E-13
   0.548E-12 0.358E-11 0.205E-11   0.142E-13 0.000E+00 -.711E-14   -.867E-18 0.152E-17 0.434E-18   0.725E-13 0.110E-12 -.118E-12
   -.815E-13 0.185E-12 -.257E-13   -.142E-13 -.365E-16 0.699E-14   -.434E-17 -.195E-16 -.781E-17   0.780E-13 0.405E-13 -.231E-14
   -.125E-12 0.170E-12 -.131E-12   -.146E-13 0.795E-15 0.698E-14   -.165E-16 0.651E-17 -.954E-17   0.372E-13 0.488E-13 -.295E-14
   -.113E-12 0.531E-12 -.623E-12   -.129E-13 -.841E-15 0.731E-14   -.607E-17 0.607E-17 0.121E-16   0.340E-13 0.456E-13 0.683E-14
   -.107E-12 0.287E-13 -.729E-13   -.153E-13 -.953E-17 0.730E-14   0.373E-16 0.330E-16 0.121E-16   0.770E-13 0.457E-13 0.862E-14
 -----------------------------------------------------------------------------------------------
   0.715E-12 0.530E-11 0.800E-11   0.942E-17 -.920E-16 0.144E-13   0.693E-17 0.607E-16 0.434E-17   0.522E-12 0.608E-12 -.245E-12
 
 
 POSITION                                       TOTAL-FORCE (eV/Angst)
 -----------------------------------------------------------------------------------
     -0.00000     -0.00000     -0.00000        -0.000000     -0.000000     -0.000000
     -0.00000      3.31268      3.31268         0.000000     -0.000000     -0.000000
      3.31268      0.00000      3.31268        -0.000000     -0.000000      0.000000
      3.31268      3.31268     -0.00000         0.000000      0.000000      0.000000
      1.65634      1.65634      1.65634         0.000000     -0.000000      0.000000
      4.96902      4.96902      1.65634         0.000000     -0.000000      0.000000
      4.96902      1.65634      4.96902         0.000000     -0.000000      0.000000
      1.65634      4.96902      4.96902         0.000000     -0.000000      0.000000
 -----------------------------------------------------------------------------------
    total drift:                                0.000000      0.000000      0.000000


--------------------------------------------------------------------------------------------------------



  FREE ENERGIE OF THE ION-ELECTRON SYSTEM (eV)
  ---------------------------------------------------
  free  energy   TOTEN  =       -19.24384972 eV

  energy  without entropy=      -19.24384972  energy(sigma->0) =      -19.24384972
 
 d Force = 0.0000000E+00[ 0.000E+00, 0.000E+00]  d Energy = 0.2349246E-04-0.235E-04
 d Force = 0.0000000E+00[ 0.000E+00, 0.000E+00]  d Ewald  =-0.1392286E+01 0.139E+01


--------------------------------------------------------------------------------------------------------


    POTLOK:  cpu time    0.03: real time    0.06


--------------------------------------------------------------------------------------------------------


 Steepest descent step on ions:
 trial-energy change:   -0.000023  1 .order   -0.000032   -0.000058   -0.000007
  (g-gl).g = 0.577E-04      g.g   = 0.577E-04  gl.gl    = 0.000E+00
 g(Force)  = 0.477E-57   g(Stress)= 0.577E-04 ortho     = 0.000E+00
 gamma     =   0.00000
 trial     =   1.00000
 opt step  =   1.14389  (harmonic =   1.14389) maximal distance =0.00000000
 next E    =   -19.243859   (d E  =  -0.00003)


--------------------------------------------------------------------------------------------------------


  
 reached required accuracy - stopping structural energy minimisation
 writing wavefunctions
     LOOP+:  cpu time    8.43: real time   17.38
    4ORBIT:  cpu time    0.00: real time    0.00
 


 total charge     
 
# of ion     s       p       d       tot
----------------------------------------
  1        0.461   0.282   9.533  10.276
  2        0.461   0.282   9.533  10.276
  3        0.461   0.282   9.533  10.276
  4        0.461   0.282   9.533  10.276
  5        1.353   2.030   0.017   3.401
  6        1.353   2.030   0.017   3.401
  7        1.353   2.030   0.017   3.401
  8        1.353   2.030   0.017   3.401
------------------------------------------------
tot        7.259   9.248  38.201  54.708
 

 total amount of memory used by VASP on root node    65974. kBytes
========================================================================

   base      :      30000. kBytes
   nonl-proj :      22259. kBytes
   fftplans  :       1814. kBytes
   grid      :       4551. kBytes
   one-center:        124. kBytes
   wavefun   :       7226. kBytes
 
  
  
 General timing and accounting informations for this job:
 ========================================================
  
                  Total CPU time used (sec):       14.721
                            User time (sec):       13.857
                          System time (sec):        0.863
                         Elapsed time (sec):       29.723
  
                   Maximum memory used (kb):    63160320.
                   Average memory used (kb):           0.
  
                          Minor page faults:        15362
                          Major page faults:          627
                 Voluntary context switches:           75
