PROCAR new format
# of k-points:   10         # of bands:  48         # of ions:   8

 k-point    1 :    0.00000000 0.00000000 0.00000000     weight = 0.01562500

band   1 # energy   -9.04658164 # occ.  2.00000000
 
ion      s      p      d    tot
  1  0.013  0.000  0.000  0.013
  2  0.013  0.000  0.000  0.013
  3  0.013  0.000  0.000  0.013
  4  0.013  0.000  0.000  0.013
  5  0.145  0.000  0.000  0.145
  6  0.145  0.000  0.000  0.145
  7  0.145  0.000  0.000  0.145
  8  0.145  0.000  0.000  0.145
tot  0.633  0.000  0.000  0.633
 
band   2 # energy   -8.60704264 # occ.  2.00000000
 
ion      s      p      d    tot
  1  0.000  0.003  0.033  0.035
  2  0.000  0.003  0.033  0.035
  3  0.000  0.003  0.033  0.035
  4  0.000  0.003  0.033  0.035
  5  0.142  0.000  0.000  0.142
  6  0.062  0.000  0.000  0.062
  7  0.049  0.000  0.000  0.049
  8  0.329  0.000  0.000  0.329
tot  0.581  0.011  0.130  0.722
 
band   3 # energy   -8.60704264 # occ.  2.00000000
 
ion      s      p      d    tot
  1  0.000  0.003  0.033  0.035
  2  0.000  0.003  0.033  0.035
  3  0.000  0.003  0.033  0.035
  4  0.000  0.003  0.033  0.035
  5  0.028  0.000  0.000  0.028
  6  0.363  0.000  0.000  0.363
  7  0.097  0.000  0.000  0.097
  8  0.093  0.000  0.000  0.093
tot  0.581  0.011  0.130  0.722
 
band   4 # energy   -8.60704264 # occ.  2.00000000
 
ion      s      p      d    tot
  1  0.000  0.003  0.033  0.035
  2  0.000  0.003  0.033  0.035
  3  0.000  0.003  0.033  0.035
  4  0.000  0.003  0.033  0.035
  5  0.266  0.000  0.000  0.266
  6  0.011  0.000  0.000  0.011
  7  0.289  0.000  0.000  0.289
  8  0.014  0.000  0.000  0.014
tot  0.581  0.011  0.130  0.722
 
band   5 # energy   -6.31141305 # occ.  2.00000000
 
ion      s      p      d    tot
  1  0.000  0.000  0.228  0.228
  2  0.000  0.000  0.228  0.228
  3  0.000  0.000  0.228  0.228
  4  0.000  0.000  0.228  0.228
  5  0.000  0.004  0.000  0.004
  6  0.000  0.004  0.000  0.004
  7  0.000  0.004  0.000  0.004
  8  0.000  0.004  0.000  0.004
tot  0.000  0.017  0.911  0.928
 
band   6 # energy   -6.31141305 # occ.  2.00000000
 
ion      s      p      d    tot
  1  0.000  0.000  0.228  0.228
  2  0.000  0.000  0.228  0.228
  3  0.000  0.000  0.228  0.228
  4  0.000  0.000  0.228  0.228
  5  0.000  0.004  0.000  0.004
  6  0.000  0.004  0.000  0.004
  7  0.000  0.004  0.000  0.004
  8  0.000  0.004  0.000  0.004
tot  0.000  0.017  0.911  0.928
 
band   7 # energy   -6.31141305 # occ.  2.00000000
 
ion      s      p      d    tot
  1  0.000  0.000  0.228  0.228
  2  0.000  0.000  0.228  0.228
  3  0.000  0.000  0.228  0.228
  4  0.000  0.000  0.228  0.228
  5  0.000  0.004  0.000  0.004
  6  0.000  0.004  0.000  0.004
  7  0.000  0.004  0.000  0.004
  8  0.000  0.004  0.000  0.004
tot  0.000  0.017  0.911  0.928
 
band   8 # energy   -6.17852610 # occ.  2.00000000
 
ion      s      p      d    tot
  1  0.000  0.000  0.337  0.337
  2  0.000  0.000  0.259  0.259
  3  0.000  0.000  0.047  0.047
  4  0.000  0.000  0.295  0.295
  5  0.000  0.002  0.000  0.003
  6  0.000  0.001  0.000  0.001
  7  0.000  0.001  0.000  0.001
  8  0.000  0.002  0.000  0.003
tot  0.000  0.007  0.939  0.946
 
band   9 # energy   -6.17852610 # occ.  2.00000000
 
ion      s      p      d    tot
  1  0.000  0.000  0.084  0.084
  2  0.000  0.000  0.347  0.347
  3  0.000  0.000  0.099  0.099
  4  0.000  0.000  0.408  0.408
  5  0.000  0.001  0.000  0.001
  6  0.000  0.002  0.000  0.002
  7  0.000  0.002  0.000  0.003
  8  0.000  0.002  0.000  0.002
tot  0.000  0.007  0.939  0.946
 
band  10 # energy   -6.17852610 # occ.  2.00000000
 
ion      s      p      d    tot
  1  0.000  0.000  0.083  0.083
  2  0.000  0.000  0.327  0.327
  3  0.000  0.000  0.457  0.458
  4  0.000  0.000  0.070  0.070
  5  0.000  0.002  0.000  0.002
  6  0.000  0.002  0.000  0.002
  7  0.000  0.002  0.000  0.003
  8  0.000  0.001  0.000  0.001
tot  0.000  0.007  0.939  0.946
 
band  11 # energy   -6.17852610 # occ.  2.00000000
 
ion      s      p      d    tot
  1  0.000  0.000  0.177  0.177
  2  0.000  0.000  0.182  0.182
  3  0.000  0.000  0.402  0.402
  4  0.000  0.000  0.177  0.177
  5  0.000  0.002  0.000  0.002
  6  0.000  0.002  0.000  0.002
  7  0.000  0.001  0.000  0.002
  8  0.000  0.002  0.000  0.002
tot  0.000  0.007  0.939  0.946
 
band  12 # energy   -6.17852610 # occ.  2.00000000
 
ion      s      p      d    tot
  1  0.000  0.000  0.339  0.339
  2  0.000  0.000  0.205  0.205
  3  0.000  0.000  0.274  0.274
  4  0.000  0.000  0.119  0.119
  5  0.000  0.002  0.000  0.003
  6  0.000  0.002  0.000  0.002
  7  0.000  0.001  0.000  0.001
  8  0.000  0.002  0.000  0.002
tot  0.000  0.007  0.939  0.946
 
band  13 # energy   -6.17852610 # occ.  2.00000000
 
ion      s      p      d    tot
  1  0.000  0.000  0.386  0.386
  2  0.000  0.000  0.086  0.086
  3  0.000  0.000  0.127  0.128
  4  0.000  0.000  0.338  0.339
  5  0.000  0.001  0.000  0.001
  6  0.000  0.003  0.000  0.003
  7  0.000  0.002  0.000  0.002
  8  0.000  0.002  0.000  0.002
tot  0.000  0.007  0.939  0.946
 
band  14 # energy   -6.17587444 # occ.  2.00000000
 
ion      s      p      d    tot
  1  0.000  0.000  0.207  0.208
  2  0.000  0.000  0.246  0.247
  3  0.000  0.000  0.250  0.250
  4  0.000  0.000  0.219  0.219
  5  0.000  0.001  0.000  0.002
  6  0.000  0.001  0.000  0.002
  7  0.000  0.001  0.000  0.002
  8  0.000  0.001  0.000  0.002
tot  0.001  0.006  0.923  0.930
 
band  15 # energy   -6.17587444 # occ.  2.00000000
 
ion      s      p      d    tot
  1  0.000  0.000  0.276  0.276
  2  0.000  0.000  0.188  0.189
  3  0.000  0.000  0.195  0.195
  4  0.000  0.000  0.263  0.264
  5  0.000  0.001  0.000  0.002
  6  0.000  0.001  0.000  0.002
  7  0.000  0.001  0.000  0.002
  8  0.000  0.001  0.000  0.002
tot  0.001  0.006  0.923  0.930
 
band  16 # energy   -6.17587444 # occ.  2.00000000
 
ion      s      p      d    tot
  1  0.000  0.000  0.209  0.209
  2  0.000  0.000  0.257  0.257
  3  0.000  0.000  0.247  0.247
  4  0.000  0.000  0.209  0.210
  5  0.000  0.001  0.000  0.002
  6  0.000  0.001  0.000  0.002
  7  0.000  0.001  0.000  0.002
  8  0.000  0.001  0.000  0.002
tot  0.001  0.006  0.923  0.930
 
band  17 # energy   -6.09708882 # occ.  2.00000000
 
ion      s      p      d    tot
  1  0.000  0.000  0.237  0.237
  2  0.000  0.000  0.237  0.237
  3  0.000  0.000  0.237  0.237
  4  0.000  0.000  0.237  0.237
  5  0.000  0.000  0.000  0.000
  6  0.000  0.000  0.000  0.000
  7  0.000  0.000  0.000  0.000
  8  0.000  0.000  0.000  0.000
tot  0.000  0.000  0.948  0.948
 
band  18 # energy   -6.09708882 # occ.  2.00000000
 
ion      s      p      d    tot
  1  0.000  0.000  0.237  0.237
  2  0.000  0.000  0.237  0.237
  3  0.000  0.000  0.237  0.237
  4  0.000  0.000  0.237  0.237
  5  0.000  0.000  0.000  0.000
  6  0.000  0.000  0.000  0.000
  7  0.000  0.000  0.000  0.000
  8  0.000  0.000  0.000  0.000
tot  0.000  0.000  0.948  0.948
 
band  19 # energy   -6.07165770 # occ.  2.00000000
 
ion      s      p      d    tot
  1  0.000  0.000  0.322  0.322
  2  0.000  0.000  0.067  0.067
  3  0.000  0.000  0.238  0.238
  4  0.000  0.000  0.324  0.324
  5  0.000  0.000  0.000  0.000
  6  0.000  0.000  0.000  0.000
  7  0.000  0.000  0.000  0.000
  8  0.000  0.000  0.000  0.000
tot  0.000  0.000  0.951  0.951
 
band  20 # energy   -6.07165770 # occ.  2.00000000
 
ion      s      p      d    tot
  1  0.000  0.000  0.166  0.166
  2  0.000  0.000  0.333  0.333
  3  0.000  0.000  0.136  0.136
  4  0.000  0.000  0.316  0.316
  5  0.000  0.000  0.000  0.000
  6  0.000  0.000  0.000  0.000
  7  0.000  0.000  0.000  0.000
  8  0.000  0.000  0.000  0.000
tot  0.000  0.000  0.951  0.951
 
band  21 # energy   -6.07165770 # occ.  2.00000000
 
ion      s      p      d    tot
  1  0.000  0.000  0.225  0.225
  2  0.000  0.000  0.314  0.314
  3  0.000  0.000  0.340  0.340
  4  0.000  0.000  0.073  0.073
  5  0.000  0.000  0.000  0.000
  6  0.000  0.000  0.000  0.000
  7  0.000  0.000  0.000  0.000
  8  0.000  0.000  0.000  0.000
tot  0.000  0.000  0.951  0.951
 
band  22 # energy   -5.67692853 # occ.  2.00000000
 
ion      s      p      d    tot
  1  0.000  0.001  0.205  0.205
  2  0.000  0.001  0.205  0.205
  3  0.000  0.001  0.205  0.205
  4  0.000  0.001  0.205  0.205
  5  0.057  0.000  0.000  0.057
  6  0.001  0.000  0.000  0.002
  7  0.019  0.000  0.000  0.019
  8  0.023  0.000  0.000  0.023
tot  0.100  0.004  0.819  0.923
 
band  23 # energy   -5.67692853 # occ.  2.00000000
 
ion      s      p      d    tot
  1  0.000  0.001  0.205  0.205
  2  0.000  0.001  0.205  0.205
  3  0.000  0.001  0.205  0.205
  4  0.000  0.001  0.205  0.205
  5  0.004  0.000  0.000  0.005
  6  0.019  0.000  0.000  0.019
  7  0.055  0.000  0.000  0.055
  8  0.022  0.000  0.000  0.022
tot  0.100  0.004  0.819  0.923
 
band  24 # energy   -5.67692853 # occ.  2.00000000
 
ion      s      p      d    tot
  1  0.000  0.001  0.205  0.205
  2  0.000  0.001  0.205  0.205
  3  0.000  0.001  0.205  0.205
  4  0.000  0.001  0.205  0.205
  5  0.014  0.000  0.000  0.014
  6  0.055  0.000  0.000  0.055
  7  0.001  0.000  0.000  0.001
  8  0.030  0.000  0.000  0.030
tot  0.100  0.004  0.819  0.923
 
band  25 # energy   -2.22744696 # occ.  2.00000000
 
ion      s      p      d    tot
  1  0.064  0.000  0.005  0.069
  2  0.018  0.000  0.007  0.025
  3  0.063  0.000  0.005  0.069
  4  0.095  0.000  0.004  0.099
  5  0.000  0.053  0.001  0.054
  6  0.000  0.053  0.001  0.054
  7  0.000  0.053  0.001  0.054
  8  0.000  0.053  0.001  0.054
tot  0.239  0.212  0.025  0.476
 
band  26 # energy   -2.22744696 # occ.  2.00000000
 
ion      s      p      d    tot
  1  0.013  0.000  0.008  0.021
  2  0.123  0.000  0.003  0.125
  3  0.076  0.000  0.005  0.081
  4  0.028  0.000  0.007  0.035
  5  0.000  0.053  0.001  0.054
  6  0.000  0.053  0.001  0.054
  7  0.000  0.053  0.001  0.054
  8  0.000  0.053  0.001  0.054
tot  0.239  0.212  0.025  0.476
 
band  27 # energy   -2.22744696 # occ.  2.00000000
 
ion      s      p      d    tot
  1  0.103  0.000  0.004  0.106
  2  0.040  0.000  0.006  0.046
  3  0.040  0.000  0.006  0.047
  4  0.057  0.000  0.006  0.062
  5  0.000  0.053  0.001  0.054
  6  0.000  0.053  0.001  0.054
  7  0.000  0.053  0.001  0.054
  8  0.000  0.053  0.001  0.054
tot  0.239  0.212  0.025  0.476
 
band  28 # energy    0.12136374 # occ.  2.00000000
 
ion      s      p      d    tot
  1  0.000  0.027  0.006  0.033
  2  0.000  0.008  0.002  0.010
  3  0.000  0.023  0.005  0.028
  4  0.000  0.014  0.003  0.017
  5  0.000  0.075  0.000  0.075
  6  0.000  0.112  0.000  0.112
  7  0.000  0.115  0.000  0.115
  8  0.000  0.071  0.000  0.071
tot  0.000  0.446  0.015  0.461
 
band  29 # energy    0.12136374 # occ.  2.00000000
 
ion      s      p      d    tot
  1  0.000  0.015  0.003  0.018
  2  0.000  0.012  0.003  0.015
  3  0.000  0.019  0.004  0.024
  4  0.000  0.026  0.005  0.031
  5  0.000  0.050  0.000  0.050
  6  0.000  0.101  0.000  0.101
  7  0.000  0.098  0.000  0.098
  8  0.000  0.125  0.000  0.125
tot  0.000  0.446  0.015  0.461
 
band  30 # energy    0.12136374 # occ.  2.00000000
 
ion      s      p      d    tot
  1  0.000  0.031  0.007  0.038
  2  0.000  0.022  0.005  0.026
  3  0.000  0.008  0.002  0.010
  4  0.000  0.011  0.002  0.014
  5  0.000  0.128  0.000  0.128
  6  0.000  0.063  0.000  0.063
  7  0.000  0.089  0.000  0.089
  8  0.000  0.094  0.000  0.094
tot  0.000  0.446  0.015  0.461
 
band  31 # energy    0.12136374 # occ.  2.00000000
 
ion      s      p      d    tot
  1  0.000  0.020  0.004  0.024
  2  0.000  0.022  0.005  0.027
  3  0.000  0.016  0.003  0.020
  4  0.000  0.014  0.003  0.016
  5  0.000  0.103  0.000  0.103
  6  0.000  0.085  0.000  0.085
  7  0.000  0.076  0.000  0.076
  8  0.000  0.110  0.000  0.110
tot  0.000  0.446  0.015  0.461
 
band  32 # energy    0.12136374 # occ.  2.00000000
 
ion      s      p      d    tot
  1  0.000  0.007  0.001  0.008
  2  0.000  0.020  0.004  0.025
  3  0.000  0.029  0.006  0.035
  4  0.000  0.016  0.003  0.020
  5  0.000  0.088  0.000  0.088
  6  0.000  0.078  0.000  0.078
  7  0.000  0.118  0.000  0.118
  8  0.000  0.090  0.000  0.090
tot  0.000  0.446  0.015  0.461
 
band  33 # energy    0.12136374 # occ.  2.00000000
 
ion      s      p      d    tot
  1  0.000  0.008  0.002  0.010
  2  0.000  0.024  0.005  0.029
  3  0.000  0.013  0.003  0.015
  4  0.000  0.028  0.006  0.034
  5  0.000  0.116  0.000  0.116
  6  0.000  0.123  0.000  0.123
  7  0.000  0.065  0.000  0.065
  8  0.000  0.070  0.000  0.070
tot  0.000  0.446  0.015  0.461
 
band  34 # energy    1.77101356 # occ.  2.00000000
 
ion      s      p      d    tot
  1  0.000  0.006  0.017  0.023
  2  0.000  0.006  0.017  0.023
  3  0.000  0.006  0.017  0.023
  4  0.000  0.006  0.017  0.023
  5  0.000  0.122  0.000  0.122
  6  0.000  0.122  0.000  0.122
  7  0.000  0.122  0.000  0.122
  8  0.000  0.122  0.000  0.122
tot  0.000  0.513  0.068  0.581
 
band  35 # energy    1.77101356 # occ.  2.00000000
 
ion      s      p      d    tot
  1  0.000  0.006  0.017  0.023
  2  0.000  0.006  0.017  0.023
  3  0.000  0.006  0.017  0.023
  4  0.000  0.006  0.017  0.023
  5  0.000  0.122  0.000  0.122
  6  0.000  0.122  0.000  0.122
  7  0.000  0.122  0.000  0.122
  8  0.000  0.122  0.000  0.122
tot  0.000  0.513  0.068  0.581
 
band  36 # energy    1.77101356 # occ.  2.00000000
 
ion      s      p      d    tot
  1  0.000  0.006  0.017  0.023
  2  0.000  0.006  0.017  0.023
  3  0.000  0.006  0.017  0.023
  4  0.000  0.006  0.017  0.023
  5  0.000  0.122  0.000  0.122
  6  0.000  0.122  0.000  0.122
  7  0.000  0.122  0.000  0.122
  8  0.000  0.122  0.000  0.122
tot  0.000  0.513  0.068  0.581
 
band  37 # energy    2.34346808 # occ.  0.00000000
 
ion      s      p      d    tot
  1  0.082  0.000  0.000  0.082
  2  0.082  0.000  0.000  0.082
  3  0.082  0.000  0.000  0.082
  4  0.082  0.000  0.000  0.082
  5  0.055  0.000  0.000  0.055
  6  0.055  0.000  0.000  0.055
  7  0.055  0.000  0.000  0.055
  8  0.055  0.000  0.000  0.055
tot  0.547  0.000  0.000  0.547
 
band  38 # energy    4.43881888 # occ.  0.00000000
 
ion      s      p      d    tot
  1  0.043  0.000  0.009  0.052
  2  0.059  0.000  0.008  0.067
  3  0.064  0.000  0.007  0.071
  4  0.049  0.000  0.008  0.057
  5  0.000  0.030  0.011  0.041
  6  0.000  0.030  0.011  0.041
  7  0.000  0.030  0.011  0.041
  8  0.000  0.030  0.011  0.041
tot  0.215  0.120  0.077  0.412
 
band  39 # energy    4.43881888 # occ.  0.00000000
 
ion      s      p      d    tot
  1  0.096  0.000  0.005  0.101
  2  0.070  0.000  0.007  0.077
  3  0.026  0.000  0.010  0.036
  4  0.023  0.000  0.010  0.033
  5  0.000  0.030  0.011  0.041
  6  0.000  0.030  0.011  0.041
  7  0.000  0.030  0.011  0.041
  8  0.000  0.030  0.011  0.041
tot  0.215  0.120  0.077  0.412
 
band  40 # energy    4.43881888 # occ.  0.00000000
 
ion      s      p      d    tot
  1  0.022  0.000  0.010  0.033
  2  0.031  0.000  0.010  0.041
  3  0.072  0.000  0.007  0.079
  4  0.089  0.000  0.005  0.095
  5  0.000  0.030  0.011  0.041
  6  0.000  0.030  0.011  0.041
  7  0.000  0.030  0.011  0.041
  8  0.000  0.030  0.011  0.041
tot  0.215  0.120  0.077  0.412
 
band  41 # energy    4.51763383 # occ.  0.00000000
 
ion      s      p      d    tot
  1  0.000  0.025  0.007  0.032
  2  0.000  0.025  0.007  0.032
  3  0.000  0.025  0.007  0.032
  4  0.000  0.025  0.007  0.032
  5  0.015  0.000  0.007  0.023
  6  0.000  0.000  0.013  0.013
  7  0.006  0.000  0.011  0.017
  8  0.024  0.000  0.004  0.028
tot  0.046  0.099  0.064  0.210
 
band  42 # energy    4.51763383 # occ.  0.00000000
 
ion      s      p      d    tot
  1  0.000  0.025  0.007  0.032
  2  0.000  0.025  0.007  0.032
  3  0.000  0.025  0.007  0.032
  4  0.000  0.025  0.007  0.032
  5  0.017  0.000  0.007  0.024
  6  0.002  0.000  0.012  0.015
  7  0.018  0.000  0.006  0.024
  8  0.009  0.000  0.010  0.019
tot  0.046  0.099  0.064  0.210
 
band  43 # energy    4.51763383 # occ.  0.00000000
 
ion      s      p      d    tot
  1  0.000  0.025  0.007  0.032
  2  0.000  0.025  0.007  0.032
  3  0.000  0.025  0.007  0.032
  4  0.000  0.025  0.007  0.032
  5  0.002  0.000  0.012  0.014
  6  0.032  0.000  0.001  0.033
  7  0.011  0.000  0.009  0.020
  8  0.001  0.000  0.013  0.014
tot  0.046  0.099  0.064  0.210
 
band  44 # energy    6.41058710 # occ.  0.00000000
 
ion      s      p      d    tot
  1  0.000  0.059  0.000  0.059
  2  0.000  0.059  0.000  0.059
  3  0.000  0.059  0.000  0.059
  4  0.000  0.059  0.000  0.059
  5  0.000  0.002  0.021  0.023
  6  0.000  0.002  0.021  0.023
  7  0.000  0.002  0.021  0.023
  8  0.000  0.002  0.021  0.023
tot  0.000  0.243  0.085  0.328
 
band  45 # energy    6.41058710 # occ.  0.00000000
 
ion      s      p      d    tot
  1  0.000  0.059  0.000  0.059
  2  0.000  0.059  0.000  0.059
  3  0.000  0.059  0.000  0.059
  4  0.000  0.059  0.000  0.059
  5  0.000  0.002  0.021  0.023
  6  0.000  0.002  0.021  0.023
  7  0.000  0.002  0.021  0.023
  8  0.000  0.002  0.021  0.023
tot  0.000  0.243  0.085  0.328
 
band  46 # energy    6.41058710 # occ.  0.00000000
 
ion      s      p      d    tot
  1  0.000  0.059  0.000  0.059
  2  0.000  0.059  0.000  0.059
  3  0.000  0.059  0.000  0.059
  4  0.000  0.059  0.000  0.059
  5  0.000  0.002  0.021  0.023
  6  0.000  0.002  0.021  0.023
  7  0.000  0.002  0.021  0.023
  8  0.000  0.002  0.021  0.023
tot  0.000  0.243  0.085  0.328
 
band  47 # energy    9.14169707 # occ.  0.00000000
 
ion      s      p      d    tot
  1  0.055  0.000  0.000  0.055
  2  0.055  0.000  0.000  0.055
  3  0.055  0.000  0.000  0.055
  4  0.055  0.000  0.000  0.055
  5  0.002  0.000  0.000  0.002
  6  0.002  0.000  0.000  0.002
  7  0.002  0.000  0.000  0.002
  8  0.002  0.000  0.000  0.002
tot  0.229  0.000  0.000  0.229
 
band  48 # energy   10.26688236 # occ.  0.00000000
 
ion      s      p      d    tot
  1  0.014  0.000  0.002  0.016
  2  0.019  0.000  0.002  0.021
  3  0.021  0.000  0.002  0.022
  4  0.016  0.000  0.002  0.018
  5  0.000  0.081  0.005  0.085
  6  0.000  0.081  0.005  0.085
  7  0.000  0.081  0.005  0.085
  8  0.000  0.081  0.005  0.085
tot  0.070  0.322  0.026  0.418
 

 k-point    2 :    0.25000000 0.00000000 0.00000000     weight = 0.09375000

band   1 # energy   -8.98032623 # occ.  2.00000000
 
ion      s      p      d    tot
  1  0.012  0.000  0.003  0.015
  2  0.012  0.000  0.003  0.015
  3  0.012  0.000  0.003  0.015
  4  0.012  0.000  0.003  0.015
  5  0.146  0.000  0.000  0.146
  6  0.146  0.000  0.000  0.146
  7  0.146  0.000  0.000  0.146
  8  0.146  0.000  0.000  0.146
tot  0.629  0.002  0.013  0.644
 
band   2 # energy   -8.66803855 # occ.  2.00000000
 
ion      s      p      d    tot
  1  0.002  0.002  0.026  0.031
  2  0.002  0.002  0.026  0.031
  3  0.002  0.002  0.026  0.031
  4  0.002  0.002  0.026  0.031
  5  0.146  0.000  0.000  0.146
  6  0.146  0.000  0.000  0.146
  7  0.146  0.000  0.000  0.146
  8  0.146  0.000  0.000  0.146
tot  0.593  0.010  0.104  0.707
 
band   3 # energy   -8.60768303 # occ.  2.00000000
 
ion      s      p      d    tot
  1  0.000  0.003  0.033  0.035
  2  0.000  0.003  0.033  0.035
  3  0.000  0.003  0.033  0.035
  4  0.000  0.003  0.033  0.035
  5  0.045  0.000  0.000  0.045
  6  0.245  0.000  0.000  0.245
  7  0.245  0.000  0.000  0.245
  8  0.045  0.000  0.000  0.045
tot  0.580  0.011  0.130  0.722
 
band   4 # energy   -8.60768303 # occ.  2.00000000
 
ion      s      p      d    tot
  1  0.000  0.003  0.033  0.035
  2  0.000  0.003  0.033  0.035
  3  0.000  0.003  0.033  0.035
  4  0.000  0.003  0.033  0.035
  5  0.245  0.000  0.000  0.245
  6  0.045  0.000  0.000  0.045
  7  0.045  0.000  0.000  0.045
  8  0.245  0.000  0.000  0.245
tot  0.580  0.011  0.130  0.722
 
band   5 # energy   -6.29350647 # occ.  2.00000000
 
ion      s      p      d    tot
  1  0.000  0.000  0.229  0.229
  2  0.000  0.000  0.229  0.229
  3  0.000  0.000  0.229  0.229
  4  0.000  0.000  0.229  0.229
  5  0.000  0.004  0.000  0.004
  6  0.000  0.004  0.000  0.004
  7  0.000  0.004  0.000  0.004
  8  0.000  0.004  0.000  0.004
tot  0.000  0.016  0.915  0.930
 
band   6 # energy   -6.29350647 # occ.  2.00000000
 
ion      s      p      d    tot
  1  0.000  0.000  0.229  0.229
  2  0.000  0.000  0.229  0.229
  3  0.000  0.000  0.229  0.229
  4  0.000  0.000  0.229  0.229
  5  0.000  0.004  0.000  0.004
  6  0.000  0.004  0.000  0.004
  7  0.000  0.004  0.000  0.004
  8  0.000  0.004  0.000  0.004
tot  0.000  0.016  0.915  0.930
 
band   7 # energy   -6.26707950 # occ.  2.00000000
 
ion      s      p      d    tot
  1  0.001  0.000  0.224  0.225
  2  0.001  0.000  0.224  0.225
  3  0.001  0.000  0.224  0.225
  4  0.001  0.000  0.224  0.225
  5  0.001  0.004  0.000  0.005
  6  0.001  0.004  0.000  0.005
  7  0.001  0.004  0.000  0.005
  8  0.001  0.004  0.000  0.005
tot  0.008  0.017  0.897  0.921
 
band   8 # energy   -6.19966800 # occ.  2.00000000
 
ion      s      p      d    tot
  1  0.000  0.000  0.233  0.233
  2  0.000  0.000  0.233  0.233
  3  0.000  0.000  0.233  0.233
  4  0.000  0.000  0.233  0.233
  5  0.000  0.002  0.000  0.002
  6  0.000  0.002  0.000  0.002
  7  0.000  0.002  0.000  0.002
  8  0.000  0.002  0.000  0.002
tot  0.000  0.009  0.934  0.943
 
band   9 # energy   -6.19966800 # occ.  2.00000000
 
ion      s      p      d    tot
  1  0.000  0.000  0.233  0.233
  2  0.000  0.000  0.233  0.233
  3  0.000  0.000  0.233  0.233
  4  0.000  0.000  0.233  0.233
  5  0.000  0.002  0.000  0.002
  6  0.000  0.002  0.000  0.002
  7  0.000  0.002  0.000  0.002
  8  0.000  0.002  0.000  0.002
tot  0.000  0.009  0.934  0.943
 
band  10 # energy   -6.19739896 # occ.  2.00000000
 
ion      s      p      d    tot
  1  0.000  0.000  0.225  0.225
  2  0.000  0.000  0.225  0.225
  3  0.000  0.000  0.239  0.239
  4  0.000  0.000  0.239  0.239
  5  0.000  0.002  0.000  0.003
  6  0.000  0.002  0.000  0.003
  7  0.000  0.002  0.000  0.003
  8  0.000  0.002  0.000  0.003
tot  0.000  0.010  0.927  0.938
 
band  11 # energy   -6.19739896 # occ.  2.00000000
 
ion      s      p      d    tot
  1  0.000  0.000  0.239  0.239
  2  0.000  0.000  0.239  0.239
  3  0.000  0.000  0.225  0.225
  4  0.000  0.000  0.225  0.225
  5  0.000  0.002  0.000  0.003
  6  0.000  0.002  0.000  0.003
  7  0.000  0.002  0.000  0.003
  8  0.000  0.002  0.000  0.003
tot  0.000  0.010  0.927  0.938
 
band  12 # energy   -6.19608919 # occ.  2.00000000
 
ion      s      p      d    tot
  1  0.000  0.000  0.234  0.234
  2  0.000  0.000  0.234  0.234
  3  0.000  0.000  0.234  0.234
  4  0.000  0.000  0.234  0.234
  5  0.000  0.002  0.000  0.002
  6  0.000  0.002  0.000  0.002
  7  0.000  0.002  0.000  0.002
  8  0.000  0.002  0.000  0.002
tot  0.000  0.007  0.936  0.943
 
band  13 # energy   -6.19608919 # occ.  2.00000000
 
ion      s      p      d    tot
  1  0.000  0.000  0.234  0.234
  2  0.000  0.000  0.234  0.234
  3  0.000  0.000  0.234  0.234
  4  0.000  0.000  0.234  0.234
  5  0.000  0.002  0.000  0.002
  6  0.000  0.002  0.000  0.002
  7  0.000  0.002  0.000  0.002
  8  0.000  0.002  0.000  0.002
tot  0.000  0.007  0.936  0.943
 
band  14 # energy   -6.16802718 # occ.  2.00000000
 
ion      s      p      d    tot
  1  0.000  0.000  0.231  0.231
  2  0.000  0.000  0.231  0.231
  3  0.000  0.000  0.231  0.231
  4  0.000  0.000  0.231  0.231
  5  0.000  0.002  0.000  0.002
  6  0.000  0.002  0.000  0.002
  7  0.000  0.002  0.000  0.002
  8  0.000  0.002  0.000  0.002
tot  0.002  0.006  0.922  0.930
 
band  15 # energy   -6.14569718 # occ.  2.00000000
 
ion      s      p      d    tot
  1  0.000  0.000  0.245  0.245
  2  0.000  0.000  0.245  0.245
  3  0.000  0.000  0.223  0.223
  4  0.000  0.000  0.223  0.223
  5  0.000  0.001  0.000  0.001
  6  0.000  0.001  0.000  0.001
  7  0.000  0.001  0.000  0.001
  8  0.000  0.001  0.000  0.001
tot  0.000  0.003  0.938  0.941
 
band  16 # energy   -6.14569718 # occ.  2.00000000
 
ion      s      p      d    tot
  1  0.000  0.000  0.223  0.223
  2  0.000  0.000  0.223  0.223
  3  0.000  0.000  0.245  0.245
  4  0.000  0.000  0.245  0.245
  5  0.000  0.001  0.000  0.001
  6  0.000  0.001  0.000  0.001
  7  0.000  0.001  0.000  0.001
  8  0.000  0.001  0.000  0.001
tot  0.000  0.003  0.938  0.941
 
band  17 # energy   -6.10203679 # occ.  2.00000000
 
ion      s      p      d    tot
  1  0.000  0.000  0.236  0.236
  2  0.000  0.000  0.236  0.236
  3  0.000  0.000  0.236  0.236
  4  0.000  0.000  0.236  0.236
  5  0.000  0.000  0.000  0.000
  6  0.000  0.000  0.000  0.000
  7  0.000  0.000  0.000  0.000
  8  0.000  0.000  0.000  0.000
tot  0.000  0.000  0.947  0.947
 
band  18 # energy   -6.09338017 # occ.  2.00000000
 
ion      s      p      d    tot
  1  0.000  0.000  0.237  0.237
  2  0.000  0.000  0.237  0.237
  3  0.000  0.000  0.237  0.237
  4  0.000  0.000  0.237  0.237
  5  0.000  0.000  0.000  0.000
  6  0.000  0.000  0.000  0.000
  7  0.000  0.000  0.000  0.000
  8  0.000  0.000  0.000  0.000
tot  0.000  0.000  0.949  0.949
 
band  19 # energy   -6.07984402 # occ.  2.00000000
 
ion      s      p      d    tot
  1  0.000  0.000  0.101  0.101
  2  0.000  0.000  0.101  0.101
  3  0.000  0.000  0.374  0.374
  4  0.000  0.000  0.374  0.374
  5  0.000  0.000  0.000  0.000
  6  0.000  0.000  0.000  0.000
  7  0.000  0.000  0.000  0.000
  8  0.000  0.000  0.000  0.000
tot  0.000  0.000  0.950  0.950
 
band  20 # energy   -6.07984402 # occ.  2.00000000
 
ion      s      p      d    tot
  1  0.000  0.000  0.374  0.374
  2  0.000  0.000  0.374  0.374
  3  0.000  0.000  0.101  0.101
  4  0.000  0.000  0.101  0.101
  5  0.000  0.000  0.000  0.000
  6  0.000  0.000  0.000  0.000
  7  0.000  0.000  0.000  0.000
  8  0.000  0.000  0.000  0.000
tot  0.000  0.000  0.950  0.950
 
band  21 # energy   -6.07538331 # occ.  2.00000000
 
ion      s      p      d    tot
  1  0.000  0.000  0.238  0.238
  2  0.000  0.000  0.238  0.238
  3  0.000  0.000  0.238  0.238
  4  0.000  0.000  0.238  0.238
  5  0.000  0.000  0.000  0.000
  6  0.000  0.000  0.000  0.000
  7  0.000  0.000  0.000  0.000
  8  0.000  0.000  0.000  0.000
tot  0.000  0.000  0.951  0.951
 
band  22 # energy   -5.83040884 # occ.  2.00000000
 
ion      s      p      d    tot
  1  0.002  0.000  0.208  0.210
  2  0.002  0.000  0.208  0.210
  3  0.002  0.000  0.208  0.210
  4  0.002  0.000  0.208  0.210
  5  0.017  0.001  0.000  0.019
  6  0.017  0.001  0.000  0.019
  7  0.017  0.001  0.000  0.019
  8  0.017  0.001  0.000  0.019
tot  0.076  0.007  0.832  0.915
 
band  23 # energy   -5.64470107 # occ.  2.00000000
 
ion      s      p      d    tot
  1  0.000  0.001  0.206  0.207
  2  0.000  0.001  0.206  0.207
  3  0.000  0.001  0.206  0.207
  4  0.000  0.001  0.206  0.207
  5  0.024  0.000  0.000  0.024
  6  0.027  0.000  0.000  0.027
  7  0.027  0.000  0.000  0.027
  8  0.024  0.000  0.000  0.024
tot  0.102  0.003  0.824  0.929
 
band  24 # energy   -5.64470107 # occ.  2.00000000
 
ion      s      p      d    tot
  1  0.000  0.001  0.206  0.207
  2  0.000  0.001  0.206  0.207
  3  0.000  0.001  0.206  0.207
  4  0.000  0.001  0.206  0.207
  5  0.027  0.000  0.000  0.027
  6  0.024  0.000  0.000  0.024
  7  0.024  0.000  0.000  0.024
  8  0.027  0.000  0.000  0.027
tot  0.102  0.003  0.824  0.929
 
band  25 # energy   -2.17231007 # occ.  2.00000000
 
ion      s      p      d    tot
  1  0.023  0.000  0.004  0.027
  2  0.023  0.000  0.004  0.027
  3  0.100  0.000  0.003  0.103
  4  0.100  0.000  0.003  0.103
  5  0.000  0.053  0.001  0.054
  6  0.000  0.053  0.001  0.054
  7  0.000  0.053  0.001  0.054
  8  0.000  0.053  0.001  0.054
tot  0.248  0.213  0.018  0.478
 
band  26 # energy   -2.17231007 # occ.  2.00000000
 
ion      s      p      d    tot
  1  0.100  0.000  0.003  0.103
  2  0.100  0.000  0.003  0.103
  3  0.023  0.000  0.004  0.027
  4  0.023  0.000  0.004  0.027
  5  0.000  0.053  0.001  0.054
  6  0.000  0.053  0.001  0.054
  7  0.000  0.053  0.001  0.054
  8  0.000  0.053  0.001  0.054
tot  0.248  0.213  0.018  0.478
 
band  27 # energy   -1.80072207 # occ.  2.00000000
 
ion      s      p      d    tot
  1  0.055  0.001  0.010  0.065
  2  0.055  0.001  0.010  0.065
  3  0.055  0.001  0.010  0.065
  4  0.055  0.001  0.010  0.065
  5  0.007  0.053  0.001  0.061
  6  0.007  0.053  0.001  0.061
  7  0.007  0.053  0.001  0.061
  8  0.007  0.053  0.001  0.061
tot  0.247  0.215  0.041  0.503
 
band  28 # energy   -0.09631559 # occ.  2.00000000
 
ion      s      p      d    tot
  1  0.001  0.016  0.006  0.024
  2  0.001  0.016  0.006  0.024
  3  0.001  0.016  0.006  0.023
  4  0.001  0.016  0.006  0.023
  5  0.000  0.088  0.000  0.088
  6  0.000  0.088  0.000  0.088
  7  0.000  0.088  0.000  0.088
  8  0.000  0.088  0.000  0.088
tot  0.003  0.416  0.026  0.445
 
band  29 # energy   -0.09631559 # occ.  2.00000000
 
ion      s      p      d    tot
  1  0.001  0.016  0.006  0.023
  2  0.001  0.016  0.006  0.023
  3  0.001  0.016  0.006  0.024
  4  0.001  0.016  0.006  0.024
  5  0.000  0.088  0.000  0.088
  6  0.000  0.088  0.000  0.088
  7  0.000  0.088  0.000  0.088
  8  0.000  0.088  0.000  0.088
tot  0.003  0.416  0.026  0.445
 
band  30 # energy   -0.02709698 # occ.  2.00000000
 
ion      s      p      d    tot
  1  0.000  0.019  0.003  0.022
  2  0.000  0.019  0.003  0.022
  3  0.000  0.019  0.003  0.022
  4  0.000  0.019  0.003  0.022
  5  0.000  0.101  0.000  0.102
  6  0.000  0.074  0.000  0.074
  7  0.000  0.074  0.000  0.074
  8  0.000  0.101  0.000  0.102
tot  0.000  0.426  0.012  0.439
 
band  31 # energy   -0.02709698 # occ.  2.00000000
 
ion      s      p      d    tot
  1  0.000  0.019  0.003  0.022
  2  0.000  0.019  0.003  0.022
  3  0.000  0.019  0.003  0.022
  4  0.000  0.019  0.003  0.022
  5  0.000  0.074  0.000  0.074
  6  0.000  0.101  0.000  0.102
  7  0.000  0.101  0.000  0.102
  8  0.000  0.074  0.000  0.074
tot  0.000  0.426  0.012  0.439
 
band  32 # energy    0.30965194 # occ.  2.00000000
 
ion      s      p      d    tot
  1  0.000  0.017  0.005  0.023