   2   2   1   0
  0.3405476E+02  0.4583961E-09  0.4583961E-09  0.4583961E-09  0.5000000E-15
  1.000000000000000E-004
  CAR 
 Name                                    
     15.72221130    -10.13392151  301      2.37398273      1.00000000
    -10.134  0.0000E+00  0.0000E+00
    -10.048  0.0000E+00  0.0000E+00
     -9.962  0.0000E+00  0.0000E+00
     -9.875  0.0000E+00  0.0000E+00
     -9.789  0.0000E+00  0.0000E+00
     -9.703  0.0000E+00  0.0000E+00
     -9.617  0.0000E+00  0.0000E+00
     -9.531  0.0000E+00  0.0000E+00
     -9.444  0.0000E+00  0.0000E+00
     -9.358  0.0000E+00  0.0000E+00
     -9.272  0.0000E+00  0.0000E+00
     -9.186  0.0000E+00  0.0000E+00
     -9.100  0.0000E+00  0.0000E+00
     -9.013  0.4711E-15  0.4061E-16
     -8.927  0.1074E+00  0.9259E-02
     -8.841  0.8238E+00  0.8026E-01
     -8.755  0.6442E+00  0.1389E+00
     -8.669  0.1289E+01  0.2500E+00
     -8.583  0.3438E+01  0.5463E+00
     -8.496  0.7498E+01  0.1193E+01
     -8.410  0.6590E+01  0.1874E+01
     -8.324  0.1465E+01  0.2000E+01
     -8.238  0.0000E+00  0.2000E+01
     -8.152  0.0000E+00  0.2000E+01
     -8.065  0.0000E+00  0.2000E+01
     -7.979  0.0000E+00  0.2000E+01
     -7.893  0.0000E+00  0.2000E+01
     -7.807  0.0000E+00  0.2000E+01
     -7.721  0.0000E+00  0.2000E+01
     -7.634  0.0000E+00  0.2000E+01
     -7.548  0.0000E+00  0.2000E+01
     -7.462  0.0000E+00  0.2000E+01
     -7.376  0.0000E+00  0.2000E+01
     -7.290  0.0000E+00  0.2000E+01
     -7.204  0.0000E+00  0.2000E+01
     -7.117  0.0000E+00  0.2000E+01
     -7.031  0.0000E+00  0.2000E+01
     -6.945  0.0000E+00  0.2000E+01
     -6.859  0.0000E+00  0.2000E+01
     -6.773  0.0000E+00  0.2000E+01
     -6.686  0.0000E+00  0.2000E+01
     -6.600  0.0000E+00  0.2000E+01
     -6.514  0.0000E+00  0.2000E+01
     -6.428  0.0000E+00  0.2000E+01
     -6.342  0.0000E+00  0.2000E+01
     -6.256  0.0000E+00  0.2000E+01
     -6.169  0.0000E+00  0.2000E+01
     -6.083  0.0000E+00  0.2000E+01
     -5.997  0.0000E+00  0.2000E+01
     -5.911  0.0000E+00  0.2000E+01
     -5.825  0.2941E+00  0.2025E+01
     -5.738  0.2308E+02  0.4021E+01
     -5.652  0.2288E+02  0.6192E+01
     -5.566  0.1726E+02  0.7710E+01
     -5.480  0.3040E+02  0.1050E+02
     -5.394  0.2032E+00  0.1056E+02
     -5.307  0.6643E-02  0.1060E+02
     -5.221  0.5424E+01  0.1107E+02
     -5.135  0.4621E+01  0.1148E+02
     -5.049  0.4192E+01  0.1189E+02
     -4.963  0.1287E+01  0.1200E+02
     -4.877  0.0000E+00  0.1200E+02
     -4.790  0.0000E+00  0.1200E+02
     -4.704  0.0000E+00  0.1200E+02
     -4.618  0.0000E+00  0.1200E+02
     -4.532  0.0000E+00  0.1200E+02
     -4.446  0.0000E+00  0.1200E+02
     -4.359  0.0000E+00  0.1200E+02
     -4.273  0.0000E+00  0.1200E+02
     -4.187  0.0000E+00  0.1200E+02
     -4.101  0.0000E+00  0.1200E+02
     -4.015  0.0000E+00  0.1200E+02
     -3.928  0.0000E+00  0.1200E+02
     -3.842  0.0000E+00  0.1200E+02
     -3.756  0.0000E+00  0.1200E+02
     -3.670  0.0000E+00  0.1200E+02
     -3.584  0.0000E+00  0.1200E+02
     -3.498  0.0000E+00  0.1200E+02
     -3.411  0.0000E+00  0.1200E+02
     -3.325  0.0000E+00  0.1200E+02
     -3.239  0.0000E+00  0.1200E+02
     -3.153  0.0000E+00  0.1200E+02
     -3.067  0.0000E+00  0.1200E+02
     -2.980  0.0000E+00  0.1200E+02
     -2.894  0.0000E+00  0.1200E+02
     -2.808  0.0000E+00  0.1200E+02
     -2.722  0.0000E+00  0.1200E+02
     -2.636  0.0000E+00  0.1200E+02
     -2.549  0.0000E+00  0.1200E+02
     -2.463  0.0000E+00  0.1200E+02
     -2.377  0.0000E+00  0.1200E+02
     -2.291  0.5249E-11  0.1200E+02
     -2.205  0.4297E+00  0.1204E+02
     -2.119  0.2441E-01  0.1204E+02
     -2.032  0.8489E+00  0.1211E+02
     -1.946  0.6354E+01  0.1266E+02
     -1.860  0.2578E+01  0.1295E+02
     -1.774  0.7496E-02  0.1295E+02
     -1.688  0.2571E+01  0.1318E+02
     -1.601  0.6143E-02  0.1318E+02
     -1.515  0.2572E+01  0.1340E+02
     -1.429  0.1526E-10  0.1340E+02
     -1.343  0.8595E+00  0.1347E+02
     -1.257  0.5677E+00  0.1352E+02
     -1.170  0.0000E+00  0.1353E+02
     -1.084  0.0000E+00  0.1353E+02
     -0.998  0.0000E+00  0.1353E+02
     -0.912  0.2017E+01  0.1370E+02
     -0.826  0.0000E+00  0.1375E+02
     -0.740  0.0000E+00  0.1375E+02
     -0.653  0.0000E+00  0.1375E+02
     -0.567  0.0000E+00  0.1375E+02
     -0.481  0.1289E+01  0.1386E+02
     -0.395  0.1285E+01  0.1397E+02
     -0.309  0.0000E+00  0.1397E+02
     -0.222  0.3626E-07  0.1397E+02
     -0.136  0.2578E+01  0.1419E+02
     -0.050  0.7995E-11  0.1419E+02
      0.036  0.1348E+01  0.1431E+02
      0.122  0.3868E+01  0.1464E+02
      0.209  0.2519E+01  0.1486E+02
      0.295  0.7156E-16  0.1486E+02
      0.381  0.6446E+00  0.1492E+02
      0.467  0.2757E+01  0.1515E+02
      0.553  0.1381E+01  0.1527E+02
      0.639  0.7673E+01  0.1593E+02
      0.726  0.5600E+00  0.1598E+02
      0.812  0.0000E+00  0.1605E+02
      0.898  0.2790E+00  0.1607E+02
      0.984  0.4801E+01  0.1648E+02
      1.070  0.3157E-05  0.1649E+02
      1.157  0.5145E+01  0.1693E+02
      1.243  0.2575E+01  0.1716E+02
      1.329  0.0000E+00  0.1716E+02
      1.415  0.1409E-03  0.1716E+02
      1.501  0.3438E+01  0.1745E+02
      1.588  0.5785E-11  0.1745E+02
      1.674  0.3008E+01  0.1771E+02
      1.760  0.0000E+00  0.1771E+02
      1.846  0.4294E-15  0.1771E+02
      1.932  0.1289E+01  0.1782E+02
      2.018  0.2296E+00  0.1784E+02
      2.105  0.1489E+01  0.1797E+02
      2.191  0.0000E+00  0.1797E+02
      2.277  0.3189E+00  0.1800E+02
      2.363  0.0000E+00  0.1800E+02
      2.449  0.0000E+00  0.1800E+02
      2.536  0.0000E+00  0.1800E+02
      2.622  0.0000E+00  0.1800E+02
      2.708  0.0000E+00  0.1800E+02
      2.794  0.0000E+00  0.1800E+02
      2.880  0.2638E-02  0.1800E+02
      2.967  0.1048E+00  0.1801E+02
      3.053  0.0000E+00  0.1801E+02
      3.139  0.0000E+00  0.1801E+02
      3.225  0.0000E+00  0.1801E+02
      3.311  0.0000E+00  0.1801E+02
      3.397  0.0000E+00  0.1801E+02
      3.484  0.0000E+00  0.1801E+02
      3.570  0.0000E+00  0.1801E+02
      3.656  0.0000E+00  0.1801E+02
      3.742  0.0000E+00  0.1801E+02
      3.828  0.0000E+00  0.1801E+02
      3.915  0.1387E-10  0.1801E+02
      4.001  0.4515E+00  0.1805E+02
      4.087  0.1681E+01  0.1819E+02
      4.173  0.0000E+00  0.1819E+02
      4.259  0.0000E+00  0.1819E+02
      4.346  0.0000E+00  0.1819E+02
      4.432  0.0000E+00  0.1819E+02
      4.518  0.0000E+00  0.1819E+02
      4.604  0.0000E+00  0.1819E+02
      4.690  0.6305E+00  0.1825E+02
      4.776  0.3205E+00  0.1828E+02
      4.863  0.1713E+01  0.1843E+02
      4.949  0.2853E+01  0.1867E+02
      5.035  0.5956E+01  0.1921E+02
      5.121  0.0000E+00  0.1936E+02
      5.207  0.1243E+01  0.1947E+02
      5.294  0.2999E+00  0.1950E+02
      5.380  0.0000E+00  0.1953E+02
      5.466  0.0000E+00  0.1953E+02
      5.552  0.0000E+00  0.1953E+02
      5.638  0.0000E+00  0.1953E+02
      5.725  0.8364E-05  0.1953E+02
      5.811  0.2578E+01  0.1975E+02
      5.897  0.6529E+01  0.2031E+02
      5.983  0.1258E+01  0.2047E+02
      6.069  0.0000E+00  0.2047E+02
      6.155  0.1975E-05  0.2047E+02
      6.242  0.2578E+01  0.2069E+02
      6.328  0.2578E+01  0.2092E+02
      6.414  0.0000E+00  0.2092E+02
      6.500  0.0000E+00  0.2092E+02
      6.586  0.0000E+00  0.2092E+02
      6.673  0.0000E+00  0.2092E+02
      6.759  0.1369E+01  0.2103E+02
      6.845  0.2515E+01  0.2136E+02
      6.931  0.8591E+00  0.2157E+02
      7.017  0.0000E+00  0.2157E+02
      7.104  0.2957E+01  0.2183E+02
      7.190  0.0000E+00  0.2194E+02
      7.276  0.1488E+00  0.2196E+02
      7.362  0.3207E+01  0.2223E+02
      7.448  0.4168E+01  0.2260E+02
      7.534  0.0000E+00  0.2261E+02
      7.621  0.1786E-03  0.2261E+02
      7.707  0.1293E+01  0.2272E+02
      7.793  0.1443E+01  0.2285E+02
      7.879  0.4996E+01  0.2328E+02
      7.965  0.2578E+01  0.2350E+02
      8.052  0.8588E-15  0.2350E+02
      8.138  0.2578E+01  0.2372E+02
      8.224  0.0000E+00  0.2372E+02
      8.310  0.2552E+01  0.2394E+02
      8.396  0.7860E+00  0.2401E+02
      8.482  0.1291E+00  0.2403E+02
      8.569  0.2449E+01  0.2424E+02
      8.655  0.0000E+00  0.2424E+02
      8.741  0.2565E+01  0.2446E+02
      8.827  0.2090E+00  0.2448E+02
      8.913  0.1080E+01  0.2457E+02
      9.000  0.3886E-02  0.2457E+02
      9.086  0.1286E+01  0.2469E+02
      9.172  0.5586E+01  0.2517E+02
      9.258  0.4284E-12  0.2517E+02
      9.344  0.6446E+00  0.2522E+02
      9.431  0.2350E+01  0.2542E+02
      9.517  0.7385E+00  0.2551E+02
      9.603  0.2588E+01  0.2573E+02
      9.689  0.2307E+01  0.2593E+02
      9.775  0.0000E+00  0.2595E+02
      9.861  0.1266E+00  0.2596E+02
      9.948  0.3741E+01  0.2629E+02
     10.034  0.5003E+00  0.2633E+02
     10.120  0.8642E+00  0.2658E+02
     10.206  0.8085E+00  0.2681E+02
     10.292  0.2204E-13  0.2681E+02
     10.379  0.2578E+01  0.2703E+02
     10.465  0.1079E-09  0.2703E+02
     10.551  0.8595E+00  0.2710E+02
     10.637  0.8425E+00  0.2717E+02
     10.723  0.2169E+01  0.2747E+02
     10.810  0.4253E+00  0.2751E+02
     10.896  0.4438E-06  0.2751E+02
     10.982  0.2901E+01  0.2776E+02
     11.068  0.1700E+01  0.2791E+02
     11.154  0.1290E+01  0.2802E+02
     11.240  0.3418E+01  0.2831E+02
     11.327  0.3868E+01  0.2869E+02
     11.413  0.0000E+00  0.2869E+02
     11.499  0.0000E+00  0.2869E+02
     11.585  0.1964E+00  0.2870E+02
     11.671  0.0000E+00  0.2870E+02
     11.758  0.1201E+01  0.2881E+02
     11.844  0.6446E+00  0.2887E+02
     11.930  0.3897E+01  0.2921E+02
     12.016  0.2549E+01  0.2943E+02
     12.102  0.9970E-03  0.2943E+02
     12.189  0.2577E+01  0.2965E+02
     12.275  0.0000E+00  0.2965E+02
     12.361  0.0000E+00  0.2965E+02
     12.447  0.2528E+01  0.2987E+02
     12.533  0.4082E+01  0.3022E+02
     12.619  0.3363E+01  0.3051E+02
     12.706  0.0000E+00  0.3067E+02
     12.792  0.0000E+00  0.3067E+02
     12.878  0.5885E+00  0.3072E+02
     12.964  0.0000E+00  0.3089E+02
     13.050  0.3151E+00  0.3092E+02
     13.137  0.0000E+00  0.3092E+02
     13.223  0.2863E-14  0.3092E+02
     13.309  0.1289E+01  0.3103E+02
     13.395  0.2495E+00  0.3105E+02
     13.481  0.2336E+01  0.3125E+02
     13.568  0.1282E+01  0.3136E+02
     13.654  0.3810E+01  0.3169E+02
     13.740  0.5997E-01  0.3181E+02
     13.826  0.2623E+00  0.3183E+02
     13.912  0.0000E+00  0.3183E+02
     13.998  0.0000E+00  0.3183E+02
     14.085  0.3257E+00  0.3186E+02
     14.171  0.0000E+00  0.3189E+02
     14.257  0.5725E-14  0.3189E+02
     14.343  0.1289E+01  0.3200E+02
     14.429  0.0000E+00  0.3200E+02
     14.516  0.0000E+00  0.3200E+02
     14.602  0.0000E+00  0.3200E+02
     14.688  0.0000E+00  0.3200E+02
     14.774  0.0000E+00  0.3200E+02
     14.860  0.0000E+00  0.3200E+02
     14.947  0.0000E+00  0.3200E+02
     15.033  0.0000E+00  0.3200E+02
     15.119  0.0000E+00  0.3200E+02
     15.205  0.0000E+00  0.3200E+02
     15.291  0.0000E+00  0.3200E+02
     15.377  0.0000E+00  0.3200E+02
     15.464  0.0000E+00  0.3200E+02
     15.550  0.0000E+00  0.3200E+02
     15.636  0.0000E+00  0.3200E+02
     15.722  0.0000E+00  0.3200E+02
     15.72221130    -10.13392151  301      2.37398273      1.00000000
    -10.134  0.0000E+00  0.0000E+00  0.0000E+00
    -10.048  0.0000E+00  0.0000E+00  0.0000E+00
     -9.962  0.0000E+00  0.0000E+00  0.0000E+00
     -9.875  0.0000E+00  0.0000E+00  0.0000E+00
     -9.789  0.0000E+00  0.0000E+00  0.0000E+00
     -9.703  0.0000E+00  0.0000E+00  0.0000E+00
     -9.617  0.0000E+00  0.0000E+00  0.0000E+00
     -9.531  0.0000E+00  0.0000E+00  0.0000E+00
     -9.444  0.0000E+00  0.0000E+00  0.0000E+00
     -9.358  0.0000E+00  0.0000E+00  0.0000E+00
     -9.272  0.0000E+00  0.0000E+00  0.0000E+00
     -9.186  0.0000E+00  0.0000E+00  0.0000E+00
     -9.100  0.0000E+00  0.0000E+00  0.0000E+00
     -9.013  0.2976E-16  0.2627E-27  0.1235E-26
     -8.927  0.6787E-02  0.5990E-13  0.2816E-12
     -8.841  0.4393E-01  0.2073E-02  0.1278E-01
     -8.755  0.3214E-01  0.2183E-02  0.1358E-01
     -8.669  0.4979E-01  0.7713E-02  0.5439E-01
     -8.583  0.1051E+00  0.2661E-01  0.2012E+00
     -8.496  0.1160E+00  0.8110E-01  0.6953E+00
     -8.410  0.2900E-01  0.8613E-01  0.7845E+00
     -8.324  0.1914E-12  0.2044E-01  0.1903E+00
     -8.238  0.0000E+00  0.0000E+00  0.0000E+00
     -8.152  0.0000E+00  0.0000E+00  0.0000E+00
     -8.065  0.0000E+00  0.0000E+00  0.0000E+00
     -7.979  0.0000E+00  0.0000E+00  0.0000E+00
     -7.893  0.0000E+00  0.0000E+00  0.0000E+00
     -7.807  0.0000E+00  0.0000E+00  0.0000E+00
     -7.721  0.0000E+00  0.0000E+00  0.0000E+00
     -7.634  0.0000E+00  0.0000E+00  0.0000E+00
     -7.548  0.0000E+00  0.0000E+00  0.0000E+00
     -7.462  0.0000E+00  0.0000E+00  0.0000E+00
     -7.376  0.0000E+00  0.0000E+00  0.0000E+00
     -7.290  0.0000E+00  0.0000E+00  0.0000E+00
     -7.204  0.0000E+00  0.0000E+00  0.0000E+00
     -7.117  0.0000E+00  0.0000E+00  0.0000E+00
     -7.031  0.0000E+00  0.0000E+00  0.0000E+00
     -6.945  0.0000E+00  0.0000E+00  0.0000E+00
     -6.859  0.0000E+00  0.0000E+00  0.0000E+00
     -6.773  0.0000E+00  0.0000E+00  0.0000E+00
     -6.686  0.0000E+00  0.0000E+00  0.0000E+00
     -6.600  0.0000E+00  0.0000E+00  0.0000E+00
     -6.514  0.0000E+00  0.0000E+00  0.0000E+00
     -6.428  0.0000E+00  0.0000E+00  0.0000E+00
     -6.342  0.0000E+00  0.0000E+00  0.0000E+00
     -6.256  0.0000E+00  0.0000E+00  0.0000E+00
     -6.169  0.0000E+00  0.0000E+00  0.0000E+00
     -6.083  0.0000E+00  0.0000E+00  0.0000E+00
     -5.997  0.0000E+00  0.0000E+00  0.0000E+00
     -5.911  0.0000E+00  0.0000E+00  0.0000E+00
     -5.825  0.4554E-15  0.1244E-03  0.2648E+00
     -5.738  0.1055E-01  0.1131E-01  0.2097E+02
     -5.652  0.5471E-02  0.1272E-01  0.2104E+02
     -5.566  0.2742E-01  0.8418E-03  0.1598E+02
     -5.480  0.2846E-01  0.1688E-02  0.2855E+02
     -5.394  0.2144E-02  0.2574E-03  0.1717E+00
     -5.307  0.6946E-04  0.9353E-05  0.5605E-02
     -5.221  0.5553E-01  0.8654E-02  0.4559E+01
     -5.135  0.2971E-01  0.1206E-01  0.3864E+01
     -5.049  0.1528E-01  0.1358E-01  0.3489E+01
     -4.963  0.5568E-15  0.5596E-02  0.1062E+01
     -4.877  0.0000E+00  0.0000E+00  0.0000E+00
     -4.790  0.0000E+00  0.0000E+00  0.0000E+00
     -4.704  0.0000E+00  0.0000E+00  0.0000E+00
     -4.618  0.0000E+00  0.0000E+00  0.0000E+00
     -4.532  0.0000E+00  0.0000E+00  0.0000E+00
     -4.446  0.0000E+00  0.0000E+00  0.0000E+00
     -4.359  0.0000E+00  0.0000E+00  0.0000E+00
     -4.273  0.0000E+00  0.0000E+00  0.0000E+00
     -4.187  0.0000E+00  0.0000E+00  0.0000E+00
     -4.101  0.0000E+00  0.0000E+00  0.0000E+00
     -4.015  0.0000E+00  0.0000E+00  0.0000E+00
     -3.928  0.0000E+00  0.0000E+00  0.0000E+00
     -3.842  0.0000E+00  0.0000E+00  0.0000E+00
     -3.756  0.0000E+00  0.0000E+00  0.0000E+00
     -3.670  0.0000E+00  0.0000E+00  0.0000E+00
     -3.584  0.0000E+00  0.0000E+00  0.0000E+00
     -3.498  0.0000E+00  0.0000E+00  0.0000E+00
     -3.411  0.0000E+00  0.0000E+00  0.0000E+00
     -3.325  0.0000E+00  0.0000E+00  0.0000E+00
     -3.239  0.0000E+00  0.0000E+00  0.0000E+00
     -3.153  0.0000E+00  0.0000E+00  0.0000E+00
     -3.067  0.0000E+00  0.0000E+00  0.0000E+00
     -2.980  0.0000E+00  0.0000E+00  0.0000E+00
     -2.894  0.0000E+00  0.0000E+00  0.0000E+00
     -2.808  0.0000E+00  0.0000E+00  0.0000E+00
     -2.722  0.0000E+00  0.0000E+00  0.0000E+00
     -2.636  0.0000E+00  0.0000E+00  0.0000E+00
     -2.549  0.0000E+00  0.0000E+00  0.0000E+00
     -2.463  0.0000E+00  0.0000E+00  0.0000E+00
     -2.377  0.0000E+00  0.0000E+00  0.0000E+00
     -2.291  0.8710E-12  0.1379E-12  0.4916E-15
     -2.205  0.7132E-01  0.1129E-01  0.4025E-04
     -2.119  0.5994E-02  0.2521E-14  0.8385E-03
     -2.032  0.1839E+00  0.9014E-02  0.1698E-01
     -1.946  0.1407E+01  0.7280E-01  0.6653E-01
     -1.860  0.6067E+00  0.1042E-01  0.8437E-01
     -1.774  0.1316E-02  0.1654E-03  0.1977E-03
     -1.688  0.4513E+00  0.5673E-01  0.6782E-01
     -1.601  0.1274E-02  0.7060E-04  0.2427E-03
     -1.515  0.5336E+00  0.2956E-01  0.1016E+00
     -1.429  0.2210E-11  0.4283E-12  0.6429E-12
     -1.343  0.1244E+00  0.2412E-01  0.3621E-01
     -1.257  0.1166E+00  0.3622E-02  0.3696E-01
     -1.170  0.0000E+00  0.0000E+00  0.0000E+00
     -1.084  0.0000E+00  0.0000E+00  0.0000E+00
     -0.998  0.0000E+00  0.0000E+00  0.0000E+00
     -0.912  0.3285E+00  0.4005E-01  0.1155E+00
     -0.826  0.0000E+00  0.0000E+00  0.0000E+00
     -0.740  0.0000E+00  0.0000E+00  0.0000E+00
     -0.653  0.0000E+00  0.0000E+00  0.0000E+00
     -0.567  0.0000E+00  0.0000E+00  0.0000E+00
     -0.481  0.1944E+00  0.2802E-01  0.7758E-01
     -0.395  0.6229E-02  0.9237E-01  0.3841E-01
     -0.309  0.0000E+00  0.0000E+00  0.0000E+00
     -0.222  0.6116E-09  0.2465E-08  0.1212E-08
     -0.136  0.4349E-01  0.1753E+00  0.8617E-01
     -0.050  0.1862E-13  0.5484E-12  0.3204E-12
      0.036  0.3372E-02  0.9282E-01  0.5322E-01
      0.122  0.1667E-01  0.3018E+00  0.8166E-01
      0.209  0.3469E-01  0.1769E+00  0.8130E-01
      0.295  0.9288E-32  0.5768E-17  0.1335E-17
      0.381  0.2117E-12  0.5196E-01  0.1202E-01
      0.467  0.1015E+00  0.1642E+00  0.1160E+00
      0.553  0.1778E+00  0.3059E-01  0.8796E-01
      0.639  0.9264E-01  0.5419E+00  0.2643E+00
      0.726  0.2803E-16  0.4200E-01  0.1832E-01
      0.812  0.0000E+00  0.0000E+00  0.0000E+00
      0.898  0.5778E-03  0.1995E-01  0.1072E-01
      0.984  0.2639E-01  0.3305E+00  0.1988E+00
      1.070  0.7158E-07  0.1837E-06  0.1581E-06
      1.157  0.5846E-01  0.3272E+00  0.2381E+00
      1.243  0.1135E-13  0.1696E+00  0.1226E+00
      1.329  0.0000E+00  0.0000E+00  0.0000E+00
      1.415  0.3197E-19  0.8778E-05  0.7180E-05
      1.501  0.1131E-14  0.2139E+00  0.1747E+00
      1.588  0.2426E-26  0.3240E-12  0.3334E-12
      1.674  0.9037E-15  0.1658E+00  0.1782E+00
      1.760  0.0000E+00  0.0000E+00  0.0000E+00
      1.846  0.5499E-31  0.2001E-16  0.2845E-16
      1.932  0.1651E-15  0.6006E-01  0.8541E-01
      2.018  0.5938E-16  0.9150E-02  0.1667E-01
      2.105  0.3852E-15  0.5935E-01  0.1081E+00
      2.191  0.0000E+00  0.0000E+00  0.0000E+00
      2.277  0.4170E-14  0.8698E-02  0.2615E-01
      2.363  0.0000E+00  0.0000E+00  0.0000E+00
      2.449  0.0000E+00  0.0000E+00  0.0000E+00
      2.536  0.0000E+00  0.0000E+00  0.0000E+00
      2.622  0.0000E+00  0.0000E+00  0.0000E+00
      2.708  0.0000E+00  0.0000E+00  0.0000E+00
      2.794  0.0000E+00  0.0000E+00  0.0000E+00
      2.880  0.8064E-03  0.1462E-16  0.2222E-16
      2.967  0.3203E-01  0.5807E-15  0.8826E-15
      3.053  0.0000E+00  0.0000E+00  0.0000E+00
      3.139  0.0000E+00  0.0000E+00  0.0000E+00
      3.225  0.0000E+00  0.0000E+00  0.0000E+00
      3.311  0.0000E+00  0.0000E+00  0.0000E+00
      3.397  0.0000E+00  0.0000E+00  0.0000E+00
      3.484  0.0000E+00  0.0000E+00  0.0000E+00
      3.570  0.0000E+00  0.0000E+00  0.0000E+00
      3.656  0.0000E+00  0.0000E+00  0.0000E+00
      3.742  0.0000E+00  0.0000E+00  0.0000E+00
      3.828  0.0000E+00  0.0000E+00  0.0000E+00
      3.915  0.3388E-11  0.4278E-12  0.1377E-12
      4.001  0.1097E+00  0.1396E-01  0.4386E-02
      4.087  0.3774E+00  0.5971E-01  0.9260E-02
      4.173  0.0000E+00  0.0000E+00  0.0000E+00
      4.259  0.0000E+00  0.0000E+00  0.0000E+00
      4.346  0.0000E+00  0.0000E+00  0.0000E+00
      4.432  0.0000E+00  0.0000E+00  0.0000E+00
      4.518  0.0000E+00  0.0000E+00  0.0000E+00
      4.604  0.0000E+00  0.0000E+00  0.0000E+00
      4.690  0.1264E+00  0.5534E-02  0.1019E-01
      4.776  0.2286E-13  0.3058E-01  0.1182E-01
      4.863  0.3561E+00  0.5998E-01  0.2077E-01
      4.949  0.5108E+00  0.1278E+00  0.5266E-01
      5.035  0.9780E+00  0.2776E+00  0.1245E+00
      5.121  0.0000E+00  0.0000E+00  0.0000E+00
      5.207  0.1690E+00  0.6886E-01  0.3385E-01
      5.294  0.2687E-01  0.1578E-01  0.8488E-02
      5.380  0.0000E+00  0.0000E+00  0.0000E+00
      5.466  0.0000E+00  0.0000E+00  0.0000E+00
      5.552  0.0000E+00  0.0000E+00  0.0000E+00
      5.638  0.0000E+00  0.0000E+00  0.0000E+00
      5.725  0.1987E-05  0.8929E-07  0.1404E-06
      5.811  0.6126E+00  0.2753E-01  0.4327E-01
      5.897  0.9628E+00  0.3029E+00  0.1482E+00
      5.983  0.5552E-11  0.1004E+00  0.5108E-01
      6.069  0.0000E+00  0.0000E+00  0.0000E+00
      6.155  0.8961E-07  0.2511E-06  0.2481E-07
      6.242  0.1170E+00  0.3277E+00  0.3238E-01
      6.328  0.8897E-03  0.2911E+00  0.7138E-01
      6.414  0.0000E+00  0.0000E+00  0.0000E+00
      6.500  0.0000E+00  0.0000E+00  0.0000E+00
      6.586  0.0000E+00  0.0000E+00  0.0000E+00
      6.673  0.0000E+00  0.0000E+00  0.0000E+00
      6.759  0.9531E-03  0.1035E+00  0.4809E-01
      6.845  0.7823E-01  0.2851E+00  0.5724E-01
      6.931  0.4214E-01  0.1044E+00  0.1133E-01
      7.017  0.0000E+00  0.0000E+00  0.0000E+00
      7.104  0.3737E-01  0.3168E+00  0.8030E-01
      7.190  0.0000E+00  0.0000E+00  0.0000E+00
      7.276  0.1620E-01  0.2963E-02  0.2115E-02
      7.362  0.1241E+00  0.4337E+00  0.5198E-01
      7.448  0.2246E-03  0.5364E+00  0.1133E+00
      7.534  0.0000E+00  0.0000E+00  0.0000E+00
      7.621  0.5902E-06  0.2036E-04  0.3625E-05
      7.707  0.4260E-02  0.1477E+00  0.2620E-01
      7.793  0.1628E-14  0.2972E+00  0.1878E-01
      7.879  0.1125E-02  0.6578E+00  0.1446E+00
      7.965  0.1227E+00  0.2591E+00  0.4253E-01
      8.052  0.2945E-29  0.1256E-15  0.2738E-16
      8.138  0.8841E-14  0.3770E+00  0.8221E-01
      8.224  0.0000E+00  0.0000E+00  0.0000E+00
      8.310  0.3740E-14  0.4511E+00  0.5668E-01
      8.396  0.2680E-01  0.4358E-01  0.1228E-01
      8.482  0.4480E-02  0.8225E-02  0.3089E-02
      8.569  0.8500E-01  0.1561E+00  0.5861E-01
      8.655  0.0000E+00  0.0000E+00  0.0000E+00
      8.741  0.5400E-01  0.2062E+00  0.7766E-01
      8.827  0.5730E-15  0.2842E-01  0.5208E-02
      8.913  0.2961E-14  0.1469E+00  0.2692E-01
      9.000  0.2370E-15  0.6057E-03  0.7951E-04
      9.086  0.1504E-04  0.2004E+00  0.2631E-01
      9.172  0.1539E+00  0.4249E+00  0.1611E+00
      9.258  0.2097E-15  0.2993E-14  0.2759E-13
      9.344  0.3156E-03  0.4504E-02  0.4151E-01
      9.431  0.6023E-03  0.2426E+00  0.8990E-01
      9.517  0.5131E-01  0.2871E-02  0.2218E-01
      9.603  0.4090E-02  0.4542E+00  0.6836E-01
      9.689  0.6733E-03  0.4071E+00  0.5283E-01
      9.775  0.0000E+00  0.0000E+00  0.0000E+00
      9.861  0.1867E-15  0.1897E-01  0.3120E-02
      9.948  0.5852E-14  0.3705E+00  0.1615E+00
     10.034  0.5904E-02  0.3568E-01  0.2111E-01
     10.120  0.4444E-02  0.1158E+00  0.3374E-01
     10.206  0.6906E-01  0.1252E-01  0.1089E-01
     10.292  0.2769E-15  0.7624E-15  0.9145E-15
     10.379  0.3240E-01  0.8919E-01  0.1070E+00
     10.465  0.1288E-10  0.6522E-11  0.4207E-12
     10.551  0.1026E+00  0.5195E-01  0.3351E-02
     10.637  0.1895E-09  0.2036E-01  0.6070E-01
     10.723  0.5188E-03  0.9052E-01  0.1452E+00
     10.810  0.4926E-01  0.3794E-03  0.8514E-04
     10.896  0.4117E-08  0.3336E-07  0.1261E-07
     10.982  0.4901E-01  0.1938E+00  0.7508E-01
     11.068  0.1166E-11  0.6929E-01  0.1069E+00
     11.154  0.8782E-03  0.1218E+00  0.5845E-01
     11.240  0.4402E-01  0.2661E+00  0.1437E+00
     11.327  0.1692E+00  0.5018E+00  0.5559E-01
     11.413  0.0000E+00  0.0000E+00  0.0000E+00
     11.499  0.0000E+00  0.0000E+00  0.0000E+00
     11.585  0.1428E-09  0.7013E-09  0.1969E-01
     11.671  0.0000E+00  0.0000E+00  0.0000E+00
     11.758  0.2556E-02  0.1730E+00  0.4126E-01
     11.844  0.3631E-05  0.3072E-05  0.5721E-01
     11.930  0.2828E+00  0.2370E+00  0.6991E-01
     12.016  0.2167E-09  0.7327E-01  0.1618E+00
     12.102  0.5699E-04  0.3243E-04  0.2561E-04
     12.189  0.1473E+00  0.8384E-01  0.6622E-01
     12.275  0.0000E+00  0.0000E+00  0.0000E+00
     12.361  0.0000E+00  0.0000E+00  0.0000E+00
     12.447  0.2345E-04  0.3358E+00  0.1308E+00
     12.533  0.8055E-01  0.2073E+00  0.1471E+00
     12.619  0.1705E-03  0.2604E+00  0.1176E+00
     12.706  0.0000E+00  0.0000E+00  0.0000E+00
     12.792  0.0000E+00  0.0000E+00  0.0000E+00
     12.878  0.8628E-10  0.4572E-01  0.1846E-01
     12.964  0.0000E+00  0.0000E+00  0.0000E+00
     13.050  0.3344E-10  0.3345E-07  0.1755E-07
     13.137  0.0000E+00  0.0000E+00  0.0000E+00
     13.223  0.4008E-22  0.4284E-15  0.1089E-15
     13.309  0.1805E-07  0.1929E+00  0.4903E-01
     13.395  0.4432E-04  0.2742E-01  0.8851E-02
     13.481  0.4533E-03  0.2560E+00  0.8306E-01
     13.568  0.7039E-02  0.9280E-02  0.7982E-01
     13.654  0.4123E-01  0.4813E+00  0.1224E+00
     13.740  0.4525E-09  0.1746E-02  0.3634E-02
     13.826  0.1979E-08  0.7635E-02  0.1590E-01
     13.912  0.0000E+00  0.0000E+00  0.0000E+00
     13.998  0.0000E+00  0.0000E+00  0.0000E+00
     14.085  0.1934E-01  0.6346E-01  0.2087E-02
     14.171  0.0000E+00  0.0000E+00  0.0000E+00
     14.257  0.1450E-15  0.4345E-15  0.1461E-16
     14.343  0.3264E-01  0.9785E-01  0.3291E-02
     14.429  0.0000E+00  0.0000E+00  0.0000E+00
     14.516  0.0000E+00  0.0000E+00  0.0000E+00
     14.602  0.0000E+00  0.0000E+00  0.0000E+00
     14.688  0.0000E+00  0.0000E+00  0.0000E+00
     14.774  0.0000E+00  0.0000E+00  0.0000E+00
     14.860  0.0000E+00  0.0000E+00  0.0000E+00
     14.947  0.0000E+00  0.0000E+00  0.0000E+00
     15.033  0.0000E+00  0.0000E+00  0.0000E+00
     15.119  0.0000E+00  0.0000E+00  0.0000E+00
     15.205  0.0000E+00  0.0000E+00  0.0000E+00
     15.291  0.0000E+00  0.0000E+00  0.0000E+00
     15.377  0.0000E+00  0.0000E+00  0.0000E+00
     15.464  0.0000E+00  0.0000E+00  0.0000E+00
     15.550  0.0000E+00  0.0000E+00  0.0000E+00
     15.636  0.0000E+00  0.0000E+00  0.0000E+00
     15.722  0.0000E+00  0.0000E+00  0.0000E+00
     15.72221130    -10.13392151  301      2.37398273      1.00000000
    -10.134  0.0000E+00  0.0000E+00  0.0000E+00
    -10.048  0.0000E+00  0.0000E+00  0.0000E+00
     -9.962  0.0000E+00  0.0000E+00  0.0000E+00
     -9.875  0.0000E+00  0.0000E+00  0.0000E+00
     -9.789  0.0000E+00  0.0000E+00  0.0000E+00
     -9.703  0.0000E+00  0.0000E+00  0.0000E+00
     -9.617  0.0000E+00  0.0000E+00  0.0000E+00
     -9.531  0.0000E+00  0.0000E+00  0.0000E+00
     -9.444  0.0000E+00  0.0000E+00  0.0000E+00
     -9.358  0.0000E+00  0.0000E+00  0.0000E+00
     -9.272  0.0000E+00  0.0000E+00  0.0000E+00
     -9.186  0.0000E+00  0.0000E+00  0.0000E+00
     -9.100  0.0000E+00  0.0000E+00  0.0000E+00
     -9.013  0.2677E-15  0.3762E-27  0.3874E-27
     -8.927  0.6105E-01  0.8577E-13  0.8834E-13
     -8.841  0.4731E+00  0.1583E-03  0.1134E-05
     -8.755  0.3711E+00  0.1628E-03  0.2123E-06
     -8.669  0.7488E+00  0.3769E-03  0.4704E-05
     -8.583  0.2004E+01  0.9430E-03  0.1611E-04
     -8.496  0.4383E+01  0.1029E-02  0.4598E-04
     -8.410  0.3849E+01  0.2981E-03  0.1418E-04
     -8.324  0.8548E+00  0.2283E-08  0.8543E-06
     -8.238  0.0000E+00  0.0000E+00  0.0000E+00
     -8.152  0.0000E+00  0.0000E+00  0.0000E+00
     -8.065  0.0000E+00  0.0000E+00  0.0000E+00
     -7.979  0.0000E+00  0.0000E+00  0.0000E+00
     -7.893  0.0000E+00  0.0000E+00  0.0000E+00
     -7.807  0.0000E+00  0.0000E+00  0.0000E+00
     -7.721  0.0000E+00  0.0000E+00  0.0000E+00
     -7.634  0.0000E+00  0.0000E+00  0.0000E+00
     -7.548  0.0000E+00  0.0000E+00  0.0000E+00
     -7.462  0.0000E+00  0.0000E+00  0.0000E+00
     -7.376  0.0000E+00  0.0000E+00  0.0000E+00
     -7.290  0.0000E+00  0.0000E+00  0.0000E+00
     -7.204  0.0000E+00  0.0000E+00  0.0000E+00
     -7.117  0.0000E+00  0.0000E+00  0.0000E+00
     -7.031  0.0000E+00  0.0000E+00  0.0000E+00
     -6.945  0.0000E+00  0.0000E+00  0.0000E+00
     -6.859  0.0000E+00  0.0000E+00  0.0000E+00
     -6.773  0.0000E+00  0.0000E+00  0.0000E+00
     -6.686  0.0000E+00  0.0000E+00  0.0000E+00
     -6.600  0.0000E+00  0.0000E+00  0.0000E+00
     -6.514  0.0000E+00  0.0000E+00  0.0000E+00
     -6.428  0.0000E+00  0.0000E+00  0.0000E+00
     -6.342  0.0000E+00  0.0000E+00  0.0000E+00
     -6.256  0.0000E+00  0.0000E+00  0.0000E+00
     -6.169  0.0000E+00  0.0000E+00  0.0000E+00
     -6.083  0.0000E+00  0.0000E+00  0.0000E+00
     -5.997  0.0000E+00  0.0000E+00  0.0000E+00
     -5.911  0.0000E+00  0.0000E+00  0.0000E+00
     -5.825  0.2060E-13  0.6496E-02  0.2145E-03
     -5.738  0.9256E-02  0.4107E+00  0.2140E-01
     -5.652  0.3131E-02  0.3016E+00  0.2406E-01
     -5.566  0.3222E-01  0.7567E-01  0.1671E-01
     -5.480  0.7297E-01  0.3523E-01  0.1880E-01
     -5.394  0.8736E-02  0.1640E-02  0.2617E-03
     -5.307  0.3515E-03  0.5649E-04  0.4542E-05
     -5.221  0.3024E+00  0.4447E-01  0.3801E-02
     -5.135  0.3372E+00  0.1662E-01  0.3349E-02
     -5.049  0.3696E+00  0.7485E-02  0.1647E-02
     -4.963  0.1285E+00  0.7858E-04  0.4226E-03
     -4.877  0.0000E+00  0.0000E+00  0.0000E+00
     -4.790  0.0000E+00  0.0000E+00  0.0000E+00
     -4.704  0.0000E+00  0.0000E+00  0.0000E+00
     -4.618  0.0000E+00  0.0000E+00  0.0000E+00
     -4.532  0.0000E+00  0.0000E+00  0.0000E+00
     -4.446  0.0000E+00  0.0000E+00  0.0000E+00
     -4.359  0.0000E+00  0.0000E+00  0.0000E+00
     -4.273  0.0000E+00  0.0000E+00  0.0000E+00
     -4.187  0.0000E+00  0.0000E+00  0.0000E+00
     -4.101  0.0000E+00  0.0000E+00  0.0000E+00
     -4.015  0.0000E+00  0.0000E+00  0.0000E+00
     -3.928  0.0000E+00  0.0000E+00  0.0000E+00
     -3.842  0.0000E+00  0.0000E+00  0.0000E+00
     -3.756  0.0000E+00  0.0000E+00  0.0000E+00
     -3.670  0.0000E+00  0.0000E+00  0.0000E+00
     -3.584  0.0000E+00  0.0000E+00  0.0000E+00
     -3.498  0.0000E+00  0.0000E+00  0.0000E+00
     -3.411  0.0000E+00  0.0000E+00  0.0000E+00
     -3.325  0.0000E+00  0.0000E+00  0.0000E+00
     -3.239  0.0000E+00  0.0000E+00  0.0000E+00
     -3.153  0.0000E+00  0.0000E+00  0.0000E+00
     -3.067  0.0000E+00  0.0000E+00  0.0000E+00
     -2.980  0.0000E+00  0.0000E+00  0.0000E+00
     -2.894  0.0000E+00  0.0000E+00  0.0000E+00
     -2.808  0.0000E+00  0.0000E+00  0.0000E+00
     -2.722  0.0000E+00  0.0000E+00  0.0000E+00
     -2.636  0.0000E+00  0.0000E+00  0.0000E+00
     -2.549  0.0000E+00  0.0000E+00  0.0000E+00
     -2.463  0.0000E+00  0.0000E+00  0.0000E+00