    2    2    1    1
  0.3405476E+02  0.4583961E-09  0.4583961E-09  0.4583961E-09  0.5000000E-15
  1.000000000000000E-004
  CAR 
 Name                                    
     18    136     16
 
  0.0000000E+00  0.0000000E+00  0.0000000E+00  0.4629630E-02
    1       -8.958643   1.000000
    2       -5.830269   1.000000
    3       -5.830269   1.000000
    4       -5.830269   1.000000
    5       -5.552486   1.000000
    6       -5.552486   1.000000
    7        2.260703   1.000000
    8        2.260703   1.000000
    9        2.260703   1.000000
   10        2.894245   0.000000
   11        6.766274   0.000000
   12        6.766274   0.000000
   13        6.766274   0.000000
   14        9.508640   0.000000
   15       11.575572   0.000000
   16       11.575573   0.000000
 
  0.1666667E+00  0.0000000E+00  0.0000000E+00  0.3703704E-01
    1       -8.853337   1.000000
    2       -5.810451   1.000000
    3       -5.810451   1.000000
    4       -5.751818   1.000000
    5       -5.553843   1.000000
    6       -5.553843   1.000000
    7        0.476580   1.000000
    8        2.026307   1.000000
    9        2.026307   1.000000
   10        4.014582   0.000000
   11        6.868363   0.000000
   12        7.108615   0.000000
   13        7.108615   0.000000
   14       10.509532   0.000000
   15       10.641961   0.000000
   16       10.641961   0.000000
 
  0.3333333E+00  0.0000000E+00  0.0000000E+00  0.3703704E-01
    1       -8.639222   1.000000
    2       -5.776358   1.000000
    3       -5.776358   1.000000
    4       -5.549703   1.000000
    5       -5.549703   1.000000
    6       -5.478808   1.000000
    7       -1.382201   1.000000
    8        1.636124   1.000000
    9        1.636124   1.000000
   10        4.072333   0.000000
   11        7.391447   0.000000
   12        7.391447   0.000000
   13        8.386626   0.000000
   14       10.131086   0.000000
   15       11.051923   0.000000
   16       11.051923   0.000000
 
  0.5000000E+00  0.0000000E+00  0.0000000E+00  0.1851852E-01
    1       -8.532175   1.000000
    2       -5.763135   1.000000
    3       -5.763135   1.000000
    4       -5.543087   1.000000
    5       -5.543087   1.000000
    6       -5.223379   1.000000
    7       -2.243683   1.000000
    8        1.467110   1.000000
    9        1.467110   1.000000
   10        3.960772   0.000000
   11        7.352785   0.000000
   12        7.352785   0.000000
   13        9.144443   0.000000
   14       10.739699   0.000000
   15       12.480181   0.000000
   16       12.480181   0.000000
 
  0.1666667E+00  0.1666667E+00  0.0000000E+00  0.2777778E-01
    1       -8.818483   1.000000
    2       -5.790408   1.000000
    3       -5.790408   1.000000
    4       -5.755202   1.000000
    5       -5.562131   1.000000
    6       -5.544345   1.000000
    7        0.474222   1.000000
    8        1.638462   1.000000
    9        1.638462   1.000000
   10        4.676373   0.000000
   11        5.840217   0.000000
   12        7.726361   0.000000
   13        7.726361   0.000000
   14        9.308321   0.000000
   15       11.286140   0.000000
   16       11.814907   0.000000
 
  0.3333333E+00  0.1666667E+00  0.0000000E+00  0.1111111E+00
    1       -8.641240   1.000000
    2       -5.764427   1.000000
    3       -5.751697   1.000000
    4       -5.615209   1.000000
    5       -5.538207   1.000000
    6       -5.497253   1.000000
    7       -0.917414   1.000000
    8        1.103724   1.000000
    9        1.221403   1.000000
   10        5.037908   0.000000
   11        6.189433   0.000000
   12        7.857383   0.000000
   13        8.293728   0.000000
   14       10.039966   0.000000
   15       11.872965   0.000000
   16       11.946061   0.000000
 
  0.5000000E+00  0.1666667E+00  0.0000000E+00  0.1111111E+00
    1       -8.500138   1.000000
    2       -5.748656   1.000000
    3       -5.735160   1.000000
    4       -5.570911   1.000000
    5       -5.539961   1.000000
    6       -5.202021   1.000000
    7       -2.025385   1.000000
    8        0.567588   1.000000
    9        1.138216   1.000000
   10        4.941010   0.000000
   11        6.845168   0.000000
   12        8.108700   0.000000
   13        8.723000   0.000000
   14       10.931778   0.000000
   15       12.126127   0.000000
   16       12.574908   0.000000
 
 -0.3333333E+00  0.1666667E+00  0.0000000E+00  0.1111111E+00
    1       -8.535037   1.000000
    2       -5.750007   1.000000
    3       -5.749639   1.000000
    4       -5.556563   1.000000
    5       -5.556226   1.000000
    6       -5.287663   1.000000
    7       -1.754270   1.000000
    8        0.429640   1.000000
    9        1.442508   1.000000
   10        4.998080   0.000000
   11        7.086975   0.000000
   12        7.803922   0.000000
   13        8.494120   0.000000
   14       10.644184   0.000000
   15       11.293483   0.000000
   16       12.476145   0.000000
 
 -0.1666667E+00  0.1666667E+00  0.0000000E+00  0.5555556E-01
    1       -8.711722   1.000000
    2       -5.787702   1.000000
    3       -5.772858   1.000000
    4       -5.626074   1.000000
    5       -5.563132   1.000000
    6       -5.532844   1.000000
    7       -0.507065   1.000000
    8        0.973209   1.000000
    9        1.903198   1.000000
   10        4.840382   0.000000
   11        6.839902   0.000000
   12        7.339441   0.000000
   13        7.646332   0.000000
   14        9.885656   0.000000
   15       11.119234   0.000000
   16       11.874626   0.000000
 
  0.3333333E+00  0.3333333E+00  0.0000000E+00  0.2777778E-01
    1       -8.537009   1.000000
    2       -5.703310   1.000000
    3       -5.703310   1.000000
    4       -5.657483   1.000000
    5       -5.528061   1.000000
    6       -5.390230   1.000000
    7       -1.264982   1.000000
    8        0.726822   1.000000
    9        0.726822   1.000000
   10        4.869700   0.000000
   11        5.294187   0.000000
   12        9.473865   0.000000
   13        9.683240   0.000000
   14        9.683240   0.000000
   15       12.477525   0.000000
   16       14.084562   0.000000
 
  0.5000000E+00  0.3333333E+00  0.0000000E+00  0.1111111E+00
    1       -8.433919   1.000000
    2       -5.703752   1.000000
    3       -5.680527   1.000000
    4       -5.625380   1.000000
    5       -5.529249   1.000000
    6       -5.140909   1.000000
    7       -1.901118   1.000000
    8        0.050291   1.000000
    9        0.591051   1.000000
   10        4.962025   0.000000
   11        5.861616   0.000000
   12        9.126870   0.000000
   13        9.873193   0.000000
   14       11.233848   0.000000
   15       12.883302   0.000000
   16       13.654115   0.000000
 
 -0.3333333E+00  0.3333333E+00  0.0000000E+00  0.5555556E-01
    1       -8.434073   1.000000
    2       -5.723945   1.000000
    3       -5.701114   1.000000
    4       -5.582868   1.000000
    5       -5.547822   1.000000
    6       -5.075666   1.000000
    7       -1.943544   1.000000
    8       -0.414034   1.000000
    9        0.906816   1.000000
   10        5.194658   0.000000
   11        7.284346   0.000000
   12        9.019036   0.000000
   13        9.135557   0.000000
   14        9.620061   0.000000
   15       11.176357   0.000000
   16       14.311860   0.000000
 
  0.5000000E+00  0.5000000E+00  0.0000000E+00  0.1388889E-01
    1       -8.399785   1.000000
    2       -5.670131   1.000000
    3       -5.655466   1.000000
    4       -5.655466   1.000000
    5       -5.519883   1.000000
    6       -5.095381   1.000000
    7       -2.108379   1.000000
    8        0.352966   1.000000
    9        0.352966   1.000000
   10        4.708172   0.000000
   11        4.828287   0.000000
   12       10.948273   0.000000
   13       11.298929   0.000000
   14       11.298930   0.000000
   15       13.036232   0.000000
   16       13.746218   0.000000
 
  0.5000000E+00  0.3333333E+00  0.1666667E+00  0.1111111E+00
    1       -8.502026   1.000000
    2       -5.728824   1.000000
    3       -5.721422   1.000000
    4       -5.599170   1.000000
    5       -5.539376   1.000000
    6       -5.265899   1.000000
    7       -1.581439   1.000000
    8        0.136475   1.000000
    9        0.909347   1.000000
   10        5.756396   0.000000
   11        6.276129   0.000000
   12        7.436634   0.000000
   13        9.577958   0.000000
   14       10.346664   0.000000
   15       12.432515   0.000000
   16       13.612326   0.000000
 
 -0.3333333E+00  0.3333333E+00  0.1666667E+00  0.1111111E+00
    1       -8.434072   1.000000
    2       -5.720962   1.000000
    3       -5.705524   1.000000
    4       -5.579472   1.000000
    5       -5.549987   1.000000
    6       -5.074631   1.000000
    7       -1.982056   1.000000
    8       -0.183140   1.000000
    9        0.619846   1.000000
   10        5.886430   0.000000
   11        6.758521   0.000000
   12        7.909971   0.000000
   13        9.421012   0.000000
   14       10.123447   0.000000
   15       12.623100   0.000000
   16       13.404353   0.000000
 
 -0.3333333E+00  0.5000000E+00  0.1666667E+00  0.5555556E-01
    1       -8.400960   1.000000
    2       -5.692749   1.000000
    3       -5.688838   1.000000
    4       -5.604726   1.000000
    5       -5.539380   1.000000
    6       -5.028378   1.000000
    7       -2.023334   1.000000
    8       -0.002120   1.000000
    9        0.081352   1.000000
   10        5.893579   0.000000
   11        5.910825   0.000000
   12        8.834213   0.000000
   13        9.110094   0.000000
   14       11.747068   0.000000
   15       13.278231   0.000000
   16       13.499280   0.000000
 
  0.0000000E+00  0.0000000E+00  0.0000000E+00  0.0000000E+00
    1       -8.958643   1.000000
    2       -5.830269   1.000000
    3       -5.830269   1.000000
    4       -5.830269   1.000000
    5       -5.552486   1.000000
    6       -5.552486   1.000000
    7        2.260703   1.000000
    8        2.260703   1.000000
    9        2.260703   1.000000
   10        2.894245   0.000000
   11        6.766274   0.000000
   12        6.766274   0.000000
   13        6.766274   0.000000
   14        9.508640   0.000000
   15       11.575572   0.000000
   16       11.575603   0.000000
 
  0.4166670E-02  0.0000000E+00  0.4166670E-02  0.0000000E+00
    1       -8.958551   1.000000
    2       -5.830242   1.000000
    3       -5.830242   1.000000
    4       -5.830224   1.000000
    5       -5.552495   1.000000
    6       -5.552480   1.000000
    7        2.256085   1.000000
    8        2.260204   1.000000
    9        2.260204   1.000000
   10        2.898933   0.000000
   11        6.765259   0.000000
   12        6.766983   0.000000
   13        6.766984   0.000000
   14        9.510137   0.000000
   15       11.567981   0.000000
   16       11.575723   0.000000
 
  0.8333330E-02  0.0000000E+00  0.8333330E-02  0.0000000E+00
    1       -8.958269   1.000000
    2       -5.830161   1.000000
    3       -5.830161   1.000000
    4       -5.830090   1.000000
    5       -5.552524   1.000000
    6       -5.552463   1.000000
    7        2.242619   1.000000
    8        2.258706   1.000000
    9        2.258706   1.000000
   10        2.912604   0.000000
   11        6.762220   0.000000
   12        6.769110   0.000000
   13        6.769110   0.000000
   14        9.514618   0.000000
   15       11.546159   0.000000
   16       11.576178   0.000000
 
  0.1250000E-01  0.0000000E+00  0.1250000E-01  0.0000000E+00
    1       -8.957796   1.000000
    2       -5.830028   1.000000
    3       -5.830028   1.000000
    4       -5.829867   1.000000
    5       -5.552572   1.000000
    6       -5.552434   1.000000
    7        2.221329   1.000000
    8        2.256214   1.000000
    9        2.256214   1.000000
   10        2.934235   0.000000
   11        6.757179   0.000000
   12        6.772652   0.000000
   13        6.772652   0.000000
   14        9.522062   0.000000
   15       11.512444   0.000000
   16       11.576934   0.000000
 
  0.1666667E-01  0.0000000E+00  0.1666667E-01  0.0000000E+00
    1       -8.957132   1.000000
    2       -5.829842   1.000000
    3       -5.829842   1.000000
    4       -5.829554   1.000000
    5       -5.552639   1.000000
    6       -5.552396   1.000000
    7        2.193542   1.000000
    8        2.252733   1.000000
    9        2.252733   1.000000
   10        2.962495   0.000000
   11        6.750172   0.000000
   12        6.777602   0.000000
   13        6.777602   0.000000
   14        9.532426   0.000000
   15       11.469567   0.000000
   16       11.577990   0.000000
 
  0.2083333E-01  0.0000000E+00  0.2083333E-01  0.0000000E+00
    1       -8.956276   1.000000
    2       -5.829602   1.000000
    3       -5.829602   1.000000
    4       -5.829152   1.000000
    5       -5.552725   1.000000
    6       -5.552345   1.000000
    7        2.160590   1.000000
    8        2.248273   1.000000
    9        2.248273   1.000000
   10        2.996052   0.000000
   11        6.741247   0.000000
   12        6.783954   0.000000
   13        6.783955   0.000000
   14        9.545658   0.000000
   15       11.419922   0.000000
   16       11.579351   0.000000
 
  0.2500000E-01  0.0000000E+00  0.2500000E-01  0.0000000E+00
    1       -8.955230   1.000000
    2       -5.829309   1.000000
    3       -5.829309   1.000000
    4       -5.828660   1.000000
    5       -5.552828   1.000000
    6       -5.552284   1.000000
    7        2.123632   1.000000
    8        2.242843   1.000000
    9        2.242843   1.000000
   10        3.033742   0.000000
   11        6.730463   0.000000
   12        6.791698   0.000000
   13        6.791698   0.000000
   14        9.561687   0.000000
   15       11.365377   0.000000
   16       11.581019   0.000000
 
  0.2916667E-01  0.0000000E+00  0.2916667E-01  0.0000000E+00
    1       -8.953997   1.000000
    2       -5.828964   1.000000
    3       -5.828964   1.000000
    4       -5.828078   1.000000
    5       -5.552951   1.000000
    6       -5.552211   1.000000
    7        2.083600   1.000000
    8        2.236453   1.000000
    9        2.236453   1.000000
   10        3.074627   0.000000
   11        6.717889   0.000000
   12        6.800818   0.000000
   13        6.800818   0.000000
   14        9.580432   0.000000
   15       11.307306   0.000000
   16       11.582981   0.000000
 
  0.3333334E-01  0.0000000E+00  0.3333334E-01  0.0000000E+00
    1       -8.952575   1.000000
    2       -5.828566   1.000000
    3       -5.828566   1.000000
    4       -5.827406   1.000000
    5       -5.553092   1.000000
    6       -5.552128   1.000000
    7        2.041219   1.000000
    8        2.229119   1.000000
    9        2.229119   1.000000
   10        3.117977   0.000000
   11        6.703604   0.000000
   12        6.811303   0.000000
   13        6.811303   0.000000
   14        9.601798   0.000000
   15       11.246708   0.000000
   16       11.585246   0.000000
 
  0.3750000E-01  0.0000000E+00  0.3750000E-01  0.0000000E+00
    1       -8.950965   1.000000
    2       -5.828116   1.000000
    3       -5.828116   1.000000
    4       -5.826643   1.000000
    5       -5.553251   1.000000
    6       -5.552034   1.000000
    7        1.997035   1.000000
    8        2.220858   1.000000
    9        2.220858   1.000000
   10        3.163239   0.000000
   11        6.687692   0.000000
   12        6.823136   0.000000
   13        6.823136   0.000000
   14        9.625680   0.000000
   15       11.184314   0.000000
   16       11.587813   0.000000
 
  0.4166667E-01  0.0000000E+00  0.4166667E-01  0.0000000E+00
    1       -8.949170   1.000000
    2       -5.827615   1.000000
    3       -5.827614   1.000000
    4       -5.825789   1.000000
    5       -5.553428   1.000000
    6       -5.551930   1.000000
    7        1.951462   1.000000
    8        2.211686   1.000000
    9        2.211686   1.000000
   10        3.209990   0.000000
   11        6.670242   0.000000
   12        6.836299   0.000000
   13        6.836299   0.000000
   14        9.651959   0.000000
   15       11.120679   0.000000
   16       11.590679   0.000000
 
  0.4583333E-01  0.0000000E+00  0.4583333E-01  0.0000000E+00
    1       -8.947188   1.000000
    2       -5.827062   1.000000
    3       -5.827061   1.000000
    4       -5.824843   1.000000
    5       -5.553623   1.000000
    6       -5.551814   1.000000
    7        1.904816   1.000000
    8        2.201624   1.000000
    9        2.201624   1.000000
   10        3.257907   0.000000
   11        6.651352   0.000000
   12        6.850774   0.000000
   13        6.850774   0.000000
   14        9.680505   0.000000
   15       11.056241   0.000000
   16       11.593848   0.000000
 
  0.5000000E-01  0.0000000E+00  0.5000000E-01  0.0000000E+00
    1       -8.945023   1.000000
    2       -5.826457   1.000000
    3       -5.826456   1.000000
    4       -5.823804   1.000000
    5       -5.553835   1.000000
    6       -5.551688   1.000000
    7        1.857335   1.000000
    8        2.190692   1.000000
    9        2.190692   1.000000
   10        3.306743   0.000000
   11        6.631115   0.000000
   12        6.866539   0.000000
   13        6.866539   0.000000
   14        9.711174   0.000000
   15       10.991359   0.000000
   16       11.597317   0.000000
 
  0.5416667E-01  0.0000000E+00  0.5416667E-01  0.0000000E+00
    1       -8.942676   1.000000
    2       -5.825801   1.000000
    3       -5.825801   1.000000
    4       -5.822673   1.000000
    5       -5.554064   1.000000
    6       -5.551552   1.000000
    7        1.809199   1.000000
    8        2.178910   1.000000
    9        2.178910   1.000000
   10        3.356303   0.000000
   11        6.609626   0.000000
   12        6.883571   0.000000
   13        6.883571   0.000000
   14        9.743800   0.000000
   15       10.926345   0.000000
   16       11.601088   0.000000
 
  0.5833334E-01  0.0000000E+00  0.5833334E-01  0.0000000E+00
    1       -8.940145   1.000000
    2       -5.825094   1.000000
    3       -5.825094   1.000000
    4       -5.821447   1.000000
    5       -5.554308   1.000000
    6       -5.551404   1.000000
    7        1.760556   1.000000
    8        2.166306   1.000000
    9        2.166306   1.000000
   10        3.406431   0.000000
   11        6.586987   0.000000
   12        6.901850   0.000000
   13        6.901850   0.000000
   14        9.778197   0.000000
   15       10.861500   0.000000
   16       11.605175   0.000000
 
  0.6250000E-01  0.0000000E+00  0.6250000E-01  0.0000000E+00
    1       -8.937437   1.000000
    2       -5.824337   1.000000
    3       -5.824336   1.000000
    4       -5.820128   1.000000
    5       -5.554568   1.000000
    6       -5.551246   1.000000
    7        1.711516   1.000000
    8        2.152902   1.000000
    9        2.152902   1.000000
   10        3.457000   0.000000
   11        6.563287   0.000000
   12        6.921347   0.000000
   13        6.921347   0.000000
   14        9.814128   0.000000
   15       10.797116   0.000000
   16       11.609544   0.000000
 
  0.6666667E-01  0.0000000E+00  0.6666667E-01  0.0000000E+00
    1       -8.934551   1.000000
    2       -5.823529   1.000000
    3       -5.823529   1.000000
    4       -5.818714   1.000000
    5       -5.554842   1.000000
    6       -5.551077   1.000000
    7        1.662170   1.000000
    8        2.138725   1.000000
    9        2.138725   1.000000
   10        3.507906   0.000000
   11        6.538622   0.000000
   12        6.942039   0.000000
   13        6.942039   0.000000
   14        9.851304   0.000000
   15       10.733537   0.000000
   16       11.614216   0.000000
 
  0.7083334E-01  0.0000000E+00  0.7083334E-01  0.0000000E+00
    1       -8.931489   1.000000
    2       -5.822671   1.000000
    3       -5.822671   1.000000
    4       -5.817205   1.000000
    5       -5.555130   1.000000
    6       -5.550898   1.000000
    7        1.612589   1.000000
    8        2.123801   1.000000
    9        2.123802   1.000000
   10        3.559061   0.000000
   11        6.513082   0.000000
   12        6.963900   0.000000
   13        6.963900   0.000000
   14        9.889331   0.000000
   15       10.671190   0.000000
   16       11.619186   0.000000
 
  0.7500000E-01  0.0000000E+00  0.7500000E-01  0.0000000E+00
    1       -8.928252   1.000000
    2       -5.821764   1.000000
    3       -5.821764   1.000000
    4       -5.815599   1.000000
    5       -5.555430   1.000000
    6       -5.550710   1.000000
    7        1.562833   1.000000
    8        2.108159   1.000000
    9        2.108159   1.000000
   10        3.610391   0.000000
   11        6.486754   0.000000
   12        6.986903   0.000000
   13        6.986903   0.000000
   14        9.927637   0.000000
   15       10.610668   0.000000
   16       11.624456   0.000000
 
  0.7916667E-01  0.0000000E+00  0.7916667E-01  0.0000000E+00
    1       -8.924844   1.000000
    2       -5.820808   1.000000
    3       -5.820807   1.000000
    4       -5.813897   1.000000
    5       -5.555742   1.000000
    6       -5.550511   1.000000
    7        1.512948   1.000000
    8        2.091824   1.000000
    9        2.091824   1.000000
   10        3.661827   0.000000
   11        6.459721   0.000000
   12        7.011019   0.000000
   13        7.011020   0.000000
   14        9.965332   0.000000
   15       10.552871   0.000000
   16       11.630024   0.000000
 
  0.8333334E-01  0.0000000E+00  0.8333334E-01  0.0000000E+00
    1       -8.921266   1.000000
    2       -5.819803   1.000000
    3       -5.819802   1.000000
    4       -5.812098   1.000000
    5       -5.556064   1.000000
    6       -5.550303   1.000000
    7        1.462972   1.000000
    8        2.074825   1.000000
    9        2.074826   1.000000
   10        3.713311   0.000000
   11        6.432064   0.000000
   12        7.036223   0.000000
   13        7.036223   0.000000
   14       10.000946   0.000000
   15       10.499279   0.000000
   16       11.635892   0.000000
 
  0.8750001E-01  0.0000000E+00  0.8750001E-01  0.0000000E+00
    1       -8.917525   1.000000
    2       -5.818750   1.000000
    3       -5.818749   1.000000
    4       -5.810201   1.000000
    5       -5.556397   1.000000
    6       -5.550085   1.000000
    7        1.412942   1.000000
    8        2.057192   1.000000
    9        2.057192   1.000000
   10        3.764788   0.000000
   11        6.403859   0.000000
   12        7.062485   0.000000
   13        7.062485   0.000000
   14       10.031946   0.000000
   15       10.452427   0.000000
   16       11.642056   0.000000
 
  0.9166667E-01  0.0000000E+00  0.9166667E-01  0.0000000E+00
    1       -8.913620   1.000000
    2       -5.817649   1.000000
    3       -5.817648   1.000000
    4       -5.808204   1.000000
    5       -5.556737   1.000000
    6       -5.549858   1.000000
    7        1.362886   1.000000
    8        2.038953   1.000000
    9        2.038953   1.000000
   10        3.816206   0.000000
   11        6.375177   0.000000
   12        7.089778   0.000000
   13        7.089778   0.000000
   14       10.054122   0.000000
   15       10.416525   0.000000
   16       11.648520   0.000000
 
  0.9583334E-01  0.0000000E+00  0.9583334E-01  0.0000000E+00
    1       -8.909553   1.000000
    2       -5.816502   1.000000
    3       -5.816501   1.000000
    4       -5.806110   1.000000
    5       -5.557085   1.000000
    6       -5.549622   1.000000
    7        1.312825   1.000000
    8        2.020134   1.000000
    9        2.020134   1.000000
   10        3.867512   0.000000
   11        6.346086   0.000000
   12        7.118070   0.000000
   13        7.118070   0.000000
   14       10.061797   0.000000
   15       10.397251   0.000000
   16       11.655279   0.000000
 
  0.1000000E+00  0.0000000E+00  0.1000000E+00  0.0000000E+00
    1       -8.905327   1.000000
    2       -5.815308   1.000000
    3       -5.815308   1.000000
    4       -5.803915   1.000000
    5       -5.557439   1.000000
    6       -5.549376   1.000000
    7        1.262783   1.000000
    8        2.000765   1.000000
    9        2.000765   1.000000
   10        3.918665   0.000000
   11        6.316651   0.000000
   12        7.147336   0.000000
   13        7.147336   0.000000
   14       10.050970   0.000000
   15       10.398608   0.000000
   16       11.662334   0.000000
 
  0.1041667E+00  0.0000000E+00  0.1041667E+00  0.0000000E+00
    1       -8.900943   1.000000
    2       -5.814069   1.000000
    3       -5.814068   1.000000
    4       -5.801619   1.000000
    5       -5.557798   1.000000
    6       -5.549122   1.000000
    7        1.212776   1.000000
    8        1.980876   1.000000
    9        1.980876   1.000000
   10        3.969618   0.000000
   11        6.286934   0.000000
   12        7.177548   0.000000
   13        7.177548   0.000000
   14       10.023222   0.000000
   15       10.419016   0.000000
   16       11.669693   0.000000
 
  0.1083333E+00  0.0000000E+00  0.1083333E+00  0.0000000E+00
    1       -8.896404   1.000000
    2       -5.812784   1.000000
    3       -5.812783   1.000000
    4       -5.799223   1.000000
    5       -5.558160   1.000000
    6       -5.548858   1.000000
    7        1.162820   1.000000
    8        1.960495   1.000000
    9        1.960495   1.000000
   10        4.020325   0.000000
   11        6.256992   0.000000
   12        7.208678   0.000000
   13        7.208678   0.000000
   14        9.983906   0.000000
   15       10.453126   0.000000
   16       11.677332   0.000000
 
  0.1125000E+00  0.0000000E+00  0.1125000E+00  0.0000000E+00
    1       -8.891714   1.000000
    2       -5.811454   1.000000
    3       -5.811454   1.000000
    4       -5.796725   1.000000
    5       -5.558524   1.000000
    6       -5.548586   1.000000
    7        1.112927   1.000000
    8        1.939649   1.000000
    9        1.939649   1.000000
   10        4.070742   0.000000
   11        6.226878   0.000000
   12        7.240698   0.000000
   13        7.240699   0.000000
   14        9.937911   0.000000
   15       10.496052   0.000000
   16       11.685274   0.000000
 
  0.1166667E+00  0.0000000E+00  0.1166667E+00  0.0000000E+00
    1       -8.886874   1.000000
    2       -5.810080   1.000000
    3       -5.810079   1.000000
    4       -5.794126   1.000000
    5       -5.558885   1.000000
    6       -5.548306   1.000000
    7        1.063110   1.000000
    8        1.918367   1.000000
    9        1.918367   1.000000
   10        4.120821   0.000000
   11        6.196645   0.000000
   12        7.273584   0.000000
   13        7.273584   0.000000
   14        9.888367   0.000000
   15       10.544674   0.000000
   16       11.693507   0.000000
 
  0.1208333E+00  0.0000000E+00  0.1208333E+00  0.0000000E+00
    1       -8.881889   1.000000
    2       -5.808662   1.000000
    3       -5.808662   1.000000
    4       -5.791425   1.000000
    5       -5.559244   1.000000
    6       -5.548017   1.000000
    7        1.013379   1.000000
    8        1.896675   1.000000
    9        1.896676   1.000000
   10        4.170517   0.000000
   11        6.166341   0.000000
   12        7.307305   0.000000
   13        7.307305   0.000000
   14        9.837089   0.000000
   15       10.597178   0.000000
   16       11.702034   0.000000
 
  0.1250000E+00  0.0000000E+00  0.1250000E+00  0.0000000E+00
    1       -8.876763   1.000000
    2       -5.807201   1.000000
    3       -5.807201   1.000000
    4       -5.788623   1.000000
    5       -5.559598   1.000000
    6       -5.547720   1.000000
    7        0.963743   1.000000
    8        1.874603   1.000000
    9        1.874603   1.000000
   10        4.219779   0.000000
   11        6.136011   0.000000
   12        7.341836   0.000000
   13        7.341836   0.000000
   14        9.785141   0.000000
   15       10.652515   0.000000
   16       11.710855   0.000000
 
  0.1291667E+00  0.0000000E+00  0.1291667E+00  0.0000000E+00
    1       -8.871497   1.000000
    2       -5.805697   1.000000
    3       -5.805697   1.000000
    4       -5.785719   1.000000
    5       -5.559943   1.000000
    6       -5.547415   1.000000
    7        0.914213   1.000000
    8        1.852175   1.000000
    9        1.852175   1.000000
   10        4.268558   0.000000
   11        6.105700   0.000000
   12        7.377152   0.000000
   13        7.377153   0.000000
   14        9.733177   0.000000
   15       10.710043   0.000000
   16       11.719965   0.000000
 
  0.1333333E+00  0.0000000E+00  0.1333333E+00  0.0000000E+00
    1       -8.866097   1.000000
    2       -5.804151   1.000000
    3       -5.804151   1.000000
    4       -5.782714   1.000000
    5       -5.560278   1.000000
    6       -5.547102   1.000000
    7        0.864794   1.000000
    8        1.829417   1.000000
    9        1.829417   1.000000
   10        4.316801   0.000000
   11        6.075449   0.000000
   12        7.413229   0.000000
   13        7.413229   0.000000
   14        9.681621   0.000000
   15       10.769354   0.000000
   16       11.729366   0.000000
 
  0.1375000E+00  0.0000000E+00  0.1375000E+00  0.0000000E+00
    1       -8.860566   1.000000
    2       -5.802565   1.000000
    3       -5.802565   1.000000
    4       -5.779610   1.000000
    5       -5.560599   1.000000
    6       -5.546781   1.000000
    7        0.815494   1.000000
    8        1.806356   1.000000
    9        1.806356   1.000000
   10        4.364454   0.000000
   11        6.045298   0.000000
   12        7.450037   0.000000
   13        7.450037   0.000000
   14        9.630768   0.000000
   15       10.830168   0.000000
   16       11.739054   0.000000
 
  0.1416667E+00  0.0000000E+00  0.1416667E+00  0.0000000E+00
    1       -8.854906   1.000000
    2       -5.800939   1.000000
    3       -5.800939   1.000000
    4       -5.776406   1.000000
    5       -5.560903   1.000000