       N       E                     dE             d eps       ncg     rms          rms(c)
DAV:   1     0.974782205187E+02    0.97478E+02   -0.82221E+03  4392   0.946E+02
DAV:   2    -0.200971773738E+01   -0.99488E+02   -0.94971E+02  5040   0.234E+02
DAV:   3    -0.546466589366E+01   -0.34549E+01   -0.34510E+01  5416   0.453E+01
DAV:   4    -0.549319914066E+01   -0.28533E-01   -0.28532E-01  6656   0.370E+00
DAV:   5    -0.549325692789E+01   -0.57787E-04   -0.57787E-04  5672   0.159E-01
DAV:   6    -0.549325797473E+01   -0.10468E-05   -0.10469E-05  6464   0.157E-02
DAV:   7    -0.549325799131E+01   -0.16581E-07   -0.16639E-07  4840   0.170E-03
   1 F= -.54932580E+01 E0= -.54932580E+01  d E =-.549326E+01
