Name                                    
   5.43100000000000     
     0.500000    0.500000    0.000000
     0.500000    0.000000   -0.500000
     0.000000    0.500000   -0.500000
   Si
     2
Direct
  0.000000  0.000000  0.000000
  0.250000  0.250000  0.250000
 
   56   56   56
 -7.7615     -7.1456     -5.3717     -2.6491     0.71202      4.3511      7.9113      11.088      13.661      15.507    
  16.599      16.988      16.786      16.145      15.231      14.207      13.163      12.142      11.175      10.289    
  9.5000      8.8140      8.2308      7.7460      7.3541      7.0508      6.8340      6.7035      6.6599      6.7035    
  6.8340      7.0508      7.3541      7.7460      8.2308      8.8140      9.5000      10.289      11.175      12.142    
  13.163      14.207      15.231      16.145      16.786      16.988      16.599      15.507      13.661      11.088    
  7.9113      4.3511     0.71202     -2.6491     -5.3717     -7.1456     -7.1456     -5.8934     -3.5431     -.37538    
  3.2507      6.9561      10.398      13.310      15.525      16.977      17.687      17.746      17.292      16.486    
  15.496      14.455      13.415      12.412      11.477      10.629      9.8799      9.2337      8.6879      8.2379    
  7.8793      7.6098      7.4291      7.3383      7.3383      7.4291      7.6098      7.8793      8.2379      8.6879    
  9.2337      9.8799      10.629      11.477      12.412      13.415      14.455      15.496      16.486      17.292    
  17.746      17.687      16.977      15.525      13.310      10.398      6.9561      3.2507     -.37538     -3.5431    
 -5.8934     -7.1456     -5.3717     -3.5431     -.75131      2.6696      6.3382      9.8869      13.012      15.504    
  17.256      18.256      18.569      18.315      17.646      16.726      15.708      14.671      13.652      12.685    
  11.792      10.991      10.289      9.6862      9.1801      8.7667      8.4436      8.2109      8.0699      8.0227    
  8.0699      8.2109      8.4436      8.7667      9.1801      9.6862      10.289      10.991      11.792      12.685    
  13.652      14.671      15.708      16.726      17.646      18.315      18.569      18.256      17.256      15.504    
  13.012      9.8869      6.3382      2.6696     -.75130     -3.5431     -5.3717     -6.0083     -2.6491     -.37538    
  2.6696      6.1246      9.6160      12.814      15.473      17.448      18.690      19.236      19.183      18.669    
  17.849      16.879      15.868      14.856      13.878      12.959      12.121      11.374      10.722      10.165    
  9.6992      9.3236      9.0381      8.8451      8.7475      8.7475      8.8450      9.0381      9.3236      9.6992    
  10.165      10.722      11.374      12.121      12.959      13.878      14.856      15.868      16.879      17.849    
  18.669      19.183      19.236      18.690      17.448      15.473      12.814      9.6160      6.1246      2.6696    
 -.37538     -2.6491     -3.8653     -3.8653     0.71202      3.2507      6.3382      9.6160      12.745      15.454    
  17.561      18.985      19.729      19.866      19.514      18.817      17.924      16.961      15.981      15.016    
  14.093      13.237      12.460      11.771      11.171      10.659      10.234      9.8964      9.6506      9.5004    
  9.4499      9.5004      9.6506      9.8964      10.234      10.659      11.171      11.771      12.460      13.237    
  14.093      15.016      15.981      16.961      17.924      18.817      19.514      19.866      19.729      18.985    
  17.561      15.454      12.745      9.6160      6.3382      3.2507     0.71202     -.95905     -1.5423     -.95905    
  4.3511      6.9561      9.8869      12.814      15.454      17.599      19.134      20.032      20.338      20.147    
  19.586      18.796      17.907      16.983      16.055      15.153      14.300      13.513      12.802      12.171    
  11.622      11.153      10.768      10.470      10.267      10.163      10.163      10.267      10.470      10.768    
  11.153      11.622      12.171      12.802      13.513      14.300      15.153      16.055      16.983      17.907    
  18.796      19.586      20.147      20.338      20.032      19.134      17.599      15.454      12.814      9.8869    
  6.9561      4.3511      2.3943      1.3440      1.3441      2.3943      7.9113      10.398      13.012      15.473    
  17.561      19.134      20.135      20.579      20.538      20.121      19.453      18.661      17.817      16.953    
  16.097      15.272      14.496      13.783      13.137      12.562      12.059      11.632      11.286      11.029    
  10.871      10.817      10.871      11.029      11.286      11.632      12.059      12.562      13.137      13.783    
  14.496      15.272      16.097      16.953      17.817      18.661      19.453      20.121      20.538      20.579    
  20.135      19.134      17.561      15.473      13.012      10.398      7.9113      5.8530      4.4923      4.0163    
  4.4923      5.8530      11.088      13.310      15.504      17.448      18.985      20.032      20.579      20.671    
  20.396      19.862      19.186      18.445      17.668      16.882      16.110      15.370      14.675      14.034    
  13.449      12.925      12.465      12.077      11.771      11.557      11.448      11.448      11.557      11.771    
  12.077      12.465      12.925      13.449      14.034      14.675      15.370      16.110      16.882      17.668    
  18.445      19.186      19.862      20.396      20.671      20.579      20.032      18.985      17.448      15.504    
  13.310      11.088      9.0978      7.5952      6.7864      6.7864      7.5952      9.0978      13.661      15.525    
  17.256      18.690      19.729      20.338      20.538      20.396      20.001      19.456      18.835      18.166    
  17.473      16.777      16.097      15.444      14.828      14.253      13.724      13.244      12.823      12.472    
  12.207      12.041      11.984      12.041      12.207      12.472      12.823      13.244      13.724      14.253    
  14.828      15.444      16.097      16.777      17.473      18.166      18.835      19.456      20.001      20.396    
  20.538      20.338      19.729      18.690      17.256      15.525      13.661      11.871      10.381      9.3918    
  9.0453      9.3918      10.381      11.871      15.507      16.977      18.256      19.236      19.866      20.147    
  20.121      19.862      19.456      18.967      18.421      17.840      17.242      16.643      16.055      15.487    
  14.943      14.426      13.943      13.502      13.117      12.804      12.583      12.468      12.468      12.583    
  12.804      13.117      13.502      13.943      14.426      14.943      15.487      16.055      16.643      17.242    
  17.840      18.421      18.967      19.456      19.862      20.121      20.147      19.866      19.236      18.256    
  16.977      15.507      14.001      12.643      11.612      11.056      11.056      11.612      12.643      14.001    
  16.599      17.687      18.569      19.183      19.514      19.586      19.453      19.186      18.835      18.421    
  17.964      17.480      16.982      16.480      15.981      15.489      15.006      14.538      14.093      13.686    
  13.335      13.061      12.886      12.825      12.886      13.061      13.335      13.686      14.093      14.538    
  15.006      15.489      15.981      16.480      16.982      17.480      17.964      18.421      18.835      19.186    
  19.453      19.586      19.514      19.183      18.569      17.687      16.599      15.410      14.258      13.294    
  12.652      12.426      12.652      13.294      14.258      15.410      16.988      17.746      18.315      18.669    
  18.817      18.796      18.661      18.445      18.166      17.840      17.480      17.097      16.698      16.288    
  15.868      15.440      15.007      14.577      14.163      13.782      13.460      13.225      13.100      13.100    
  13.225      13.460      13.782      14.163      14.577      15.007      15.440      15.868      16.288      16.698    
  17.097      17.480      17.840      18.166      18.445      18.661      18.796      18.817      18.669      18.315    
  17.746      16.988      16.103      15.189      14.358      13.726      13.384      13.384      13.726      14.358    
  15.189      16.103      16.786      17.292      17.646      17.849      17.924      17.907      17.817      17.668    
  17.473      17.242      16.982      16.698      16.391      16.062      15.708      15.331      14.936      14.532    
  14.136      13.774      13.482      13.292      13.226      13.292      13.482      13.774      14.136      14.532    
  14.936      15.331      15.708      16.062      16.391      16.698      16.982      17.242      17.473      17.668    
  17.817      17.907      17.924      17.849      17.646      17.292      16.786      16.161      15.473      14.804    
  14.243      13.868      13.737      13.868      14.243      14.804      15.473      16.161      16.145      16.486    
  16.726      16.879      16.961      16.983      16.953      16.882      16.777      16.643      16.480      16.288    
  16.062      15.799      15.496      15.157      14.783      14.390      14.004      13.665      13.411      13.275    
  13.275      13.411      13.665      14.004      14.390      14.783      15.157      15.496      15.799      16.062    
  16.288      16.480      16.643      16.777      16.882      16.953      16.983      16.961      16.879      16.726    
  16.486      16.145      15.710      15.211      14.698      14.233      13.880      13.688      13.688      13.880    
  14.233      14.698      15.211      15.710      15.231      15.496      15.708      15.868      15.981      16.055    
  16.097      16.110      16.097      16.055      15.981      15.868      15.708      15.496      15.231      14.910    
  14.542      14.154      13.783      13.474      13.270      13.198      13.270      13.474      13.783      14.154    
  14.542      14.910      15.231      15.496      15.708      15.868      15.981      16.055      16.097      16.110    
  16.097      16.055      15.981      15.868      15.708      15.496      15.231      14.910      14.542      14.154    
  13.783      13.474      13.270      13.198      13.270      13.474      13.783      14.154      14.542      14.910    
  14.207      14.455      14.671      14.856      15.016      15.153      15.272      15.370      15.444      15.487    
  15.489      15.440      15.331      15.157      14.910      14.593      14.227      13.847      13.502      13.239    
  13.096      13.096      13.239      13.502      13.847      14.227      14.593      14.910      15.157      15.331    
  15.440      15.489      15.487      15.444      15.370      15.272      15.153      15.016      14.856      14.671    
  14.455      14.207      13.928      13.628      13.316      13.015      12.752      12.555      12.450      12.450    
  12.555      12.752      13.015      13.316      13.628      13.928      13.163      13.415      13.652      13.878    
  14.093      14.300      14.496      14.675      14.828      14.943      15.006      15.007      14.936      14.783    
  14.542      14.227      13.868      13.511      13.208      13.004      12.932      13.004      13.208      13.511    
  13.868      14.227      14.542      14.783      14.936      15.007      15.006      14.943      14.828      14.675    
  14.496      14.300      14.093      13.878      13.652      13.415      13.163      12.897      12.620      12.340    
  12.074      11.837      11.650      11.529      11.487      11.529      11.650      11.837      12.074      12.340    
  12.620      12.897      12.142      12.412      12.685      12.959      13.237      13.513      13.783      14.034    
  14.253      14.426      14.538      14.577      14.532      14.390      14.154      13.847      13.511      13.195    
  12.949      12.815      12.815      12.949      13.195      13.511      13.847      14.154      14.390      14.532    
  14.577      14.538      14.426      14.253      14.034      13.783      13.513      13.237      12.959      12.685    
  12.412      12.142      11.870      11.600      11.335      11.083      10.857      10.670      10.537      10.467    
  10.467      10.537      10.670      10.857      11.083      11.335      11.600      11.870      11.175      11.477    
  11.792      12.121      12.460      12.802      13.137      13.449      13.724      13.943      14.093      14.163    
  14.136      14.004      13.783      13.502      13.208      12.949      12.773      12.711      12.773      12.949    
  13.208      13.502      13.783      14.004      14.136      14.163      14.093      13.943      13.724      13.449    
  13.137      12.802      12.460      12.121      11.792      11.477      11.175      10.886      10.609      10.345    
  10.099      9.8768      9.6892      9.5458      9.4556      9.4248      9.4556      9.5458      9.6892      9.8768    
  10.099      10.345      10.609      10.886      10.289      10.629      10.991      11.374      11.771      12.171    
  12.562      12.925      13.244      13.502      13.686      13.782      13.774      13.665      13.474      13.239    
  13.004      12.815      12.711      12.711      12.815      13.004      13.239      13.474      13.665      13.774    
  13.782      13.686      13.502      13.244      12.925      12.562      12.171      11.771      11.374      10.991    
  10.629      10.289      9.9727      9.6781      9.4049      9.1546      8.9308      8.7392      8.5869      8.4806    
  8.4260      8.4260      8.4806      8.5869      8.7392      8.9308      9.1546      9.4049      9.6781      9.9727    
  9.5000      9.8799      10.289      10.722      11.171      11.622      12.059      12.465      12.823      13.117    
  13.335      13.460      13.482      13.411      13.270      13.096      12.932      12.815      12.773      12.815    
  12.932      13.096      13.270      13.411      13.482      13.460      13.335      13.117      12.823      12.465    
  12.059      11.622      11.171      10.722      10.289      9.8799      9.5000      9.1507      8.8314      8.5410    
  8.2791      8.0470      7.8476      7.6852      7.5646      7.4903      7.4651      7.4903      7.5646      7.6852    
  7.8476      8.0470      8.2791      8.5410      8.8314      9.1507      8.8140      9.2337      9.6862      10.165    
  10.659      11.153      11.632      12.077      12.472      12.804      13.061      13.225      13.292      13.275    
  13.198      13.096      13.004      12.949      12.949      13.004      13.096      13.198      13.275      13.292    
  13.225      13.061      12.804      12.472      12.077      11.632      11.153      10.659      10.165      9.6862    
  9.2337      8.8140      8.4302      8.0825      7.7699      7.4911      7.2457      7.0347      6.8604      6.7258    
  6.6339      6.5872      6.5872      6.6339      6.7258      6.8604      7.0347      7.2457      7.4911      7.7699    
  8.0825      8.4302      8.2308      8.6879      9.1801      9.6992      10.234      10.768      11.286      11.771    
  12.207      12.583      12.886      13.100      13.226      13.275      13.270      13.239      13.208      13.195    
  13.208      13.239      13.270      13.275      13.226      13.100      12.886      12.583      12.207      11.771    
  11.286      10.768      10.234      9.6992      9.1801      8.6879      8.2308      7.8132      7.4362      7.0991    
  6.8002      6.5383      6.3130      6.1250      5.9759      5.8675      5.8017      5.7796      5.8017      5.8675    
  5.9759      6.1250      6.3130      6.5383      6.8002      7.0991      7.4362      7.8132      7.7460      8.2379    
  8.7667      9.3236      9.8964      10.470      11.029      11.557      12.041      12.468      12.825      13.100    
  13.292      13.411      13.474      13.502      13.511      13.511      13.502      13.474      13.411      13.292    
  13.100      12.825      12.468      12.041      11.557      11.029      10.470      9.8964      9.3236      8.7667    
  8.2379      7.7460      7.2963      6.8906      6.5284      6.2082      5.9281      5.6868      5.4839      5.3199    
  5.1956      5.1120      5.0700      5.0700      5.1120      5.1956      5.3199      5.4839      5.6868      5.9281    
  6.2082      6.5284      6.8906      7.2963      7.3541      7.8793      8.4436      9.0381      9.6506      10.267    
  10.871      11.448      11.984      12.468      12.886      13.225      13.482      13.665      13.783      13.847    
  13.868      13.847      13.783      13.665      13.482      13.225      12.886      12.468      11.984      11.448    
  10.871      10.267      9.6506      9.0381      8.4436      7.8793      7.3541      6.8735      6.4400      6.0531    
  5.7113      5.4123      5.1543      4.9359      4.7568      4.6170      4.5168      4.4565      4.4364      4.4565    
  4.5168      4.6170      4.7568      4.9359      5.1543      5.4123      5.7113      6.0531      6.4400      6.8736    
  7.0508      7.6098      8.2109      8.8451      9.5004      10.163      10.817      11.448      12.041      12.583    
  13.061      13.460      13.774      14.004      14.154      14.227      14.227      14.154      14.004      13.774    
  13.460      13.061      12.583      12.041      11.448      10.817      10.163      9.5004      8.8450      8.2109    
  7.6098      7.0508      6.5394      6.0781      5.6665      5.3030      4.9849      4.7097      4.4756      4.2815    
  4.1266      4.0106      3.9334      3.8948      3.8948      3.9334      4.0106      4.1266      4.2815      4.4756    
  4.7097      4.9849      5.3030      5.6665      6.0781      6.5394      6.8340      7.4291      8.0699      8.7475    
  9.4499      10.163      10.871      11.557      12.207      12.804      13.335      13.782      14.136      14.390    
  14.542      14.593      14.542      14.390      14.136      13.782      13.335      12.804      12.207      11.557    
  10.871      10.163      9.4499      8.7475      8.0699      7.4291      6.8340      6.2900      5.7996      5.3625    
  4.9764      4.6385      4.3458      4.0957      3.8865      3.7168      3.5857      3.4926      3.4370      3.4185    
  3.4370      3.4926      3.5857      3.7168      3.8865      4.0957      4.3458      4.6385      4.9764      5.3625    
  5.7996      6.2900      6.7035      7.3383      8.0227      8.7475      9.5004      10.267      11.029      11.771    
  12.472      13.117      13.686      14.163      14.532      14.783      14.910      14.910      14.783      14.532    
  14.163      13.686      13.117      12.472      11.771      11.029      10.267      9.5004      8.7475      8.0227    
  7.3383      6.7035      6.1238      5.6017      5.1366      4.7261      4.3670      4.0557      3.7889      3.5642    
  3.3797      3.2340      3.1258      3.0543      3.0188      3.0188      3.0543      3.1258      3.2340      3.3797    
  3.5642      3.7889      4.0557      4.3670      4.7262      5.1366      5.6017      6.1238      6.6599      7.3383    
  8.0699      8.8450      9.6506      10.470      11.286      12.077      12.823      13.502      14.093      14.577    
  14.936      15.157      15.231      15.157      14.936      14.577      14.093      13.502      12.823      12.077    
  11.286      10.470      9.6506      8.8450      8.0699      7.3383      6.6599      6.0406      5.4830      4.9865    
  4.5488      4.1660      3.8340      3.5491      3.3080      3.1083      2.9478      2.8249      2.7383      2.6869    
  2.6698      2.6869      2.7383      2.8249      2.9478      3.1083      3.3080      3.5491      3.8340      4.1660    
  4.5488      4.9865      5.4830      6.0406      6.7035      7.4291      8.2109      9.0381      9.8964      10.768    
  11.632      12.465      13.244      13.943      14.538      15.007      15.331      15.496      15.496      15.331    
  15.007      14.538      13.943      13.244      12.465      11.632      10.768      9.8964      9.0381      8.2109    
  7.4291      6.7035      6.0406      5.4434      4.9116      4.4427      4.0327      3.6773      3.3719      3.1127    
  2.8966      2.7208      2.5832      2.4819      2.4153      2.3823      2.3823      2.4153      2.4819      2.5832    
  2.7208      2.8966      3.1127      3.3719      3.6773      4.0327      4.4427      4.9116      5.4434      6.0406    
  6.8340      7.6098      8.4436      9.3236      10.234      11.153      12.059      12.925      13.724      14.426    
  15.006      15.440      15.708      15.799      15.708      15.440      15.006      14.426      13.724      12.925    
  12.059      11.153      10.234      9.3236      8.4436      7.6098      6.8340      6.1238      5.4830      4.9116    
  4.4074      3.9663      3.5837      3.2548      2.9750      2.7407      2.5483      2.3953      2.2791      2.1976    
  2.1495      2.1335      2.1495      2.1976      2.2791      2.3953      2.5483      2.7407      2.9750      3.2548    
  3.5837      3.9663      4.4074      4.9116      5.4830      6.1238      7.0508      7.8793      8.7667      9.6992    
  10.659      11.622      12.562      13.449      14.253      14.943      15.489      15.868      16.062      16.062    
  15.868      15.489      14.943      14.253      13.449      12.562      11.622      10.659      9.6992      8.7667    
  7.8793      7.0508      6.2900      5.6017      4.9865      4.4427      3.9663      3.5526      3.1964      2.8930    
  2.6379      2.4271      2.2573      2.1255      2.0290      1.9660      1.9349      1.9349      1.9660      2.0290    
  2.1255      2.2573      2.4271      2.6379      2.8930      3.1964      3.5526      3.9663      4.4427      4.9865    
  5.6017      6.2900      7.3541      8.2379      9.1801      10.165      11.171      12.171      13.137      14.034    
  14.828      15.487      15.981      16.288      16.391      16.288      15.981      15.487      14.828      14.034    
  13.137      12.171      11.171      10.165      9.1801      8.2379      7.3541      6.5394      5.7996      5.1366    
  4.5488      4.0327      3.5837      3.1964      2.8658      2.5868      2.3551      2.1666      2.0179      1.9057    
  1.8276      1.7816      1.7663      1.7816      1.8276      1.9057      2.0179      2.1666      2.3551      2.5868    
  2.8658      3.1964      3.5837      4.0327      4.5488      5.1366      5.7996      6.5394      7.7460      8.6879    
  9.6862      10.722      11.771      12.802      13.783      14.675      15.444      16.055      16.480      16.698    
  16.698      16.480      16.055      15.444      14.675      13.783      12.802      11.771      10.722      9.6862    
  8.6879      7.7460      6.8735      6.0781      5.3625      4.7261      4.1660      3.6773      3.2548      2.8930    
  2.5868      2.3312      2.1216      1.9541      1.8249      1.7310      1.6699      1.6397      1.6397      1.6699    
  1.7310      1.8249      1.9541      2.1216      2.3312      2.5868      2.8930      3.2548      3.6773      4.1660    
  4.7262      5.3625      6.0781      6.8736      8.2308      9.2337      10.289      11.374      12.460      13.513    
  14.496      15.370      16.097      16.643      16.982      17.097      16.982      16.643      16.097      15.370    
  14.496      13.513      12.460      11.374      10.289      9.2337      8.2308      7.2963      6.4400      5.6665    
  4.9764      4.3670      3.8340      3.3719      2.9750      2.6379      2.3551      2.1216      1.9330      1.7850    
  1.6740      1.5970      1.5517      1.5368      1.5517      1.5970      1.6740      1.7850      1.9330      2.1216    
  2.3551      2.6379      2.9750      3.3719      3.8340      4.3670      4.9764      5.6665      6.4400      7.2963    
  8.8140      9.8799      10.991      12.121      13.237      14.300      15.272      16.110      16.777      17.242    
  17.480      17.480      17.242      16.777      16.110      15.272      14.300      13.237      12.121      10.991    
  9.8799      8.8140      7.8132      6.8906      6.0531      5.3030      4.6385      4.0557      3.5491      3.1127    
  2.7407      2.4271      2.1666      1.9541      1.7850      1.6551      1.5610      1.4999      1.4698      1.4698    
  1.4999      1.5610      1.6551      1.7850      1.9541      2.1666      2.4271      2.7407      3.1127      3.5491    
  4.0557      4.6385      5.3030      6.0531      6.8906      7.8132      9.5000      10.629      11.792      12.959    
  14.093      15.153      16.097      16.882      17.473      17.840      17.964      17.840      17.473      16.882    
  16.097      15.153      14.093      12.959      11.792      10.629      9.5000      8.4302      7.4362      6.5284    
  5.7113      4.9849      4.3458      3.7889      3.3080      2.8966      2.5483      2.2573      2.0179      1.8249    
  1.6740      1.5610      1.4828      1.4368      1.4217      1.4368      1.4828      1.5610      1.6740      1.8249    
  2.0179      2.2573      2.5483      2.8966      3.3080      3.7889      4.3458      4.9849      5.7113      6.5284    
  7.4362      8.4302      10.289      11.477      12.685      13.878      15.016      16.055      16.953      17.668    
  18.166      18.421      18.421      18.166      17.668      16.953      16.055      15.016      13.878      12.685    
  11.477      10.289      9.1507      8.0825      7.0991      6.2082      5.4123      4.7097      4.0957      3.5642    
  3.1083      2.7208      2.3953      2.1255      1.9057      1.7310      1.5970      1.4999      1.4368      1.4058    
  1.4058      1.4368      1.4999      1.5970      1.7310      1.9057      2.1255      2.3953      2.7208      3.1083    
  3.5642      4.0957      4.7097      5.4123      6.2082      7.0991      8.0825      9.1507      11.175      12.412    
  13.652      14.856      15.981      16.983      17.817      18.445      18.835      18.967      18.835      18.445    
  17.817      16.983      15.981      14.856      13.652      12.412      11.175      9.9727      8.8314      7.7699    
  6.8002      5.9281      5.1543      4.4756      3.8865      3.3797      2.9478      2.5832      2.2791      2.0290    
  1.8276      1.6699      1.5517      1.4698      1.4217      1.4058      1.4217      1.4698      1.5517      1.6699    
  1.8276      2.0290      2.2791      2.5832      2.9478      3.3797      3.8865      4.4756      5.1543      5.9281    
  6.8002      7.7699      8.8314      9.9727      12.142      13.415      14.671      15.868      16.961      17.907    
  18.661      19.186      19.456      19.456      19.186      18.661      17.907      16.961      15.868      14.671    
  13.415      12.142      10.886      9.6781      8.5410      7.4911      6.5383      5.6868      4.9359      4.2815    
  3.7168      3.2340      2.8249      2.4819      2.1976      1.9660      1.7816      1.6397      1.5368      1.4698    
  1.4368      1.4368      1.4698      1.5368      1.6397      1.7816      1.9660      2.1976      2.4819      2.8249    
  3.2340      3.7168      4.2815      4.9359      5.6868      6.5383      7.4911      8.5410      9.6781      10.886    
  13.163      14.455      15.708      16.879      17.924      18.796      19.453      19.862      20.001      19.862    
  19.453      18.796      17.924      16.879      15.708      14.455      13.163      11.870      10.609      9.4049    
  8.2791      7.2457      6.3130      5.4839      4.7568      4.1266      3.5857      3.1258      2.7383      2.4153    
  2.1495      1.9349      1.7663      1.6397      1.5517      1.4999      1.4828      1.4999      1.5517      1.6397    
  1.7663      1.9349      2.1495      2.4153      2.7383      3.1258      3.5857      4.1266      4.7568      5.4839    
  6.3130      7.2457      8.2791      9.4049      10.609      11.870      14.207      15.496      16.726      17.849    
  18.817      19.586      20.121      20.396      20.396      20.121      19.586      18.817      17.849      16.726    
  15.496      14.207      12.897      11.600      10.345      9.1546      8.0470      7.0347      6.1250      5.3199    
  4.6170      4.0106      3.4926      3.0543      2.6869      2.3823      2.1335      1.9349      1.7816      1.6699    
  1.5970      1.5610      1.5610      1.5970      1.6699      1.7816      1.9349      2.1335      2.3823      2.6869    
  3.0543      3.4926      4.0106      4.6170      5.3199      6.1250      7.0347      8.0470      9.1546      10.345    
  11.600      12.897      15.231      16.486      17.646      18.669      19.514      20.147      20.538      20.671    
  20.538      20.147      19.514      18.669      17.646      16.486      15.231      13.928      12.620      11.335    
  10.099      8.9308      7.8476      6.8604      5.9759      5.1956      4.5168      3.9334      3.4370      3.0188    
  2.6698      2.3823      2.1495      1.9660      1.8276      1.7310      1.6740      1.6551      1.6740      1.7310    
  1.8276      1.9660      2.1495      2.3823      2.6698      3.0188      3.4370      3.9334      4.5168      5.1956    
  5.9759      6.8604      7.8476      8.9308      10.099      11.335      12.620      13.928      16.145      17.292    
  18.315      19.183      19.866      20.338      20.579      20.579      20.338      19.866      19.183      18.315    
  17.292      16.145      14.910      13.628      12.340      11.083      9.8768      8.7392      7.6852      6.7258    
  5.8675      5.1120      4.4565      3.8948      3.4185      3.0188      2.6869      2.4153      2.1976      2.0290    
  1.9057      1.8249      1.7850      1.7850      1.8249      1.9057      2.0290      2.1976      2.4153      2.6869    