    2    2    1    1
  0.2002393E+02  0.3840297E-09  0.3840297E-09  0.3840297E-09  0.5000000E-15
  1.000000000000000E-004
  CAR 
 Name                                    
      8    165      8
 
  0.0000000E+00  0.0000000E+00  0.0000000E+00  0.4901961E-02
    1       -6.181781   1.000000
    2        5.776692   1.000000
    3        5.776692   1.000000
    4        5.776692   1.000000
    5        8.296693   0.000000
    6        8.296693   0.000000
    7        8.296693   0.000000
    8        8.983474   0.000000
 
  0.1666667E+00  0.0000000E+00  0.0000000E+00  0.3921569E-01
    1       -5.820430   1.000000
    2        3.379793   1.000000
    3        5.325482   1.000000
    4        5.325482   1.000000
    5        8.034505   0.000000
    6        8.943160   0.000000
    7        8.943160   0.000000
    8       11.092704   0.000000
 
  0.3333333E+00  0.0000000E+00  0.0000000E+00  0.3921569E-01
    1       -4.803316   1.000000
    2        0.424724   1.000000
    3        4.777655   1.000000
    4        4.777655   1.000000
    5        7.430393   0.000000
    6        9.233449   0.000000
    7        9.233449   0.000000
    8       13.449996   0.000000
 
  0.5000000E+00  0.0000000E+00  0.0000000E+00  0.1960784E-01
    1       -3.842898   1.000000
    2       -1.215787   1.000000
    3        4.580873   1.000000
    4        4.580873   1.000000
    5        7.202297   0.000000
    6        9.063763   0.000000
    7        9.063763   0.000000
    8       13.283848   0.000000
 
  0.1666667E+00  0.1666667E+00  0.0000000E+00  0.2941176E-01
    1       -5.697537   1.000000
    2        3.724355   1.000000
    3        4.579709   1.000000
    4        4.579709   1.000000
    5        7.403583   0.000000
    6        9.965692   0.000000
    7       10.073982   0.000000
    8       10.073983   0.000000
 
  0.3333333E+00  0.1666667E+00  0.0000000E+00  0.1176471E+00
    1       -4.881615   1.000000
    2        1.328899   1.000000
    3        3.767853   1.000000
    4        4.027906   1.000000
    5        7.657179   0.000000
    6        9.750742   0.000000
    7       10.222048   0.000000
    8       10.799006   0.000000
 
  0.5000000E+00  0.1666667E+00  0.0000000E+00  0.1176471E+00
    1       -3.685753   1.000000
    2       -0.844678   1.000000
    3        2.980171   1.000000
    4        3.999838   1.000000
    5        7.725253   0.000000
    6        9.804639   0.000000
    7       10.345441   0.000000
    8       12.101718   0.000000
 
 -0.3333333E+00  0.1666667E+00  0.0000000E+00  0.1176471E+00
    1       -4.072771   1.000000
    2       -0.243252   1.000000
    3        2.707655   1.000000
    4        4.480611   1.000000
    5        8.139622   0.000000
    6        9.807179   0.000000
    7        9.953570   0.000000
    8       12.962467   0.000000
 
 -0.1666667E+00  0.1666667E+00  0.0000000E+00  0.5882353E-01
    1       -5.231765   1.000000
    2        2.048432   1.000000
    3        3.343083   1.000000
    4        5.214066   1.000000
    5        8.740725   0.000000
    6        9.287243   0.000000
    7        9.540844   0.000000
    8       11.323564   0.000000
 
  0.3333333E+00  0.3333333E+00  0.0000000E+00  0.2941176E-01
    1       -4.277213   1.000000
    2        0.762224   1.000000
    3        3.356039   1.000000
    4        3.356039   1.000000
    5        6.401847   0.000000
    6        7.659218   0.000000
    7       12.965727   0.000000
    8       12.965730   0.000000
 
  0.5000000E+00  0.3333333E+00  0.0000000E+00  0.1176471E+00
    1       -3.112010   1.000000
    2       -0.788093   1.000000
    3        2.119516   1.000000
    4        3.220351   1.000000
    5        6.733686   0.000000
    6        8.400006   0.000000
    7       13.154740   0.000000
    8       13.159625   0.000000
 
 -0.3333333E+00  0.3333333E+00  0.0000000E+00  0.5882353E-01
    1       -2.912294   1.000000
    2       -0.995297   1.000000
    3        1.328780   1.000000
    4        3.663740   1.000000
    5        7.241221   0.000000
    6       11.481027   0.000000
    7       12.188036   0.000000
    8       12.753045   0.000000
 
  0.5000000E+00  0.5000000E+00  0.0000000E+00  0.1470588E-01
    1       -2.038015   1.000000
    2       -2.038015   1.000000
    3        2.922032   1.000000
    4        2.922032   1.000000
    5        6.375227   0.000000
    6        6.375227   0.000000
    7       15.751262   0.000000
    8       15.751766   0.000000
 
  0.5000000E+00  0.3333333E+00  0.1666667E+00  0.1176471E+00
    1       -3.890546   1.000000
    2        0.130271   1.000000
    3        2.180692   1.000000
    4        3.469288   1.000000
    5        8.548697   0.000000
    6        9.393330   0.000000
    7        9.933890   0.000000
    8       12.765268   0.000000
 
 -0.3333333E+00  0.3333333E+00  0.1666667E+00  0.1176471E+00
    1       -2.901876   1.000000
    2       -1.070962   1.000000
    3        1.737903   1.000000
    4        2.998084   1.000000
    5        9.041705   0.000000
    6        9.251513   0.000000
    7       11.784033   0.000000
    8       12.206036   0.000000
 
  0.0000000E+00  0.0000000E+00  0.0000000E+00  0.0000000E+00
    1       -6.181781   1.000000
    2        5.776692   1.000000
    3        5.776692   1.000000
    4        5.776692   1.000000
    5        8.296693   0.000000
    6        8.296693   0.000000
    7        8.296693   0.000000
    8        8.983474   0.000000
 
  0.1388889E-01  0.0000000E+00  0.1388889E-01  0.0000000E+00
    1       -6.178409   1.000000
    2        5.752713   1.000000
    3        5.761812   1.000000
    4        5.761812   1.000000
    5        8.287780   0.000000
    6        8.315676   0.000000
    7        8.315676   0.000000
    8        9.006999   0.000000
 
  0.2777778E-01  0.0000000E+00  0.2777778E-01  0.0000000E+00
    1       -6.168279   1.000000
    2        5.682897   1.000000
    3        5.718509   1.000000
    4        5.718509   1.000000
    5        8.261393   0.000000
    6        8.371271   0.000000
    7        8.371271   0.000000
    8        9.075154   0.000000
 
  0.4166666E-01  0.0000000E+00  0.4166666E-01  0.0000000E+00
    1       -6.151394   1.000000
    2        5.572802   1.000000
    3        5.650347   1.000000
    4        5.650347   1.000000
    5        8.218566   0.000000
    6        8.459892   0.000000
    7        8.459892   0.000000
    8        9.181463   0.000000
 
  0.5555555E-01  0.0000000E+00  0.5555555E-01  0.0000000E+00
    1       -6.127756   1.000000
    2        5.429616   1.000000
    3        5.562050   1.000000
    4        5.562050   1.000000
    5        8.160878   0.000000
    6        8.576790   0.000000
    7        8.576790   0.000000
    8        9.317056   0.000000
 
  0.6944444E-01  0.0000000E+00  0.6944444E-01  0.0000000E+00
    1       -6.097369   1.000000
    2        5.260442   1.000000
    3        5.458450   1.000000
    4        5.458450   1.000000
    5        8.090265   0.000000
    6        8.717101   0.000000
    7        8.717101   0.000000
    8        9.471981   0.000000
 
  0.8333333E-01  0.0000000E+00  0.8333333E-01  0.0000000E+00
    1       -6.060261   1.000000
    2        5.071407   1.000000
    3        5.343854   1.000000
    4        5.343854   1.000000
    5        8.008830   0.000000
    6        8.876442   0.000000
    7        8.876442   0.000000
    8        9.635494   0.000000
 
  0.9722222E-01  0.0000000E+00  0.9722222E-01  0.0000000E+00
    1       -6.016455   1.000000
    2        4.867402   1.000000
    3        5.221842   1.000000
    4        5.221842   1.000000
    5        7.918717   0.000000
    6        9.051193   0.000000
    7        9.051193   0.000000
    8        9.795362   0.000000
 
  0.1111111E+00  0.0000000E+00  0.1111111E+00  0.0000000E+00
    1       -5.965961   1.000000
    2        4.652135   1.000000
    3        5.095226   1.000000
    4        5.095226   1.000000
    5        7.821975   0.000000
    6        9.238455   0.000000
    7        9.238455   0.000000
    8        9.936430   0.000000
 
  0.1250000E+00  0.0000000E+00  0.1250000E+00  0.0000000E+00
    1       -5.908786   1.000000
    2        4.428384   1.000000
    3        4.966200   1.000000
    4        4.966200   1.000000
    5        7.720494   0.000000
    6        9.435960   0.000000
    7        9.435964   0.000000
    8       10.039716   0.000000
 
  0.1388889E+00  0.0000000E+00  0.1388889E+00  0.0000000E+00
    1       -5.844976   1.000000
    2        4.198214   1.000000
    3        4.836447   1.000000
    4        4.836447   1.000000
    5        7.615969   0.000000
    6        9.641922   0.000000
    7        9.641922   0.000000
    8       10.084914   0.000000
 
  0.1527778E+00  0.0000000E+00  0.1527778E+00  0.0000000E+00
    1       -5.774550   1.000000
    2        3.963153   1.000000
    3        4.707278   1.000000
    4        4.707278   1.000000
    5        7.509885   0.000000
    6        9.854963   0.000000
    7        9.854963   0.000000
    8       10.059227   0.000000
 
  0.1666667E+00  0.0000000E+00  0.1666667E+00  0.0000000E+00
    1       -5.697537   1.000000
    2        3.724356   1.000000
    3        4.579709   1.000000
    4        4.579709   1.000000
    5        7.403583   0.000000
    6        9.965692   0.000000
    7       10.073982   0.000000
    8       10.073982   0.000000
 
  0.1805555E+00  0.0000000E+00  0.1805555E+00  0.0000000E+00
    1       -5.613989   1.000000
    2        3.482693   1.000000
    3        4.454540   1.000000
    4        4.454540   1.000000
    5        7.298175   0.000000
    6        9.820026   0.000000
    7       10.298100   0.000000
    8       10.298100   0.000000
 
  0.1944444E+00  0.0000000E+00  0.1944444E+00  0.0000000E+00
    1       -5.523935   1.000000
    2        3.238832   1.000000
    3        4.332406   1.000000
    4        4.332406   1.000000
    5        7.194623   0.000000
    6        9.640292   0.000000
    7       10.526603   0.000000
    8       10.526604   0.000000
 
  0.2083333E+00  0.0000000E+00  0.2083333E+00  0.0000000E+00
    1       -5.427419   1.000000
    2        2.993292   1.000000
    3        4.213812   1.000000
    4        4.213812   1.000000
    5        7.093787   0.000000
    6        9.440758   0.000000
    7       10.758921   0.000000
    8       10.758947   0.000000
 
  0.2222222E+00  0.0000000E+00  0.2222222E+00  0.0000000E+00
    1       -5.324483   1.000000
    2        2.746499   1.000000
    3        4.099182   1.000000
    4        4.099182   1.000000
    5        6.996385   0.000000
    6        9.231247   0.000000
    7       10.994579   0.000000
    8       10.994579   0.000000
 
  0.2361111E+00  0.0000000E+00  0.2361111E+00  0.0000000E+00
    1       -5.215179   1.000000
    2        2.498793   1.000000
    3        3.988856   1.000000
    4        3.988856   1.000000
    5        6.903044   0.000000
    6        9.018206   0.000000
    7       11.233191   0.000000
    8       11.233192   0.000000
 
  0.2500000E+00  0.0000000E+00  0.2500000E+00  0.0000000E+00
    1       -5.099563   1.000000
    2        2.250478   1.000000
    3        3.883118   1.000000
    4        3.883118   1.000000
    5        6.814309   0.000000
    6        8.805890   0.000000
    7       11.474437   0.000000
    8       11.474438   0.000000
 
  0.2638889E+00  0.0000000E+00  0.2638889E+00  0.0000000E+00
    1       -4.977712   1.000000
    2        2.001806   1.000000
    3        3.782198   1.000000
    4        3.782198   1.000000
    5        6.730643   0.000000
    6        8.597156   0.000000
    7       11.718047   0.000000
    8       11.718047   0.000000
 
  0.2777778E+00  0.0000000E+00  0.2777778E+00  0.0000000E+00
    1       -4.849682   1.000000
    2        1.753085   1.000000
    3        3.686308   1.000000
    4        3.686308   1.000000
    5        6.652497   0.000000
    6        8.393983   0.000000
    7       11.963835   0.000000
    8       11.963842   0.000000
 
  0.2916667E+00  0.0000000E+00  0.2916667E+00  0.0000000E+00
    1       -4.715538   1.000000
    2        1.504529   1.000000
    3        3.595612   1.000000
    4        3.595612   1.000000
    5        6.580227   0.000000
    6        8.197751   0.000000
    7       12.211625   0.000000
    8       12.211625   0.000000
 
  0.3055556E+00  0.0000000E+00  0.3055556E+00  0.0000000E+00
    1       -4.575356   1.000000
    2        1.256377   1.000000
    3        3.510256   1.000000
    4        3.510256   1.000000
    5        6.514166   0.000000
    6        8.009444   0.000000
    7       12.461280   0.000000
    8       12.461344   0.000000
 
  0.3194444E+00  0.0000000E+00  0.3194444E+00  0.0000000E+00
    1       -4.429218   1.000000
    2        1.008863   1.000000
    3        3.430363   1.000000
    4        3.430363   1.000000
    5        6.454615   0.000000
    6        7.829766   0.000000
    7       12.712681   0.000000
    8       12.712687   0.000000
 
  0.3333333E+00  0.0000000E+00  0.3333333E+00  0.0000000E+00
    1       -4.277214   1.000000
    2        0.762225   1.000000
    3        3.356039   1.000000
    4        3.356039   1.000000
    5        6.401847   0.000000
    6        7.659218   0.000000
    7       12.965727   0.000000
    8       12.965743   0.000000
 
  0.3472222E+00  0.0000000E+00  0.3472222E+00  0.0000000E+00
    1       -4.119444   1.000000
    2        0.516706   1.000000
    3        3.287376   1.000000
    4        3.287376   1.000000
    5        6.356104   0.000000
    6        7.498149   0.000000
    7       13.220297   0.000000
    8       13.220298   0.000000
 
  0.3611111E+00  0.0000000E+00  0.3611111E+00  0.0000000E+00
    1       -3.956019   1.000000
    2        0.272580   1.000000
    3        3.224455   1.000000
    4        3.224455   1.000000
    5        6.317633   0.000000
    6        7.346796   0.000000
    7       13.476294   0.000000
    8       13.476295   0.000000
 
  0.3750000E+00  0.0000000E+00  0.3750000E+00  0.0000000E+00
    1       -3.787033   1.000000
    2        0.030084   1.000000
    3        3.167343   1.000000
    4        3.167343   1.000000
    5        6.286642   0.000000
    6        7.205305   0.000000
    7       13.733533   0.000000
    8       13.733535   0.000000
 
  0.3888889E+00  0.0000000E+00  0.3888889E+00  0.0000000E+00
    1       -3.612603   1.000000
    2       -0.210527   1.000000
    3        3.116100   1.000000
    4        3.116100   1.000000
    5        6.263335   0.000000
    6        7.073755   0.000000
    7       13.991767   0.000000
    8       13.991824   0.000000
 
  0.4027778E+00  0.0000000E+00  0.4027778E+00  0.0000000E+00
    1       -3.432834   1.000000
    2       -0.449004   1.000000
    3        3.070777   1.000000
    4        3.070777   1.000000
    5        6.247905   0.000000
    6        6.952177   0.000000
    7       14.250601   0.000000
    8       14.250642   0.000000
 
  0.4166667E+00  0.0000000E+00  0.4166667E+00  0.0000000E+00
    1       -3.247896   1.000000
    2       -0.685106   1.000000
    3        3.031416   1.000000
    4        3.031416   1.000000
    5        6.240537   0.000000
    6        6.840541   0.000000
    7       14.509349   0.000000
    8       14.509407   0.000000
 
  0.4305555E+00  0.0000000E+00  0.4305555E+00  0.0000000E+00
    1       -3.057916   1.000000
    2       -0.918568   1.000000
    3        2.998055   1.000000
    4        2.998055   1.000000
    5        6.241409   0.000000
    6        6.738816   0.000000
    7       14.766846   0.000000
    8       14.766864   0.000000
 
  0.4444444E+00  0.0000000E+00  0.4444444E+00  0.0000000E+00
    1       -2.863058   1.000000
    2       -1.149148   1.000000
    3        2.970720   1.000000
    4        2.970720   1.000000
    5        6.250695   0.000000
    6        6.646894   0.000000
    7       15.020830   0.000000
    8       15.020835   0.000000
 
  0.4583333E+00  0.0000000E+00  0.4583333E+00  0.0000000E+00
    1       -2.663465   1.000000
    2       -1.376613   1.000000
    3        2.949434   1.000000
    4        2.949434   1.000000
    5        6.268560   0.000000
    6        6.564693   0.000000
    7       15.266686   0.000000
    8       15.266738   0.000000
 
  0.4722222E+00  0.0000000E+00  0.4722222E+00  0.0000000E+00
    1       -2.459307   1.000000
    2       -1.600725   1.000000
    3        2.934218   1.000000
    4        2.934218   1.000000
    5        6.295167   0.000000
    6        6.492101   0.000000
    7       15.493858   0.000000
    8       15.493996   0.000000
 
  0.4861111E+00  0.0000000E+00  0.4861111E+00  0.0000000E+00
    1       -2.250761   1.000000
    2       -1.821250   1.000000
    3        2.925084   1.000000
    4        2.925084   1.000000
    5        6.330674   0.000000
    6        6.428990   0.000000
    7       15.675084   0.000000
    8       15.675709   0.000000
 
  0.5000000E+00  0.0000000E+00  0.5000000E+00  0.0000000E+00
    1       -2.038016   1.000000
    2       -2.038015   1.000000
    3        2.922032   1.000000
    4        2.922032   1.000000
    5        6.375227   0.000000
    6        6.375227   0.000000
    7       15.751165   0.000000
    8       15.755074   0.000000
 
  0.4945652E+00  0.1630435E-01  0.5108696E+00  0.0000000E+00
    1       -2.120026   1.000000
    2       -1.952193   1.000000
    3        2.907410   1.000000
    4        2.907993   1.000000
    5        6.383354   0.000000
    6        6.421463   0.000000
    7       15.687158   0.000000
    8       15.709306   0.000000
 
  0.4891304E+00  0.3260870E-01  0.5217391E+00  0.0000000E+00
    1       -2.197542   1.000000
    2       -1.863451   1.000000
    3        2.864034   1.000000
    4        2.868570   1.000000
    5        6.445240   0.000000
    6        6.519539   0.000000
    7       15.461531   0.000000
    8       15.608378   0.000000
 
  0.4836957E+00  0.4891304E-01  0.5326087E+00  0.0000000E+00
    1       -2.269997   1.000000
    2       -1.772841   1.000000
    3        2.794867   1.000000
    4        2.809522   1.000000
    5        6.557362   0.000000
    6        6.664625   0.000000
    7       15.091764   0.000000
    8       15.465729   0.000000
 
  0.4782609E+00  0.6521739E-01  0.5434783E+00  0.0000000E+00
    1       -2.336950   1.000000
    2       -1.681652   1.000000
    3        2.704849   1.000000
    4        2.737826   1.000000
    5        6.714290   0.000000
    6        6.850818   0.000000
    7       14.642693   0.000000
    8       15.280026   0.000000
 
  0.4728261E+00  0.8152174E-01  0.5543478E+00  0.0000000E+00
    1       -2.398068   1.000000
    2       -1.591386   1.000000
    3        2.599637   1.000000
    4        2.660609   1.000000
    5        6.909931   0.000000
    6        7.072227   0.000000
    7       14.155312   0.000000
    8       15.048673   0.000000
 
  0.4673913E+00  0.9782609E-01  0.5652174E+00  0.0000000E+00
    1       -2.453101   1.000000
    2       -1.503787   1.000000
    3        2.484653   1.000000
    4        2.584509   1.000000
    5        7.138456   0.000000
    6        7.323575   0.000000
    7       13.650643   0.000000
    8       14.779598   0.000000
 
  0.4619565E+00  0.1141304E+00  0.5760869E+00  0.0000000E+00
    1       -2.501862   1.000000
    2       -1.420824   1.000000
    3        2.364619   1.000000
    4        2.515447   1.000000
    5        7.394779   0.000000
    6        7.600400   0.000000
    7       13.139530   0.000000
    8       14.484256   0.000000
 
  0.4565218E+00  0.1304348E+00  0.5869565E+00  0.0000000E+00
    1       -2.544244   1.000000
    2       -1.344613   1.000000
    3        2.243408   1.000000
    4        2.458556   1.000000
    5        7.674650   0.000000
    6        7.898966   0.000000
    7       12.628294   0.000000
    8       14.173872   0.000000
 
  0.4510870E+00  0.1467391E+00  0.5978261E+00  0.0000000E+00
    1       -2.580186   1.000000
    2       -1.277287   1.000000
    3        2.124115   1.000000
    4        2.418173   1.000000
    5        7.974572   0.000000
    6        8.215995   0.000000
    7       12.121313   0.000000
    8       13.856492   0.000000
 
  0.4456522E+00  0.1630435E+00  0.6086956E+00  0.0000000E+00
    1       -2.609675   1.000000
    2       -1.220835   1.000000
    3        2.009195   1.000000
    4        2.397785   1.000000
    5        8.291643   0.000000
    6        8.548179   0.000000
    7       11.622442   0.000000
    8       13.537418   0.000000
 
  0.4402174E+00  0.1793478E+00  0.6195652E+00  0.0000000E+00
    1       -2.632743   1.000000
    2       -1.176868   1.000000
    3        1.900580   1.000000
    4        2.399900   1.000000
    5        8.623364   0.000000
    6        8.890944   0.000000
    7       11.136685   0.000000
    8       13.220129   0.000000
 
  0.4347826E+00  0.1956522E+00  0.6304348E+00  0.0000000E+00
    1       -2.649448   1.000000
    2       -1.146413   1.000000
    3        1.799816   1.000000
    4        2.425905   1.000000
    5        8.967440   0.000000
    6        9.233520   0.000000
    7       10.675332   0.000000
    8       12.907213   0.000000
 
  0.4293478E+00  0.2119565E+00  0.6413044E+00  0.0000000E+00
    1       -2.659879   1.000000
    2       -1.129764   1.000000
    3        1.708139   1.000000
    4        2.475930   1.000000
    5        9.321485   0.000000
    6        9.525141   0.000000
    7       10.289879   0.000000
    8       12.600964   0.000000
 
  0.4239130E+00  0.2282609E+00  0.6521739E+00  0.0000000E+00
    1       -2.664140   1.000000
    2       -1.126449   1.000000
    3        1.626555   1.000000
    4        2.548802   1.000000
    5        9.497112   0.000000
    6        9.682537   0.000000
    7       10.250092   0.000000
    8       12.304057   0.000000
 
  0.4184782E+00  0.2445652E+00  0.6630435E+00  0.0000000E+00
    1       -2.662363   1.000000
    2       -1.135330   1.000000
    3        1.555885   1.000000
    4        2.642036   1.000000
    5        9.144852   0.000000
    6       10.045703   0.000000
    7       10.562077   0.000000
    8       12.020916   0.000000
 
  0.4130435E+00  0.2608696E+00  0.6739131E+00  0.0000000E+00
    1       -2.654679   1.000000
    2       -1.154832   1.000000
    3        1.496799   1.000000
    4        2.751880   1.000000
    5        8.745109   0.000000
    6       10.399508   0.000000
    7       10.951242   0.000000
    8       11.762409   0.000000
 
  0.4076087E+00  0.2771739E+00  0.6847826E+00  0.0000000E+00
    1       -2.641224   1.000000
    2       -1.183149   1.000000
    3        1.449840   1.000000
    4        2.873269   1.000000
    5        8.353620   0.000000
    6       10.704375   0.000000
    7       11.364902   0.000000
    8       11.567325   0.000000
 
  0.4021739E+00  0.2934783E+00  0.6956522E+00  0.0000000E+00
    1       -2.622133   1.000000
    2       -1.218454   1.000000
    3        1.415453   1.000000
    4        2.999680   1.000000
    5        7.985337   0.000000
    6       10.824344   0.000000
    7       11.570583   0.000000
    8       11.792396   0.000000
 
  0.3967391E+00  0.3097826E+00  0.7065217E+00  0.0000000E+00
    1       -2.597527   1.000000
    2       -1.259049   1.000000
    3        1.393982   1.000000
    4        3.122787   1.000000
    5        7.650315   0.000000
    6       10.700129   0.000000
    7       11.829958   0.000000
    8       12.229503   0.000000
 
  0.3913043E+00  0.3260870E+00  0.7173913E+00  0.0000000E+00
    1       -2.567520   1.000000
    2       -1.303503   1.000000
    3        1.385681   1.000000
    4        3.232101   1.000000
    5        7.359159   0.000000
    6       10.490164   0.000000
    7       12.184427   0.000000
    8       12.673243   0.000000
 
  0.3858696E+00  0.3423913E+00  0.7282609E+00  0.0000000E+00
    1       -2.532193   1.000000
    2       -1.350660   1.000000
    3        1.390725   1.000000
    4        3.315007   1.000000
    5        7.124229   0.000000
    6       10.263007   0.000000
    7       12.559636   0.000000
    8       13.120642   0.000000
 
  0.3804348E+00  0.3586957E+00  0.7391304E+00  0.0000000E+00
    1       -2.491617   1.000000
    2       -1.399688   1.000000
    3        1.409187   1.000000
    4        3.357989   1.000000
    5        6.958784   0.000000
    6       10.035710   0.000000
    7       12.919578   0.000000
    8       13.567046   0.000000
 
  0.3750000E+00  0.3750000E+00  0.7500000E+00  0.0000000E+00
    1       -2.445814   1.000000
    2       -1.450067   1.000000
    3        1.441073   1.000000
    4        3.349810   1.000000
    5        6.873982   0.000000
    6        9.813832   0.000000
    7       13.171245   0.000000
    8       13.689127   0.000000
 
  0.3668478E+00  0.3668478E+00  0.7336956E+00  0.0000000E+00
    1       -2.522370   1.000000
    2       -1.371156   1.000000
    3        1.390291   1.000000
    4        3.405423   1.000000
    5        6.939017   0.000000
    6       10.143239   0.000000
    7       12.972724   0.000000
    8       13.481270   0.000000
 
  0.3586957E+00  0.3586957E+00  0.7173913E+00  0.0000000E+00
    1       -2.606610   1.000000
    2       -1.287334   1.000000
    3        1.353742   1.000000
    4        3.463989   1.000000
    5        7.007534   0.000000
    6       10.475515   0.000000
    7       12.776964   0.000000
    8       13.283791   0.000000
 
  0.3505435E+00  0.3505435E+00  0.7010869E+00  0.0000000E+00
    1       -2.698121   1.000000
    2       -1.198618   1.000000
    3        1.331326   1.000000
    4        3.525388   1.000000
    5        7.079382   0.000000
    6       10.808065   0.000000
    7       12.584237   0.000000
    8       13.094665   0.000000
 
  0.3423913E+00  0.3423913E+00  0.6847826E+00  0.0000000E+00
    1       -2.796283   1.000000
    2       -1.105019   1.000000
    3        1.322731   1.000000
    4        3.589498   1.000000
    5        7.154394   0.000000
    6       11.136039   0.000000
    7       12.394845   0.000000
    8       12.919293   0.000000
 
  0.3342391E+00  0.3342391E+00  0.6684783E+00  0.0000000E+00
    1       -2.900393   1.000000
    2       -1.006537   1.000000
    3        1.327459   1.000000
    4        3.656180   1.000000
    5        7.232382   0.000000
    6       11.448281   0.000000
    7       12.208487   0.000000
    8       12.767568   0.000000
 
  0.3260870E+00  0.3260870E+00  0.6521739E+00  0.0000000E+00
    1       -3.009656   1.000000
    2       -0.903227   1.000000
    3        1.344886   1.000000
    4        3.725263   1.000000
    5        7.313119   0.000000
    6       11.714619   0.000000
    7       12.025889   0.000000
    8       12.669200   0.000000
 
  0.3179348E+00  0.3179348E+00  0.6358696E+00  0.0000000E+00
    1       -3.123240   1.000000
    2       -0.795088   1.000000
    3        1.374327   1.000000
    4        3.796589   1.000000
    5        7.396363   0.000000
    6       11.846944   0.000000
    7       11.864161   0.000000
    8       12.695535   0.000000
 
  0.3097826E+00  0.3097826E+00  0.6195652E+00  0.0000000E+00
    1       -3.240305   1.000000
    2       -0.682141   1.000000
    3        1.415057   1.000000
    4        3.869975   1.000000
    5        7.481831   0.000000
    6       11.671831   0.000000
    7       11.852945   0.000000
    8       12.662425   0.000000
 
  0.3016304E+00  0.3016304E+00  0.6032609E+00  0.0000000E+00
    1       -3.360042   1.000000
    2       -0.564409   1.000000
    3        1.466346   1.000000
    4        3.945224   1.000000
    5        7.569194   0.000000
    6       11.500604   0.000000
    7       11.749105   0.000000
    8       12.526170   0.000000
 
  0.2934782E+00  0.2934782E+00  0.5869565E+00  0.0000000E+00
    1       -3.481694   1.000000
    2       -0.441919   1.000000
    3        1.527487   1.000000
    4        4.022115   1.000000
    5        7.658079   0.000000
    6       11.333372   0.000000
    7       11.611671   0.000000
    8       12.395091   0.000000
 
  0.2853261E+00  0.2853261E+00  0.5706522E+00  0.0000000E+00
    1       -3.604525   1.000000
    2       -0.314694   1.000000
    3        1.597809   1.000000
    4        4.100419   1.000000
    5        7.748062   0.000000
    6       11.170217   0.000000
    7       11.462859   0.000000
    8       12.269290   0.000000
 
  0.2771739E+00  0.2771739E+00  0.5543479E+00  0.0000000E+00
    1       -3.727885   1.000000
    2       -0.182764   1.000000
    3        1.676681   1.000000
    4        4.179882   1.000000
    5        7.838652   0.000000
    6       11.011188   0.000000
    7       11.310803   0.000000
    8       12.149086   0.000000
 
  0.2690218E+00  0.2690218E+00  0.5380435E+00  0.0000000E+00
    1       -3.851183   1.000000
    2       -0.046159   1.000000
    3        1.763517   1.000000
    4        4.260235   1.000000
    5        7.929292   0.000000
    6       10.856367   0.000000
    7       11.158959   0.000000
    8       12.036493   0.000000
 
  0.2608696E+00  0.2608696E+00  0.5217391E+00  0.0000000E+00
    1       -3.973887   1.000000
    2        0.095085   1.000000
    3        1.857770   1.000000
    4        4.341205   1.000000
    5        8.019349   0.000000
    6       10.705795   0.000000
    7       11.008994   0.000000
    8       11.927915   0.000000
 
  0.2527174E+00  0.2527174E+00  0.5054348E+00  0.0000000E+00
    1       -4.095524   1.000000
    2        0.240931   1.000000
    3        1.958939   1.000000
    4        4.422484   1.000000
    5        8.108107   0.000000
    6       10.559526   0.000000
    7       10.861812   0.000000
    8       11.827845   0.000000
 
  0.2445652E+00  0.2445652E+00  0.4891304E+00  0.0000000E+00
    1       -4.215674   1.000000
    2        0.391345   1.000000
    3        2.066562   1.000000
    4        4.503759   1.000000
    5        8.194765   0.000000
    6       10.417603   0.000000
    7       10.717918   0.000000
    8       11.735960   0.000000
 