  96  96   0   0
  0.2080188E+02  0.1257760E-08  0.1245754E-08  0.1274818E-08  0.5000000E-15
  1.000000000000000E-004
  CAR 
 MAPbI3-Cubic                            
      9.89803070    -22.32940284  301      1.22347984      1.00000000
    -22.329  0.0000E+00  0.0000E+00
    -22.222  0.0000E+00  0.0000E+00
    -22.115  0.0000E+00  0.0000E+00
    -22.007  0.0000E+00  0.0000E+00
    -21.900  0.0000E+00  0.0000E+00
    -21.792  0.0000E+00  0.0000E+00
    -21.685  0.0000E+00  0.0000E+00
    -21.577  0.0000E+00  0.0000E+00
    -21.470  0.0000E+00  0.0000E+00
    -21.363  0.0000E+00  0.0000E+00
    -21.255  0.0000E+00  0.0000E+00
    -21.148  0.0000E+00  0.0000E+00
    -21.040  0.0000E+00  0.0000E+00
    -20.933  0.0000E+00  0.0000E+00
    -20.825  0.0000E+00  0.1600E+02
    -20.718  0.0000E+00  0.1600E+02
    -20.611  0.0000E+00  0.1600E+02
    -20.503  0.0000E+00  0.1600E+02
    -20.396  0.0000E+00  0.1600E+02
    -20.288  0.0000E+00  0.1600E+02
    -20.181  0.0000E+00  0.1600E+02
    -20.073  0.0000E+00  0.1600E+02
    -19.966  0.0000E+00  0.1600E+02
    -19.859  0.0000E+00  0.1600E+02
    -19.751  0.0000E+00  0.1600E+02
    -19.644  0.0000E+00  0.1600E+02
    -19.536  0.0000E+00  0.1600E+02
    -19.429  0.0000E+00  0.1600E+02
    -19.322  0.0000E+00  0.1600E+02
    -19.214  0.0000E+00  0.1600E+02
    -19.107  0.0000E+00  0.1600E+02
    -18.999  0.0000E+00  0.1600E+02
    -18.892  0.0000E+00  0.1600E+02
    -18.784  0.0000E+00  0.1600E+02
    -18.677  0.0000E+00  0.1600E+02
    -18.570  0.0000E+00  0.1600E+02
    -18.462  0.0000E+00  0.1600E+02
    -18.355  0.0000E+00  0.1600E+02
    -18.247  0.0000E+00  0.1600E+02
    -18.140  0.0000E+00  0.1600E+02
    -18.032  0.0000E+00  0.1600E+02
    -17.925  0.0000E+00  0.1600E+02
    -17.818  0.0000E+00  0.1600E+02
    -17.710  0.0000E+00  0.1600E+02
    -17.603  0.0000E+00  0.1600E+02
    -17.495  0.0000E+00  0.1600E+02
    -17.388  0.0000E+00  0.1600E+02
    -17.280  0.0000E+00  0.1600E+02
    -17.173  0.6739E+02  0.4783E+02
    -17.066  0.0000E+00  0.9600E+02
    -16.958  0.0000E+00  0.9600E+02
    -16.851  0.0000E+00  0.9600E+02
    -16.743  0.0000E+00  0.9600E+02
    -16.636  0.0000E+00  0.9600E+02
    -16.528  0.0000E+00  0.9600E+02
    -16.421  0.0000E+00  0.9600E+02
    -16.314  0.0000E+00  0.9600E+02
    -16.206  0.0000E+00  0.9600E+02
    -16.099  0.0000E+00  0.9600E+02
    -15.991  0.0000E+00  0.9600E+02
    -15.884  0.0000E+00  0.9600E+02
    -15.776  0.0000E+00  0.9600E+02
    -15.669  0.0000E+00  0.9600E+02
    -15.562  0.0000E+00  0.9600E+02
    -15.454  0.0000E+00  0.9600E+02
    -15.347  0.0000E+00  0.9600E+02
    -15.239  0.0000E+00  0.9600E+02
    -15.132  0.0000E+00  0.9600E+02
    -15.025  0.0000E+00  0.9600E+02
    -14.917  0.0000E+00  0.9600E+02
    -14.810  0.0000E+00  0.9600E+02
    -14.702  0.0000E+00  0.9600E+02
    -14.595  0.0000E+00  0.9600E+02
    -14.487  0.0000E+00  0.9600E+02
    -14.380  0.0000E+00  0.9600E+02
    -14.273  0.0000E+00  0.9600E+02
    -14.165  0.0000E+00  0.9600E+02
    -14.058  0.0000E+00  0.9600E+02
    -13.950  0.0000E+00  0.9600E+02
    -13.843  0.0000E+00  0.9600E+02
    -13.735  0.0000E+00  0.9600E+02
    -13.628  0.0000E+00  0.9600E+02
    -13.521  0.0000E+00  0.9600E+02
    -13.413  0.0000E+00  0.9600E+02
    -13.306  0.7439E+02  0.1120E+03
    -13.198  0.0000E+00  0.1120E+03
    -13.091  0.0000E+00  0.1120E+03
    -12.983  0.0000E+00  0.1120E+03
    -12.876  0.0000E+00  0.1120E+03
    -12.769  0.0000E+00  0.1120E+03
    -12.661  0.0000E+00  0.1120E+03
    -12.554  0.0000E+00  0.1120E+03
    -12.446  0.0000E+00  0.1120E+03
    -12.339  0.0000E+00  0.1121E+03
    -12.231  0.1333E+01  0.1141E+03
    -12.124  0.4137E+01  0.1187E+03
    -12.017  0.5481E+01  0.1246E+03
    -11.909  0.3241E+01  0.1286E+03
    -11.802  0.1682E+02  0.1336E+03
    -11.694  0.0000E+00  0.1400E+03
    -11.587  0.6895E+00  0.1436E+03
    -11.480  0.7608E+01  0.1504E+03
    -11.372  0.1378E+01  0.1579E+03
    -11.265  0.0000E+00  0.1600E+03
    -11.157  0.0000E+00  0.1600E+03
    -11.050  0.0000E+00  0.1600E+03
    -10.942  0.0000E+00  0.1600E+03
    -10.835  0.0000E+00  0.1600E+03
    -10.728  0.0000E+00  0.1600E+03
    -10.620  0.0000E+00  0.1600E+03
    -10.513  0.0000E+00  0.1600E+03
    -10.405  0.0000E+00  0.1600E+03
    -10.298  0.0000E+00  0.1600E+03
    -10.190  0.0000E+00  0.1600E+03
    -10.083  0.0000E+00  0.1600E+03
     -9.976  0.0000E+00  0.1600E+03
     -9.868  0.0000E+00  0.1600E+03
     -9.761  0.0000E+00  0.1600E+03
     -9.653  0.0000E+00  0.1600E+03
     -9.546  0.0000E+00  0.1600E+03
     -9.438  0.0000E+00  0.1600E+03
     -9.331  0.0000E+00  0.1600E+03
     -9.224  0.2620E+02  0.1680E+03
     -9.116  0.2620E+02  0.1880E+03
     -9.009  0.0000E+00  0.1920E+03
     -8.901  0.0000E+00  0.1920E+03
     -8.794  0.0000E+00  0.1920E+03
     -8.686  0.0000E+00  0.1920E+03
     -8.579  0.0000E+00  0.1920E+03
     -8.472  0.0000E+00  0.1920E+03
     -8.364  0.0000E+00  0.1920E+03
     -8.257  0.0000E+00  0.1920E+03
     -8.149  0.0000E+00  0.1920E+03
     -8.042  0.0000E+00  0.1920E+03
     -7.934  0.0000E+00  0.1921E+03
     -7.827  0.0000E+00  0.1925E+03
     -7.720  0.0000E+00  0.1934E+03
     -7.612  0.2522E+01  0.1937E+03
     -7.505  0.0000E+00  0.1944E+03
     -7.397  0.0000E+00  0.1960E+03
     -7.290  0.6639E-03  0.1976E+03
     -7.183  0.0000E+00  0.1991E+03
     -7.075  0.2038E+02  0.2084E+03
     -6.968  0.1379E+01  0.2178E+03
     -6.860  0.0000E+00  0.2196E+03
     -6.753  0.1379E+01  0.2213E+03
     -6.645  0.0000E+00  0.2223E+03
     -6.538  0.0000E+00  0.2226E+03
     -6.431  0.0000E+00  0.2235E+03
     -6.323  0.0000E+00  0.2235E+03
     -6.216  0.0000E+00  0.2239E+03
     -6.108  0.0000E+00  0.2239E+03
     -6.001  0.0000E+00  0.2240E+03
     -5.893  0.0000E+00  0.2240E+03
     -5.786  0.0000E+00  0.2240E+03
     -5.679  0.0000E+00  0.2240E+03
     -5.571  0.0000E+00  0.2240E+03
     -5.464  0.0000E+00  0.2240E+03
     -5.356  0.0000E+00  0.2240E+03
     -5.249  0.0000E+00  0.2240E+03
     -5.141  0.0000E+00  0.2240E+03
     -5.034  0.0000E+00  0.2240E+03
     -4.927  0.0000E+00  0.2240E+03
     -4.819  0.8729E+01  0.2280E+03
     -4.712  0.0000E+00  0.2560E+03
     -4.604  0.0000E+00  0.2560E+03
     -4.497  0.0000E+00  0.2560E+03
     -4.389  0.0000E+00  0.2560E+03
     -4.282  0.0000E+00  0.2560E+03
     -4.175  0.0000E+00  0.2560E+03
     -4.067  0.0000E+00  0.2560E+03
     -3.960  0.0000E+00  0.2560E+03
     -3.852  0.0000E+00  0.2560E+03
     -3.745  0.0000E+00  0.2560E+03
     -3.637  0.0000E+00  0.2560E+03
     -3.530  0.0000E+00  0.2560E+03
     -3.423  0.0000E+00  0.2560E+03
     -3.315  0.0000E+00  0.2560E+03
     -3.208  0.0000E+00  0.2560E+03
     -3.100  0.0000E+00  0.2560E+03
     -2.993  0.0000E+00  0.2560E+03
     -2.886  0.0000E+00  0.2560E+03
     -2.778  0.4082E+01  0.2570E+03
     -2.671  0.3694E+01  0.2595E+03
     -2.563  0.4152E-01  0.2619E+03
     -2.456  0.2758E+01  0.2644E+03
     -2.348  0.0000E+00  0.2668E+03
     -2.241  0.8274E+01  0.2701E+03
     -2.134  0.4299E+01  0.2736E+03
     -2.026  0.2567E+01  0.2773E+03
     -1.919  0.0000E+00  0.2796E+03
     -1.811  0.0000E+00  0.2800E+03
     -1.704  0.1379E+01  0.2802E+03
     -1.596  0.1373E+01  0.2819E+03
     -1.489  0.3953E+01  0.2855E+03
     -1.382  0.5353E+01  0.2941E+03
     -1.274  0.2232E+01  0.3004E+03
     -1.167  0.2758E+01  0.3049E+03
     -1.059  0.4826E+01  0.3089E+03
     -0.952  0.2234E+01  0.3142E+03
     -0.844  0.5564E+01  0.3195E+03
     -0.737  0.7798E+01  0.3282E+03
     -0.630  0.1379E+01  0.3339E+03
     -0.522  0.1898E+02  0.3414E+03
     -0.415  0.1395E+01  0.3492E+03
     -0.307  0.1316E+02  0.3587E+03
     -0.200  0.5733E+01  0.3666E+03
     -0.092  0.4214E+01  0.3767E+03
      0.015  0.6895E+01  0.3823E+03
      0.122  0.2160E+01  0.3890E+03
      0.230  0.0000E+00  0.3923E+03
      0.337  0.0000E+00  0.3941E+03
      0.445  0.1379E+01  0.3960E+03
      0.552  0.0000E+00  0.3973E+03
      0.659  0.0000E+00  0.3985E+03
      0.767  0.0000E+00  0.3993E+03
      0.874  0.3368E+01  0.3996E+03
      0.982  0.0000E+00  0.3998E+03
      1.089  0.0000E+00  0.3999E+03
      1.197  0.0000E+00  0.4000E+03
      1.304  0.0000E+00  0.4000E+03
      1.411  0.0000E+00  0.4000E+03
      1.519  0.0000E+00  0.4000E+03
      1.626  0.0000E+00  0.4000E+03
      1.734  0.0000E+00  0.4000E+03
      1.841  0.0000E+00  0.4000E+03
      1.949  0.0000E+00  0.4000E+03
      2.056  0.0000E+00  0.4000E+03
      2.163  0.0000E+00  0.4000E+03
      2.271  0.0000E+00  0.4000E+03
      2.378  0.0000E+00  0.4000E+03
      2.486  0.0000E+00  0.4000E+03
      2.593  0.0000E+00  0.4000E+03
      2.701  0.0000E+00  0.4000E+03
      2.808  0.0000E+00  0.4000E+03
      2.915  0.0000E+00  0.4000E+03
      3.023  0.0000E+00  0.4000E+03
      3.130  0.0000E+00  0.4000E+03
      3.238  0.0000E+00  0.4000E+03
      3.345  0.0000E+00  0.4005E+03
      3.453  0.0000E+00  0.4007E+03
      3.560  0.0000E+00  0.4024E+03
      3.667  0.4036E-01  0.4033E+03
      3.775  0.2758E+01  0.4048E+03
      3.882  0.2758E+01  0.4064E+03
      3.990  0.1379E+01  0.4077E+03
      4.097  0.0000E+00  0.4083E+03
      4.205  0.0000E+00  0.4090E+03
      4.312  0.2758E+01  0.4099E+03
      4.419  0.8002E-04  0.4108E+03
      4.527  0.1307E+01  0.4136E+03
      4.634  0.0000E+00  0.4151E+03
      4.742  0.1349E+01  0.4175E+03
      4.849  0.1139E-09  0.4207E+03
      4.956  0.0000E+00  0.4227E+03
      5.064  0.0000E+00  0.4239E+03
      5.171  0.0000E+00  0.4240E+03
      5.279  0.0000E+00  0.4240E+03
      5.386  0.0000E+00  0.4240E+03
      5.494  0.8512E-01  0.4240E+03
      5.601  0.0000E+00  0.4241E+03
      5.708  0.0000E+00  0.4247E+03
      5.816  0.0000E+00  0.4270E+03
      5.923  0.2727E+01  0.4298E+03
      6.031  0.2758E+01  0.4344E+03
      6.138  0.1379E+01  0.4378E+03
      6.246  0.5312E-07  0.4394E+03
      6.353  0.1854E-01  0.4419E+03
      6.460  0.1379E+01  0.4450E+03
      6.568  0.3434E+01  0.4482E+03
      6.675  0.2687E+01  0.4524E+03
      6.783  0.2758E+01  0.4575E+03
      6.890  0.5637E-09  0.4618E+03
      6.998  0.1531E-05  0.4663E+03
      7.105  0.6181E+01  0.4730E+03
      7.212  0.3684E+01  0.4768E+03
      7.320  0.4137E+01  0.4804E+03
      7.427  0.1442E+01  0.4842E+03
      7.535  0.1439E+01  0.4887E+03
      7.642  0.4154E+01  0.4929E+03
      7.750  0.4345E+01  0.4974E+03
      7.857  0.2766E+01  0.5017E+03
      7.964  0.2758E+01  0.5047E+03
      8.072  0.4098E+01  0.5078E+03
      8.179  0.4685E+00  0.5101E+03
      8.287  0.0000E+00  0.5116E+03
      8.394  0.0000E+00  0.5119E+03
      8.502  0.0000E+00  0.5120E+03
      8.609  0.0000E+00  0.5120E+03
      8.716  0.0000E+00  0.5120E+03
      8.824  0.0000E+00  0.5120E+03
      8.931  0.0000E+00  0.5120E+03
      9.039  0.0000E+00  0.5120E+03
      9.146  0.0000E+00  0.5120E+03
      9.253  0.0000E+00  0.5120E+03
      9.361  0.0000E+00  0.5120E+03
      9.468  0.0000E+00  0.5120E+03
      9.576  0.0000E+00  0.5120E+03
      9.683  0.0000E+00  0.5120E+03
      9.791  0.0000E+00  0.5120E+03
      9.898  0.0000E+00  0.5120E+03
