       N       E                     dE             d eps       ncg     rms          ort
DAV:   1     0.235190586636E+05    0.23519E+05   -0.13700E+06  3584   0.486E+03
DAV:   2     0.529564877564E+04   -0.18223E+05   -0.17232E+05  3584   0.147E+03
DAV:   3     0.883028203138E+03   -0.44126E+04   -0.42423E+04  3584   0.383E+02
DAV:   4     0.295606888833E+03   -0.58742E+03   -0.57398E+03  3584   0.133E+02
DAV:   5     0.266120000878E+03   -0.29487E+02   -0.29415E+02  3584   0.316E+01
SDA:   6    -0.462128663350E+03   -0.72825E+03   -0.29415E+02  3584   0.781E+02 0.000E+00
CGA:   7    -0.473041587400E+03   -0.10913E+02   -0.10996E+02  3584   0.214E+02 0.183E+00
CGA:   8    -0.477362255678E+03   -0.43207E+01   -0.43192E+01  3584   0.397E+01 0.187E+00
CGA:   9    -0.478717753844E+03   -0.13555E+01   -0.13464E+01  3584   0.129E+01 0.594E-01
CGA:  10    -0.479145537866E+03   -0.42778E+00   -0.42588E+00  3584   0.555E+00 0.136E-01
CGA:  11    -0.479259147635E+03   -0.11361E+00   -0.11363E+00  3584   0.191E+00 0.243E-02
CGA:  12    -0.479314743408E+03   -0.55596E-01   -0.55567E-01  3584   0.458E-01 0.161E-03
CGA:  13    -0.479329139932E+03   -0.14397E-01   -0.14398E-01  3584   0.132E-01-0.219E-04
CGA:  14    -0.479333251025E+03   -0.41111E-02   -0.41106E-02  3584   0.402E-02 0.647E-05
CGA:  15    -0.479334310685E+03   -0.10597E-02   -0.10641E-02  3584   0.195E-02-0.107E-03
CGA:  16    -0.479334678036E+03   -0.36735E-03   -0.36883E-03  3584   0.598E-03 0.479E-04
CGA:  17    -0.479334880195E+03   -0.20216E-03   -0.20541E-03  3584   0.208E-03-0.291E-04
CGA:  18    -0.479334949806E+03   -0.69611E-04   -0.70952E-04  3584   0.870E-04-0.104E-04
CGA:  19    -0.479334967630E+03   -0.17824E-04   -0.18017E-04  3584   0.337E-04 0.107E-04
CGA:  20    -0.479334978715E+03   -0.11084E-04   -0.11419E-04  3584   0.199E-04-0.505E-05
CGA:  21    -0.479334983016E+03   -0.43012E-05   -0.42751E-05  3584   0.745E-05 0.185E-05
CGA:  22    -0.479334984891E+03   -0.18752E-05   -0.18856E-05  3584   0.331E-05 0.139E-05
CGA:  23    -0.479334986055E+03   -0.11643E-05   -0.18721E-05  3584   0.769E-05-0.296E-05
CGA:  24    -0.479334986530E+03   -0.47492E-06   -0.79424E-06  3584   0.128E-05 0.217E-05
CGA:  25    -0.479334986709E+03   -0.17847E-06   -0.22661E-06  3584   0.507E-06 0.458E-06
CGA:  26    -0.479334982293E+03    0.44159E-05   -0.23816E-05  3584   0.258E-04-0.418E-05
CGA:  27    -0.479334985524E+03   -0.32313E-05   -0.40612E-05  3584   0.483E-05 0.300E-05
CGA:  28    -0.479334987229E+03   -0.17050E-05   -0.14880E-05  3584   0.106E-05-0.151E-05
CGA:  29    -0.479334987272E+03   -0.43234E-07   -0.11420E-06  3584   0.347E-06 0.277E-06
CGA:  30    -0.479334987280E+03   -0.80181E-08   -0.53771E-07  3584   0.112E-06 0.164E-06
CGA:  31    -0.479334987316E+03   -0.35019E-07   -0.34019E-07  3584   0.440E-07-0.556E-08
CGA:  32    -0.479334987326E+03   -0.10416E-07   -0.10855E-07  3584   0.330E-07 0.337E-08
CGA:  33    -0.479334987324E+03    0.23429E-08   -0.36135E-08  3584   0.218E-07 0.220E-07
CGA:  34    -0.479334987330E+03   -0.63774E-08   -0.16860E-07  3584   0.737E-07-0.254E-07
CGA:  35    -0.479334987358E+03   -0.27925E-07   -0.31010E-07  3584   0.133E-06-0.716E-07
CGA:  36    -0.479334987346E+03    0.11722E-07   -0.89402E-08  3584   0.371E-07 0.656E-07
CGA:  37    -0.479334987341E+03    0.50204E-08   -0.29107E-08  3584   0.118E-07 0.256E-07
   1 F= -.47933499E+03 E0= -.47933499E+03  d E =0.000000E+00
