 vasp.5.4.1 24Jun15 (build Nov 25 2015 16:01:35) complex                        
  
 executed on         CrayXC-Intel date 2016.06.26  03:25:04
 running on 1536 total cores
 distrk:  each k-point on 1536 cores,    1 groups
 distr:  one band on NCORES_PER_BAND=  24 cores,   64 groups


--------------------------------------------------------------------------------------------------------


 INCAR:
 POTCAR:    PAW_PBE C 08Apr2002                   
 POTCAR:    PAW_PBE N 08Apr2002                   
 POTCAR:    PAW_PBE H 15Jun2001                   
 POTCAR:    PAW_PBE Pb_d 06Sep2000                
 POTCAR:    PAW_PBE I 08Apr2002                   
 POTCAR:    PAW_PBE C 08Apr2002                   
   VRHFIN =C: s2p2                                                              
   LEXCH  = PE                                                                  
   EATOM  =   147.1560 eV,   10.8157 Ry                                         
                                                                                
   TITEL  = PAW_PBE C 08Apr2002                                                 
   LULTRA =        F    use ultrasoft PP ?                                      
   IUNSCR =        1    unscreen: 0-lin 1-nonlin 2-no                           
   RPACOR =    1.200    partial core radius                                     
   POMASS =   12.011; ZVAL   =    4.000    mass and valenz                      
   RCORE  =    1.500    outmost cutoff radius                                   
   RWIGS  =    1.630; RWIGS  =    0.863    wigner-seitz radius (au A)           
   ENMAX  =  400.000; ENMIN  =  300.000 eV                                      
   ICORE  =        2    local potential                                         
   LCOR   =        T    correct aug charges                                     
   LPAW   =        T    paw PP                                                  
   EAUG   =  644.873                                                            
   DEXC   =    0.000                                                            
   RMAX   =    1.529    core radius for proj-oper                               
   RAUG   =    1.300    factor for augmentation sphere                          
   RDEP   =    1.501    radius for radial grids                                 
   RDEPT  =    1.300    core radius for aug-charge                              
                                                                                
   Atomic configuration                                                         
    4 entries                                                                   
     n  l   j            E        occ.                                          
     1  0  0.50      -273.3789   2.0000                                         
     2  0  0.50       -13.7508   2.0000                                         
     2  1  0.50        -5.2854   2.0000                                         
     3  2  1.50        -5.4423   0.0000                                         
   Description                                                                  
     l       E           TYP  RCUT    TYP  RCUT                                 
     0    -13.7508458     23  1.200                                             
     0     -8.2022199     23  1.200                                             
     1     -5.2854383     23  1.500                                             
     1     34.0145650     23  1.500                                             
     2     -5.4423304      7  1.500                                             
  local pseudopotential read in
  partial core-charges read in
  partial kinetic energy density read in
  atomic valenz-charges read in
  non local Contribution for L=           0  read in
    real space projection operators read in
  non local Contribution for L=           0  read in
    real space projection operators read in
  non local Contribution for L=           1  read in
    real space projection operators read in
  non local Contribution for L=           1  read in
    real space projection operators read in
    PAW grid and wavefunctions read in
 
   number of l-projection  operators is LMAX  =           4
   number of lm-projection operators is LMMAX =           8
 
 POTCAR:    PAW_PBE N 08Apr2002                   
   VRHFIN =N: s2p3                                                              
   LEXCH  = PE                                                                  
   EATOM  =   264.5486 eV,   19.4438 Ry                                         
                                                                                
   TITEL  = PAW_PBE N 08Apr2002                                                 
   LULTRA =        F    use ultrasoft PP ?                                      
   IUNSCR =        1    unscreen: 0-lin 1-nonlin 2-no                           
   RPACOR =    1.200    partial core radius                                     
   POMASS =   14.001; ZVAL   =    5.000    mass and valenz                      
   RCORE  =    1.500    outmost cutoff radius                                   
   RWIGS  =    1.400; RWIGS  =    0.741    wigner-seitz radius (au A)           
   ENMAX  =  400.000; ENMIN  =  300.000 eV                                      
   ICORE  =        2    local potential                                         
   LCOR   =        T    correct aug charges                                     
   LPAW   =        T    paw PP                                                  
   EAUG   =  627.112                                                            
   DEXC   =    0.000                                                            
   RMAX   =    1.529    core radius for proj-oper                               
   RAUG   =    1.300    factor for augmentation sphere                          
   RDEP   =    1.514    radius for radial grids                                 
   RDEPT  =    1.338    core radius for aug-charge                              
                                                                                
   Atomic configuration                                                         
    4 entries                                                                   
     n  l   j            E        occ.                                          
     1  0  0.50      -384.7179   2.0000                                         
     2  0  0.50       -18.5828   2.0000                                         
     2  1  0.50        -7.0898   3.0000                                         
     3  2  1.50        -6.8029   0.0000                                         
   Description                                                                  
     l       E           TYP  RCUT    TYP  RCUT                                 
     0    -18.5828119     23  1.200                                             
     0    -13.5018863     23  1.200                                             
     1     -7.0897853     23  1.500                                             
     1      9.5240782     23  1.500                                             
     2     -6.8029130      7  1.500                                             
  local pseudopotential read in
  partial core-charges read in
  partial kinetic energy density read in
  atomic valenz-charges read in
  non local Contribution for L=           0  read in
    real space projection operators read in
  non local Contribution for L=           0  read in
    real space projection operators read in
  non local Contribution for L=           1  read in
    real space projection operators read in
  non local Contribution for L=           1  read in
    real space projection operators read in
    PAW grid and wavefunctions read in
 
   number of l-projection  operators is LMAX  =           4
   number of lm-projection operators is LMMAX =           8
 
 POTCAR:    PAW_PBE H 15Jun2001                   
   VRHFIN =H: ultrasoft test                                                    
   LEXCH  = PE                                                                  
   EATOM  =    12.4884 eV,    0.9179 Ry                                         
                                                                                
   TITEL  = PAW_PBE H 15Jun2001                                                 
   LULTRA =        F    use ultrasoft PP ?                                      
   IUNSCR =        0    unscreen: 0-lin 1-nonlin 2-no                           
   RPACOR =    0.000    partial core radius                                     
   POMASS =    1.000; ZVAL   =    1.000    mass and valenz                      
   RCORE  =    1.100    outmost cutoff radius                                   
   RWIGS  =    0.700; RWIGS  =    0.370    wigner-seitz radius (au A)           
   ENMAX  =  250.000; ENMIN  =  200.000 eV                                      
   RCLOC  =    0.701    cutoff for local pot                                    
   LCOR   =        T    correct aug charges                                     
   LPAW   =        T    paw PP                                                  
   EAUG   =  400.000                                                            
   RMAX   =    1.123    core radius for proj-oper                               
   RAUG   =    1.200    factor for augmentation sphere                          
   RDEP   =    1.112    radius for radial grids                                 
   RDEPT  =    0.926    core radius for aug-charge                              
                                                                                
   Atomic configuration                                                         
    2 entries                                                                   
     n  l   j            E        occ.                                          
     1  0  0.50        -6.4927   1.0000                                         
     2  1  0.50        -3.4015   0.0000                                         
   Description                                                                  
     l       E           TYP  RCUT    TYP  RCUT                                 
     0     -6.4927494     23  1.100                                             
     0      6.8029130     23  1.100                                             
     1     -4.0817478     23  1.100                                             
  local pseudopotential read in
  atomic valenz-charges read in
  non local Contribution for L=           0  read in
    real space projection operators read in
  non local Contribution for L=           0  read in
    real space projection operators read in
  non local Contribution for L=           1  read in
    real space projection operators read in
    PAW grid and wavefunctions read in
 
   number of l-projection  operators is LMAX  =           3
   number of lm-projection operators is LMMAX =           5
 
 POTCAR:    PAW_PBE Pb_d 06Sep2000                
   VRHFIN =Pb:                                                                  
   LEXCH  = PE                                                                  
   EATOM  =  1661.6185 eV,  122.1255 Ry                                         
                                                                                
   TITEL  = PAW_PBE Pb_d 06Sep2000                                              
   LULTRA =        F    use ultrasoft PP ?                                      
   IUNSCR =        1    unscreen: 0-lin 1-nonlin 2-no                           
   RPACOR =    2.200    partial core radius                                     
   POMASS =  207.200; ZVAL   =   14.000    mass and valenz                      
   RCORE  =    2.500    outmost cutoff radius                                   
   RWIGS  =    3.260; RWIGS  =    1.725    wigner-seitz radius (au A)           
   ENMAX  =  237.835; ENMIN  =  178.376 eV                                      
   ICORE  =        3    local potential                                         
   LCOR   =        T    correct aug charges                                     
   LPAW   =        T    paw PP                                                  
   EAUG   =  391.914                                                            
   DEXC   =    0.000                                                            
   RMAX   =    2.565    core radius for proj-oper                               
   RAUG   =    1.300    factor for augmentation sphere                          
   RDEP   =    2.643    radius for radial grids                                 
   RDEPT  =    2.092    core radius for aug-charge                              
                                                                                
   Atomic configuration                                                         
   16 entries                                                                   
     n  l   j            E        occ.                                          
     1  0  0.50    -88091.8466   2.0000                                         
     2  0  0.50    -15753.4197   2.0000                                         
     2  1  1.50    -13508.1797   6.0000                                         
     3  0  0.50     -3781.7194   2.0000                                         
     3  1  1.50     -3138.2529   6.0000                                         
     3  2  2.50     -2483.2977  10.0000                                         
     4  0  0.50      -856.2895   2.0000                                         
     4  1  1.50      -645.4942   6.0000                                         
     4  2  2.50      -401.8768  10.0000                                         
     4  3  3.50      -132.9059  14.0000                                         
     5  0  0.50      -144.0950   2.0000                                         
     5  1  1.50       -85.7879   6.0000                                         
     5  2  2.50       -21.1769  10.0000                                         
     6  0  0.50       -12.0372   2.0000                                         
     6  1  1.50        -3.4971   2.0000                                         
     5  3  2.50        -2.7212   0.0000                                         
   Description                                                                  
     l       E           TYP  RCUT    TYP  RCUT                                 
     2    -21.1768523     23  2.500                                             
     2      1.3605826     23  2.500                                             
     0    -12.0371562     23  2.500                                             
     0     13.6058260     23  2.500                                             
     1     -3.4971339     23  2.500                                             
     1     13.6058260     23  2.500                                             
     3     -1.3605826      7  2.500                                             
  local pseudopotential read in
  partial core-charges read in
  partial kinetic energy density read in
  atomic valenz-charges read in
  non local Contribution for L=           2  read in
    real space projection operators read in
  non local Contribution for L=           2  read in
    real space projection operators read in
  non local Contribution for L=           0  read in
    real space projection operators read in
  non local Contribution for L=           0  read in
    real space projection operators read in
  non local Contribution for L=           1  read in
    real space projection operators read in
  non local Contribution for L=           1  read in
    real space projection operators read in
    PAW grid and wavefunctions read in
 
   number of l-projection  operators is LMAX  =           6
   number of lm-projection operators is LMMAX =          18
 
 POTCAR:    PAW_PBE I 08Apr2002                   
   VRHFIN =I : s2p5                                                             
   LEXCH  = PE                                                                  
   EATOM  =   315.8678 eV,   23.2156 Ry                                         
                                                                                
   TITEL  = PAW_PBE I 08Apr2002                                                 
   LULTRA =        F    use ultrasoft PP ?                                      
   IUNSCR =        1    unscreen: 0-lin 1-nonlin 2-no                           
   RPACOR =    2.200    partial core radius                                     
   POMASS =  126.904; ZVAL   =    7.000    mass and valenz                      
   RCORE  =    2.300    outmost cutoff radius                                   
   RWIGS  =    2.810; RWIGS  =    1.487    wigner-seitz radius (au A)           
   ENMAX  =  175.647; ENMIN  =  131.735 eV                                      
   ICORE  =        3    local potential                                         
   LCOR   =        T    correct aug charges                                     
   LPAW   =        T    paw PP                                                  
   EAUG   =  370.139                                                            
   DEXC   =    0.000                                                            
   RMAX   =    2.359    core radius for proj-oper                               
   RAUG   =    1.300    factor for augmentation sphere                          
   RDEP   =    2.392    radius for radial grids                                 
   RDEPT  =    2.170    core radius for aug-charge                              
                                                                                
   Atomic configuration                                                         
   13 entries                                                                   
     n  l   j            E        occ.                                          
     1  0  0.50    -32976.3739   2.0000                                         
     2  0  0.50     -5094.5933   2.0000                                         
     2  1  1.50     -4572.0131   6.0000                                         
     3  0  0.50     -1028.2813   2.0000                                         
     3  1  1.50      -859.0250   6.0000                                         
     3  2  2.50      -605.7620  10.0000                                         
     4  0  0.50      -180.5540   2.0000                                         
     4  1  1.50      -127.5306   6.0000                                         
     4  2  2.50       -50.2720  10.0000                                         
     5  0  0.50       -17.4058   2.0000                                         
     5  1  0.50        -7.0851   5.0000                                         
     5  2  1.50        -7.0750   0.0000                                         
     4  3  2.50        -7.0750   0.0000                                         
   Description                                                                  
     l       E           TYP  RCUT    TYP  RCUT                                 
     0    -17.4058016     23  2.300                                             
     0    -18.7663842     23  2.300                                             
     1     -7.0850686     23  2.300                                             
     1     -4.2150896     23  2.300                                             
     2     -7.0750295     23  2.300                                             
     3     -1.3605826     23  2.300                                             
  local pseudopotential read in
  partial core-charges read in
  partial kinetic energy density read in
  atomic valenz-charges read in
  non local Contribution for L=           0  read in
    real space projection operators read in
  non local Contribution for L=           0  read in
    real space projection operators read in
  non local Contribution for L=           1  read in
    real space projection operators read in
  non local Contribution for L=           1  read in
    real space projection operators read in
  non local Contribution for L=           2  read in
    real space projection operators read in
    PAW grid and wavefunctions read in
 
   number of l-projection  operators is LMAX  =           5
   number of lm-projection operators is LMMAX =          13
 

 ----------------------------------------------------------------------------- 
|                                                                             |
|  ADVICE TO THIS USER RUNNING 'VASP/VAMP'   (HEAR YOUR MASTER'S VOICE ...):  |
|                                                                             |
|      You have a (more or less) 'large supercell' and for larger cells       |
|      it might be more efficient to use real space projection opertators     |
|      So try LREAL= Auto  in the INCAR   file.                               |
|      Mind: At the moment your POTCAR file does not contain real space       |
|       projectors, and has to be modified,  BUT if you                       |
|      want to do an extremely  accurate calculation you might also keep the  |
|      reciprocal projection scheme          (i.e. LREAL=.FALSE.)             |
|                                                                             |
 ----------------------------------------------------------------------------- 

  PAW_PBE C 08Apr2002                   :
 energy of atom  1       EATOM= -147.1560
 kinetic energy error for atom=    0.0032 (will be added to EATOM!!)
  PAW_PBE N 08Apr2002                   :
 energy of atom  2       EATOM= -264.5486
 kinetic energy error for atom=    0.0061 (will be added to EATOM!!)
  PAW_PBE H 15Jun2001                   :
 energy of atom  3       EATOM=  -12.4884
 kinetic energy error for atom=    0.0002 (will be added to EATOM!!)
  PAW_PBE Pb_d 06Sep2000                :
 energy of atom  4       EATOM=-1661.6185
 kinetic energy error for atom=    0.0012 (will be added to EATOM!!)
  PAW_PBE I 08Apr2002                   :
 energy of atom  5       EATOM= -315.8678
 kinetic energy error for atom=    0.0003 (will be added to EATOM!!)
 
 
 POSCAR: C N H Pb I                              
  positions in direct lattice
  No initial velocities read in
 exchange correlation table for  LEXCH =        8
   RHO(1)=    0.500       N(1)  =     2000
   RHO(2)=  100.500       N(2)  =     4000
 


--------------------------------------------------------------------------------------------------------


 ion  position               nearest neighbor table
   1  0.200  0.250  0.224-  25 1.10  33 1.10  17 1.10   9 1.48
   2  0.694  0.250  0.234-  26 1.10  34 1.10  18 1.10  10 1.48
   3  0.194  0.750  0.234-  27 1.10  35 1.10  19 1.10  11 1.48
   4  0.700  0.750  0.224-  28 1.10  36 1.10  20 1.10  12 1.48
   5  0.200  0.250  0.724-  29 1.10  37 1.10  21 1.10  13 1.48
   6  0.694  0.250  0.734-  30 1.10  38 1.10  22 1.10  14 1.48
   7  0.194  0.750  0.734-  31 1.10  39 1.10  23 1.10  15 1.48
   8  0.700  0.750  0.724-  32 1.10  40 1.10  24 1.10  16 1.48
   9  0.305  0.250  0.274-  57 1.04  41 1.05  49 1.05   1 1.48
  10  0.804  0.250  0.274-  58 1.05  42 1.05  50 1.05   2 1.48
  11  0.304  0.750  0.274-  59 1.05  43 1.05  51 1.05   3 1.48
  12  0.805  0.750  0.274-  60 1.04  44 1.05  52 1.05   4 1.48
  13  0.305  0.250  0.774-  61 1.04  45 1.05  53 1.05   5 1.48
  14  0.804  0.250  0.774-  62 1.05  46 1.05  54 1.05   6 1.48
  15  0.304  0.750  0.774-  63 1.05  47 1.05  55 1.05   7 1.48
  16  0.805  0.750  0.774-  64 1.04  48 1.05  56 1.05   8 1.48
  17  0.213  0.250  0.138-   1 1.10
  18  0.697  0.250  0.148-   2 1.10
  19  0.197  0.750  0.148-   3 1.10
  20  0.713  0.750  0.138-   4 1.10
  21  0.213  0.250  0.638-   5 1.10
  22  0.697  0.250  0.648-   6 1.10
  23  0.197  0.750  0.648-   7 1.10
  24  0.713  0.750  0.638-   8 1.10
  25  0.156  0.322  0.248-   1 1.10
  26  0.652  0.322  0.263-   2 1.10
  27  0.152  0.822  0.263-   3 1.10
  28  0.656  0.822  0.248-   4 1.10
  29  0.156  0.322  0.748-   5 1.10
  30  0.652  0.322  0.763-   6 1.10
  31  0.152  0.822  0.763-   7 1.10
  32  0.656  0.822  0.748-   8 1.10
  33  0.157  0.177  0.248-   1 1.10
  34  0.652  0.177  0.263-   2 1.10
  35  0.152  0.677  0.263-   3 1.10
  36  0.657  0.677  0.248-   4 1.10
  37  0.157  0.177  0.748-   5 1.10
  38  0.652  0.177  0.763-   6 1.10
  39  0.152  0.677  0.763-   7 1.10
  40  0.657  0.677  0.748-   8 1.10
  41  0.350  0.318  0.253-   9 1.05
  42  0.846  0.318  0.248-  10 1.05
  43  0.346  0.818  0.248-  11 1.05
  44  0.850  0.818  0.253-  12 1.05
  45  0.350  0.318  0.753-  13 1.05
  46  0.846  0.318  0.748-  14 1.05
  47  0.346  0.818  0.748-  15 1.05
  48  0.850  0.818  0.753-  16 1.05
  49  0.350  0.182  0.253-   9 1.05
  50  0.846  0.182  0.248-  10 1.05
  51  0.346  0.682  0.248-  11 1.05
  52  0.850  0.682  0.253-  12 1.05
  53  0.350  0.182  0.753-  13 1.05
  54  0.846  0.182  0.748-  14 1.05
  55  0.346  0.682  0.748-  15 1.05
  56  0.850  0.682  0.753-  16 1.05
  57  0.299  0.250  0.356-   9 1.04
  58  0.807  0.250  0.355-  10 1.05
  59  0.307  0.750  0.355-  11 1.05
  60  0.799  0.750  0.356-  12 1.04
  61  0.299  0.250  0.856-  13 1.04
  62  0.807  0.250  0.855-  14 1.05
  63  0.307  0.750  0.855-  15 1.05
  64  0.799  0.750  0.856-  16 1.04
  65  0.472  0.501  0.489-  90 3.08  85 3.14  87 3.15  77 3.17  73 3.22  89 3.25
  66  0.972  0.499  0.489-  89 3.08  88 3.14  86 3.15  78 3.17  74 3.22  90 3.25
  67  0.472  0.999  0.489-  92 3.08  85 3.14  87 3.15  79 3.17  75 3.22  91 3.25
  68  0.972  0.001  0.489-  91 3.08  88 3.14  86 3.15  80 3.17  76 3.22  92 3.25
  69  0.472  0.501  0.989-  94 3.08  81 3.14  83 3.15  73 3.17  77 3.22  93 3.25
  70  0.972  0.499  0.989-  93 3.08  84 3.14  82 3.15  74 3.17  78 3.22  94 3.25
  71  0.472  0.999  0.989-  96 3.08  81 3.14  83 3.15  75 3.17  79 3.22  95 3.25
  72  0.972  0.001  0.989-  95 3.08  84 3.14  82 3.15  76 3.17  80 3.22  96 3.25
  73  0.455  0.500  0.238-  69 3.17  65 3.22
  74  0.955  0.500  0.238-  70 3.17  66 3.22
  75  0.455  1.000  0.238-  71 3.17  67 3.22
  76  0.955  0.000  0.238-  72 3.17  68 3.22
  77  0.455  0.500  0.738-  65 3.17  69 3.22
  78  0.955  0.500  0.738-  66 3.17  70 3.22
  79  0.455  1.000  0.738-  67 3.17  71 3.22
  80  0.955  0.000  0.738-  68 3.17  72 3.22
  81  0.460  0.250  0.010-  71 3.14  69 3.14
  82  0.939  0.250  0.014-  72 3.15  70 3.15
  83  0.439  0.750  0.014-  69 3.15  71 3.15
  84  0.960  0.750  0.010-  70 3.14  72 3.14
  85  0.460  0.250  0.510-  67 3.14  65 3.14
  86  0.939  0.250  0.514-  68 3.15  66 3.15
  87  0.439  0.750  0.514-  65 3.15  67 3.15
  88  0.960  0.750  0.510-  66 3.14  68 3.14
  89  0.216  0.487  0.461-  66 3.08  65 3.25
  90  0.716  0.513  0.461-  65 3.08  66 3.25
  91  0.216  0.013  0.461-  68 3.08  67 3.25
  92  0.716  0.987  0.461-  67 3.08  68 3.25
  93  0.216  0.487  0.961-  70 3.08  69 3.25
  94  0.716  0.513  0.961-  69 3.08  70 3.25
  95  0.216  0.013  0.961-  72 3.08  71 3.25
  96  0.716  0.987  0.961-  71 3.08  72 3.25
 
  LATTYP: Found a triclinic cell.
 ALAT       =    17.8238589327
 B/A-ratio  =     0.6989248630
 C/A-ratio  =     1.0156975818
 COS(alpha) =     0.0001355172
 COS(beta)  =     0.5146378593
 COS(gamma) =     0.6988877578
  
  Lattice vectors:
  
 A1 = (  -0.1406063366, -12.4576271275, -12.7466742118)
 A2 = (  -0.0011956322, -12.4575380825,   0.0007464135)
 A3 = ( -12.7162481321,  -0.0020049566, -12.8856194186)


Analysis of symmetry for initial positions (statically):
=====================================================================
 Subroutine PRICEL returns following result:
 
  LATTYP: Found a triclinic cell.
 ALAT       =     8.8502626515
 B/A-ratio  =     1.4075896561
 C/A-ratio  =     0.7202149489
 COS(alpha) =     0.0000518785
 COS(beta)  =     0.0156138721
 COS(gamma) =     0.7036188608
  
  Lattice vectors:
  
 A1 = (  -6.2878208978,   6.2278110854,  -0.0694726034)
 A2 = (   0.0011956322,  12.4575380825,  -0.0007464135)
 A3 = (  -0.0697053522,  -0.0000445225,  -6.3737103126)
 
   4 primitive cells build up your supercell.
 

 Routine SETGRP: Setting up the symmetry group for a 
 triclinic supercell.


 Subroutine GETGRP returns: Found  1 space group operations
 (whereof  1 operations were pure point group operations)
 out of a pool of  2 trial point group operations.


The static configuration has the point symmetry C_1 .


Analysis of symmetry for dynamics (positions and initial velocities):
=====================================================================
 Subroutine PRICEL returns following result:
 
  LATTYP: Found a triclinic cell.
 ALAT       =     8.8502626515
 B/A-ratio  =     1.4075896561
 C/A-ratio  =     0.7202149489
 COS(alpha) =     0.0000518785
 COS(beta)  =     0.0156138721
 COS(gamma) =     0.7036188608
  
  Lattice vectors:
  
 A1 = (  -6.2878208978,   6.2278110854,  -0.0694726034)
 A2 = (   0.0011956322,  12.4575380825,  -0.0007464135)
 A3 = (  -0.0697053522,  -0.0000445225,  -6.3737103126)
 
   4 primitive cells build up your supercell.
 

 Routine SETGRP: Setting up the symmetry group for a 
 triclinic supercell.


 Subroutine GETGRP returns: Found  1 space group operations
 (whereof  1 operations were pure point group operations)
 out of a pool of  2 trial point group operations.


The dynamic configuration has the point symmetry C_1 .


 Subroutine INISYM returns: Found  1 space group operations
 (whereof  1 operations are pure point group operations),
 and found     4 'primitive' translations

 
 
 KPOINTS: Automatic 3x3x3                         

Automatic generation of k-mesh.
Space group operators:
 irot       det(A)        alpha          n_x          n_y          n_z        tau_x        tau_y        tau_z
    1     1.000000     0.000000     1.000000     0.000000     0.000000     0.000000     0.000000     0.000000
 
 Subroutine IBZKPT returns following result:
 ===========================================
 
 Found     14 irreducible k-points:
 
 Following reciprocal coordinates:
            Coordinates               Weight
  0.000000  0.000000  0.000000      1.000000
  0.333333 -0.000000 -0.000000      2.000000
  0.000000  0.333333 -0.000000      2.000000
  0.333333  0.333333  0.000000      2.000000
 -0.333333  0.333333  0.000000      2.000000
  0.000000  0.000000  0.333333      2.000000
  0.333333  0.000000  0.333333      2.000000
 -0.333333  0.000000  0.333333      2.000000
  0.000000  0.333333  0.333333      2.000000
  0.333333  0.333333  0.333333      2.000000
 -0.333333  0.333333  0.333333      2.000000
  0.000000 -0.333333  0.333333      2.000000
  0.333333 -0.333333  0.333333      2.000000
 -0.333333 -0.333333  0.333333      2.000000
 
 Following cartesian coordinates:
            Coordinates               Weight
  0.000000  0.000000  0.000000      1.000000
  0.026507 -0.000003 -0.000290      2.000000
 -0.000004  0.026758 -0.000000      2.000000
  0.026503  0.026755 -0.000290      2.000000
 -0.026511  0.026760  0.000290      2.000000
 -0.000287  0.000002  0.026152      2.000000
  0.026220 -0.000001  0.025862      2.000000
 -0.026794  0.000004  0.026442      2.000000
 -0.000291  0.026759  0.026152      2.000000
  0.026215  0.026757  0.025862      2.000000
 -0.026798  0.026762  0.026442      2.000000
 -0.000283 -0.026756  0.026152      2.000000
  0.026224 -0.026759  0.025862      2.000000
 -0.026790 -0.026753  0.026442      2.000000
 
 
 Subroutine IBZKPT_HF returns following result:
 ==============================================
 
 Found     27 k-points in 1st BZ
 the following     27 k-points will be used (e.g. in the exchange kernel)
 Following reciprocal coordinates:   # in IRBZ
  0.000000  0.000000  0.000000    0.03703704   1 t-inv F
  0.333333 -0.000000 -0.000000    0.03703704   2 t-inv F
  0.000000  0.333333 -0.000000    0.03703704   3 t-inv F
  0.333333  0.333333  0.000000    0.03703704   4 t-inv F
 -0.333333  0.333333  0.000000    0.03703704   5 t-inv F
  0.000000  0.000000  0.333333    0.03703704   6 t-inv F
  0.333333  0.000000  0.333333    0.03703704   7 t-inv F
 -0.333333  0.000000  0.333333    0.03703704   8 t-inv F
  0.000000  0.333333  0.333333    0.03703704   9 t-inv F
  0.333333  0.333333  0.333333    0.03703704  10 t-inv F
 -0.333333  0.333333  0.333333    0.03703704  11 t-inv F
  0.000000 -0.333333  0.333333    0.03703704  12 t-inv F
  0.333333 -0.333333  0.333333    0.03703704  13 t-inv F
 -0.333333 -0.333333  0.333333    0.03703704  14 t-inv F
 -0.333333  0.000000  0.000000    0.03703704   2 t-inv T
 -0.000000 -0.333333  0.000000    0.03703704   3 t-inv T
 -0.333333 -0.333333 -0.000000    0.03703704   4 t-inv T
  0.333333 -0.333333 -0.000000    0.03703704   5 t-inv T
 -0.000000  0.000000 -0.333333    0.03703704   6 t-inv T
 -0.333333 -0.000000 -0.333333    0.03703704   7 t-inv T
  0.333333 -0.000000 -0.333333    0.03703704   8 t-inv T
 -0.000000 -0.333333 -0.333333    0.03703704   9 t-inv T
 -0.333333 -0.333333 -0.333333    0.03703704  10 t-inv T
  0.333333 -0.333333 -0.333333    0.03703704  11 t-inv T
 -0.000000  0.333333 -0.333333    0.03703704  12 t-inv T
 -0.333333  0.333333 -0.333333    0.03703704  13 t-inv T
  0.333333  0.333333 -0.333333    0.03703704  14 t-inv T


--------------------------------------------------------------------------------------------------------




 Dimension of arrays:
   k-points           NKPTS =     14   k-points in BZ     NKDIM =     27   number of bands    NBANDS=    256
   number of dos      NEDOS =    301   number of ions     NIONS =     96
   non local maximal  LDIM  =      6   non local SUM 2l+1 LMDIM =     18
   total plane-waves  NPLWV = ******
   max r-space proj   IRMAX =      1   max aug-charges    IRDMAX= 314103
   dimension x,y,z NGX =   112 NGY =  108 NGZ =  112
   dimension x,y,z NGXF=   224 NGYF=  216 NGZF=  224
   support grid    NGXF=   448 NGYF=  432 NGZF=  448
   ions per type =               8   8  48   8  24
 NGX,Y,Z   is equivalent  to a cutoff of  14.80, 14.41, 14.61 a.u.
 NGXF,Y,Z  is equivalent  to a cutoff of  29.61, 28.83, 29.21 a.u.


 I would recommend the setting:
   dimension x,y,z NGX =   109 NGY =  107 NGZ =  110
 SYSTEM =  MAPbI3-Cubic                            
 POSCAR =  C N H Pb I                              

 Startparameter for this run:
   NWRITE =      2    write-flag & timer
   PREC   = accura    normal or accurate (medium, high low for compatibility)
   ISTART =      0    job   : 0-new  1-cont  2-samecut
   ICHARG =      2    charge: 1-file 2-atom 10-const
   ISPIN  =      1    spin polarized calculation?
   LNONCOLLINEAR =      F non collinear calculations
   LSORBIT =      F    spin-orbit coupling
   INIWAV =      1    electr: 0-lowe 1-rand  2-diag
   LASPH  =      F    aspherical Exc in radial PAW
   METAGGA=      F    non-selfconsistent MetaGGA calc.

 Electronic Relaxation 1
   ENCUT  =  700.0 eV  51.45 Ry    7.17 a.u.  27.13 26.87 27.50*2*pi/ulx,y,z
   ENINI  =  700.0     initial cutoff
   ENAUG  =  644.9 eV  augmentation charge cutoff
   NELM   =     60;   NELMIN=  2; NELMDL= -5     # of ELM steps 
   EDIFF  = 0.1E-07   stopping-criterion for ELM
   LREAL  =      F    real-space projection
   NLSPLINE    = F    spline interpolate recip. space projectors
   LCOMPAT=      F    compatible to vasp.4.4
   GGA_COMPAT  = T    GGA compatible to vasp.4.4-vasp.4.6
   LMAXPAW     = -100 max onsite density
   LMAXMIX     =    2 max onsite mixed and CHGCAR
   VOSKOWN=      0    Vosko Wilk Nusair interpolation
   ROPT   =    0.00000   0.00000   0.00000   0.00000
   ROPT   =    0.00000
 Ionic relaxation
   EDIFFG = 0.1E-06   stopping-criterion for IOM
   NSW    =      0    number of steps for IOM
   NBLOCK =      1;   KBLOCK =      1    inner block; outer block 
   IBRION =     -1    ionic relax: 0-MD 1-quasi-New 2-CG
   NFREE  =      0    steps in history (QN), initial steepest desc. (CG)
   ISIF   =      2    stress and relaxation
   IWAVPR =     10    prediction:  0-non 1-charg 2-wave 3-comb
   ISYM   =      3    0-nonsym 1-usesym 2-fastsym
   LCORR  =      T    Harris-Foulkes like correction to forces

   POTIM  = 0.5000    time-step for ionic-motion
   TEIN   =    0.0    initial temperature
   TEBEG  =    0.0;   TEEND  =   0.0 temperature during run
   SMASS  =  -3.00    Nose mass-parameter (am)
   estimated Nose-frequenzy (Omega)   =  0.10E-29 period in steps =****** mass=  -0.362E-26a.u.
   SCALEE = 1.0000    scale energy and forces
   NPACO  =    256;   APACO  = 16.0  distance and # of slots for P.C.
   PSTRESS=    0.0 pullay stress

  Mass of Ions in am
   POMASS =  12.01 14.00  1.00207.20126.90
  Ionic Valenz
   ZVAL   =   4.00  5.00  1.00 14.00  7.00
  Atomic Wigner-Seitz radii
   RWIGS  =  -1.00 -1.00 -1.00 -1.00 -1.00
  virtual crystal weights 
   VCA    =   1.00  1.00  1.00  1.00  1.00
   NELECT =     400.0000    total number of electrons
   NUPDOWN=      -1.0000    fix difference up-down

 DOS related values:
   EMIN   =  10.00;   EMAX   =-10.00  energy-range for DOS
   EFERMI =   0.00
   ISMEAR =     0;   SIGMA  =   0.00  broadening in eV -4-tet -1-fermi 0-gaus

 Electronic relaxation 2 (details)
   IALGO  =     58    algorithm
   LDIAG  =      T    sub-space diagonalisation (order eigenvalues)
   LSUBROT=      F    optimize rotation matrix (better conditioning)
   TURBO    =      0    0=normal 1=particle mesh
   IRESTART =      0    0=no restart 2=restart with 2 vectors
   NREBOOT  =      0    no. of reboots
   NMIN     =      0    reboot dimension
   EREF     =   0.00    reference energy to select bands
   IMIX   =      4    mixing-type and parameters
     AMIX     =   0.40;   BMIX     =  1.00
     AMIX_MAG =   1.60;   BMIX_MAG =  1.00
     AMIN     =   0.10
     WC   =   100.;   INIMIX=   1;  MIXPRE=   1;  MAXMIX= -45

 Intra band minimization:
   WEIMIN = 0.0000     energy-eigenvalue tresh-hold
   EBREAK =  0.98E-11  absolut break condition
   DEPER  =   0.30     relativ break condition  

   TIME   =   0.40     timestep for ELM

  volume/ion in A,a.u.               =      20.80       140.38
  Fermi-wavevector in a.u.,A,eV,Ry     =   0.957863  1.810099 12.483376  0.917502
  Thomas-Fermi vector in A             =   2.086919
 
 Write flags
   LWAVE  =      F    write WAVECAR
   LCHARG =      F    write CHGCAR
   LVTOT  =      F    write LOCPOT, total local potential
   LVHAR  =      F    write LOCPOT, Hartree potential only
   LELF   =      F    write electronic localiz. function (ELF)
   LORBIT =      0    0 simple, 1 ext, 2 COOP (PROOUT)


 Dipole corrections
   LMONO  =      F    monopole corrections only (constant potential shift)
   LDIPOL =      F    correct potential (dipole corrections)
   IDIPOL =      0    1-x, 2-y, 3-z, 4-all directions 
   EPSILON=  1.0000000 bulk dielectric constant

 Core level calculations are selected ICORELEVEL =  1
 Exchange correlation treatment:
   GGA     =    PE    GGA type
   LEXCH   =     8    internal setting for exchange type
   VOSKOWN=      0    Vosko Wilk Nusair interpolation
   EXXOEP  =     0    0=HF, 1=EXX-LHF (local Hartree Fock) 2=EXX OEP
   LHFCALC =     T    Hartree Fock is set to
   LSYMGRAD=     F    symmetrize gradient (conserves proper symmetry)
   PRECFOCK=fast      Normal, Fast or Accurate (Low or Medium for compatibility)
   LRHFCALC=     F    long range Hartree Fock
   LRSCOR  =     F    long range correlation only (use DFT for short range part)
   LTHOMAS =     F    Thomas Fermi screening in HF
   LMODELHF=     F    short range full HF, long range fraction AEXX
   ENCUT4O =  -1.0   cutoff for four orbital integrals eV
   LMAXFOCK=     4    L truncation for augmentation on plane wave grid
   LMAXFOCKAE=  -1    L truncation for all-electron charge restoration on plane wave grid
   NMAXFOCKAE=   1    number of basis functions for all-electron charge restoration
   LFOCKAEDFT=     F  apply the AE augmentation even for DFT
   NKREDX  =     1    reduce k-point grid by
   NKREDY  =     1    reduce k-point grid by
   NKREDZ  =     1    reduce k-point grid by
   SHIFTRED=     F    shift reduced grid of Gamma
   HFKIDENT=     F    idential grid for each k-point
   ODDONLY =     F    use only odd q-grid points
   EVENONLY=     F    use only even q-grid points
   HFALPHA =   -1.0000 decay constant for conv. correction
   MCALPHA =    0.0000 extent of test-charge in conv. correction in multipole expansion
   AEXX    =    0.2500 exact exchange contribution
   HFSCREEN=    0.2070 screening length (either q_TF or 0.3 A-1)
   HFSCREENC=   0.2070 screening length for correlation (either q_TF or 0.3 A-1)
   HFRCUT  =    0.0000 spherical cutoff for potential kernel
   ALDAX   =    0.7500 LDA exchange part
   AGGAX   =    0.7500 GGA exchange part
   ALDAC   =    1.0000 LDA correlation
   AGGAC   =    1.0000 GGA correlation
   NBANDSGWLOW=     1    first orbital included in HF term
   ENCUTFOCK=  -1.0 apply spherical cutoff to Coloumb kernel
 Linear response parameters
   LEPSILON=     F    determine dielectric tensor
   LRPA    =     F    only Hartree local field effects (RPA)
   LNABLA  =     F    use nabla operator in PAW spheres
   LVEL    =     F    velocity operator in full k-point grid
   LINTERFAST=   F  fast interpolation
   KINTER  =     0    interpolate to denser k-point grid
   CSHIFT  =0.1000    complex shift for real part using Kramers Kronig
   OMEGAMAX=  -1.0    maximum frequency
   DEG_THRESHOLD= 0.2000000E-02 threshold for treating states as degnerate
   RTIME   =    0.100 relaxation time in fs

 Orbital magnetization related:
   ORBITALMAG=     F  switch on orbital magnetization
   LCHIMAG   =     F  perturbation theory with respect to B field
   DQ        =  0.001000  dq finite difference perturbation B field



--------------------------------------------------------------------------------------------------------


 Static calculation
 charge density and potential will be updated during run
 non-spin polarized calculation
 Conjugate gradient for all bands (Freysoldt, et al. PRB 79, 241103 (2009))
 preconditioned conjugated gradient                                        
 perform sub-space diagonalisation
    before iterative eigenvector-optimisation
 modified Broyden-mixing scheme, WC =      100.0
 initial mixing is a Kerker type mixing with AMIX =  0.4000 and BMIX =      1.0000
 Hartree-type preconditioning will be used
 using additional bands           56
 reciprocal scheme for non local part
 use partial core corrections
 no Harris-corrections to forces 
 use gradient corrections 
 use of overlap-Matrix (Vanderbilt PP)
 Gauss-broadening in eV      SIGMA  =   0.00


--------------------------------------------------------------------------------------------------------


  energy-cutoff  :      700.00
  volume of cell :     1996.98
      direct lattice vectors                 reciprocal lattice vectors
    12.576837428  0.001915912  0.138198793     0.079520802 -0.000007684 -0.000869670
     0.001195632 12.457538083 -0.000746413    -0.000012224  0.080272684 -0.000000427
     0.139410704  0.000089045 12.747420625    -0.000862111  0.000004784  0.078456671

  length of vectors
    12.577596840 12.457538162 12.748182927     0.079525558  0.080272685  0.078461408


 
 k-points in units of 2pi/SCALE and weight: Automatic 3x3x3                         
   0.00000000  0.00000000  0.00000000       0.037
   0.02650693 -0.00000256 -0.00028989       0.074
  -0.00000407  0.02675756 -0.00000014       0.074
   0.02650286  0.02675500 -0.00029003       0.074
  -0.02651101  0.02676012  0.00028975       0.074
  -0.00028737  0.00000159  0.02615222       0.074
   0.02621956 -0.00000097  0.02586233       0.074
  -0.02679430  0.00000416  0.02644211       0.074
  -0.00029144  0.02675916  0.02615208       0.074
   0.02621549  0.02675659  0.02586219       0.074
  -0.02679838  0.02676172  0.02644197       0.074
  -0.00028330 -0.02675597  0.02615237       0.074
   0.02622364 -0.02675853  0.02586248       0.074
  -0.02679023 -0.02675341  0.02644226       0.074
 
 k-points in reciprocal lattice and weights: Automatic 3x3x3                         
   0.00000000  0.00000000  0.00000000       0.037
   0.33333333 -0.00000000 -0.00000000       0.074
   0.00000000  0.33333333 -0.00000000       0.074
   0.33333333  0.33333333  0.00000000       0.074
  -0.33333333  0.33333333  0.00000000       0.074
   0.00000000  0.00000000  0.33333333       0.074
   0.33333333  0.00000000  0.33333333       0.074
  -0.33333333  0.00000000  0.33333333       0.074
   0.00000000  0.33333333  0.33333333       0.074
   0.33333333  0.33333333  0.33333333       0.074
  -0.33333333  0.33333333  0.33333333       0.074
   0.00000000 -0.33333333  0.33333333       0.074
   0.33333333 -0.33333333  0.33333333       0.074
  -0.33333333 -0.33333333  0.33333333       0.074
 
 position of ions in fractional coordinates (direct lattice) 
   0.20033950  0.24992222  0.22370503
   0.69364877  0.24989433  0.23412568
   0.19364877  0.74989433  0.23412568
   0.70033950  0.74992222  0.22370503
   0.20033950  0.24992222  0.72370503
   0.69364877  0.24989433  0.73412568
   0.19364877  0.74989433  0.73412568
   0.70033950  0.74992222  0.72370503
   0.30545783  0.25001422  0.27417901
   0.80361661  0.24999306  0.27358958
   0.30361661  0.74999306  0.27358958
   0.80545783  0.75001422  0.27417901
   0.30545783  0.25001422  0.77417901
   0.80361661  0.24999306  0.77358958
   0.30361661  0.74999306  0.77358958
   0.80545783  0.75001422  0.77417901
   0.21294680  0.24982065  0.13799485
   0.69720354  0.24982154  0.14778241
   0.19720354  0.74982154  0.14778241
   0.71294680  0.74982065  0.13799485
   0.21294680  0.24982065  0.63799485
   0.69720354  0.24982154  0.64778241
   0.19720354  0.74982154  0.64778241
   0.71294680  0.74982065  0.63799485
   0.15642877  0.32240423  0.24821508
   0.65224684  0.32230014  0.26281555
   0.15224684  0.82230014  0.26281555
   0.65642877  0.82240423  0.24821508
   0.15642877  0.32240423  0.74821508
   0.65224684  0.32230014  0.76281555
   0.15224684  0.82230014  0.76281555
   0.65642877  0.82240423  0.74821508
   0.15651256  0.17746808  0.24837514
   0.65237311  0.17748406  0.26292628
   0.15237311  0.67748406  0.26292628
   0.65651256  0.67746808  0.24837514
   0.15651256  0.17746808  0.74837514
   0.65237311  0.17748406  0.76292628
   0.15237311  0.67748406  0.76292628
   0.65651256  0.67746808  0.74837514
   0.35011444  0.31798585  0.25324386
   0.84615471  0.31776271  0.24826912
   0.34615471  0.81776271  0.24826912
   0.85011444  0.81798585  0.25324386
   0.35011444  0.31798585  0.75324386
   0.84615471  0.31776271  0.74826912
   0.34615471  0.81776271  0.74826912
   0.85011444  0.81798585  0.75324386
   0.35016454  0.18199811  0.25340399
   0.84624606  0.18221166  0.24837780
   0.34624606  0.68221166  0.24837780
   0.85016454  0.68199811  0.25340399
   0.35016454  0.18199811  0.75340399
   0.84624606  0.18221166  0.74837780
   0.34624606  0.68221166  0.74837780
   0.85016454  0.68199811  0.75340399
   0.29941326  0.25012244  0.35575829
   0.80692689  0.25006460  0.35546020
   0.30692689  0.75006460  0.35546020
   0.79941326  0.75012244  0.35575829
   0.29941326  0.25012244  0.85575829
   0.80692689  0.25006460  0.85546020
   0.30692689  0.75006460  0.85546020
   0.79941326  0.75012244  0.85575829
   0.47244471  0.50053531  0.48881072
   0.97243884  0.49944428  0.48881217
   0.47243884  0.99944428  0.48881217
   0.97244471  0.00053531  0.48881072
   0.47244471  0.50053531  0.98881072
   0.97243884  0.49944428  0.98881217
   0.47243884  0.99944428  0.98881217
   0.97244471  0.00053531  0.98881072
   0.45475180  0.50028152  0.23757101
   0.95473555  0.49970058  0.23757447
   0.45473555  0.99970058  0.23757447
   0.95475180  0.00028152  0.23757101
   0.45475180  0.50028152  0.73757101
   0.95473555  0.49970058  0.73757447
   0.45473555  0.99970058  0.73757447
   0.95475180  0.00028152  0.73757101
   0.46014385  0.24997693  0.00985744
   0.93912703  0.24998109  0.01380699
   0.43912703  0.74998109  0.01380699
   0.96014385  0.74997693  0.00985744
   0.46014385  0.24997693  0.50985744
   0.93912703  0.24998109  0.51380699
   0.43912703  0.74998109  0.51380699
   0.96014385  0.74997693  0.50985744
   0.21617398  0.48745494  0.46123970
   0.71616890  0.51253993  0.46123970
   0.21616890  0.01253993  0.46123970
   0.71617398  0.98745494  0.46123970
   0.21617398  0.48745494  0.96123970
   0.71616890  0.51253993  0.96123970
   0.21616890  0.01253993  0.96123970
   0.71617398  0.98745494  0.96123970
 
 position of ions in cartesian coordinates  (Angst):
   2.55112295  3.11381938  2.87916227
   8.75684621  3.11441789  3.08017338
   2.46902532  9.34222898  3.01070077
   8.84013948  9.34354638  2.94788846
   2.62082831  3.11386391  9.25287259
   8.82655157  3.11446242  9.45388369
   2.53873067  9.34227350  9.38441108
   8.90984484  9.34359090  9.32159878
   3.88021591  3.11517136  3.53710245
  10.14539562  3.11586205  3.59843374
   3.85757473  9.34367314  3.52896114
  10.16923244  9.34489836  3.60582864
   3.94992126  3.11521588  9.91081276
  10.21510098  3.11590658  9.97214406
   3.92728008  9.34371766  9.90267145
  10.23893779  9.34494288  9.97953895
   2.69773390  3.11257057  1.78832087
   8.78951669  3.11351029  1.98001071
   2.50169579  9.34132137  1.91053810
   8.98675043  9.34229757  1.85704706
   2.76743925  3.11261509  8.16203118
   8.85922204  3.11355481  8.35372102
   2.57140114  9.34136589  8.28424842
   9.05645578  9.34234209  8.23075737
   2.00236856  4.01668477  3.18547971
   8.24022713  4.01633937  3.44011957
   1.95240624 10.24415046  3.37064697
   8.29138509 10.24641176  3.25420590
   2.07207391  4.01672929  9.55919002
   8.30993249  4.01638390  9.81382988
   2.02211159 10.24419498  9.74435728
   8.36109044 10.24645629  9.62791621
   2.00327138  2.21113739  3.18763974
   8.24165743  2.21228778  3.44165652
   1.95383653  8.44009887  3.37218392
   8.29228791  8.44086439  3.25636593
   2.07297674  2.21118191  9.56135005
   8.31136278  2.21233230  9.81536684
   2.02354189  8.44014339  9.74589423
   8.36199327  8.44090891  9.63007624
   4.43901755  3.96201420  3.27635404
  10.67694153  3.96018437  3.28149132
   4.38912063 10.18799545  3.21201871
  10.72803408 10.19174120  3.34508023
   4.50872290  3.96205873  9.65006435
  10.74664688  3.96022889  9.65520163
   4.45882599 10.18803998  9.58572903
  10.79773943 10.19178572  9.71879054
   4.43950734  2.26794190  3.27850378
  10.67794350  2.27155214  3.28299053
   4.39012260  8.49936323  3.21351793
  10.72852387  8.49766889  3.34722997
   4.50921269  2.26798642  9.65221409
  10.74764885  2.27159667  9.65670085
   4.45982795  8.49940775  9.58722824
  10.79822922  8.49771342  9.72094028
   3.81556741  3.11651516  4.57619241
  10.19844225  3.11676696  4.64253036
   3.91062135  9.34457805  4.57305776
  10.10458394  9.34624216  4.64491860
   3.88527277  3.11655968 10.94990272
  10.26814760  3.11681148 11.01624067
   3.98032671  9.34462257 10.94676807
  10.17428930  9.34628668 11.01862891
   6.01060420  6.23638640  6.29599353
  12.29894804  6.22375274  6.36511147
   6.01112714 12.45156382  6.29563887
  12.29842510  0.00857532  6.36546614
   6.08030955  6.23643093 12.66970385
  12.36865339  6.22379726 12.73882179
   6.08083250 12.45160835 12.66934918
  12.36813045  0.00861984 12.73917645
   5.75305760  6.23316848  3.09089037
  12.04127162  6.22688936  3.16003203
   5.75345072 12.45470045  3.09055942
  12.04087849  0.00535739  3.16036297
   5.82276295  6.23321300  9.46460068
  12.11097697  6.22693389  9.53374234
   5.82315608 12.45474497  9.46426973
  12.11058385  0.00540192  9.53407328
   5.78882754  3.11497966  0.18906172
  11.81347167  3.11594942  0.30560317
   5.52565077  9.34376050  0.23613056
  12.07784407  9.34470665  0.25778791
   5.85853289  3.11502418  6.56277203
  11.88317702  3.11599394  6.67931348
   5.59535612  9.34380503  6.60984087
  12.14754942  9.34475118  6.63149822
   2.78366951  6.07294376  5.90912760
   9.07205441  6.38639887  5.97820762
   2.78303788  0.15667188  5.90948143
   9.07268604 12.30267076  5.97785379
   2.85337486  6.07298829 12.28283792
   9.14175976  6.38644340 12.35191794
   2.85274323  0.15671640 12.28319175
   9.14239139 12.30271528 12.35156411
 


--------------------------------------------------------------------------------------------------------


 k-point  1 :   0.0000 0.0000 0.0000  plane waves:   84007
 k-point  2 :   0.3333-0.0000-0.0000  plane waves:   84003
 k-point  3 :   0.0000 0.3333-0.0000  plane waves:   83995
 k-point  4 :   0.3333 0.3333 0.0000  plane waves:   84018
 k-point  5 :  -0.3333 0.3333 0.0000  plane waves:   84019
 k-point  6 :   0.0000 0.0000 0.3333  plane waves:   83960
 k-point  7 :   0.3333 0.0000 0.3333  plane waves:   83937
 k-point  8 :  -0.3333 0.0000 0.3333  plane waves:   83982
 k-point  9 :   0.0000 0.3333 0.3333  plane waves:   83984
 k-point 10 :   0.3333 0.3333 0.3333  plane waves:   84012
 k-point 11 :  -0.3333 0.3333 0.3333  plane waves:   83970
 k-point 12 :   0.0000-0.3333 0.3333  plane waves:   83977
 k-point 13 :   0.3333-0.3333 0.3333  plane waves:   84013
 k-point 14 :  -0.3333-0.3333 0.3333  plane waves:   83973

 maximum and minimum number of plane-waves per node :      3556     3433

 maximum number of plane-waves:     84019
 maximum index in each direction: 
   IXMAX=   27   IYMAX=   27   IZMAX=   27
   IXMIN=  -27   IYMIN=  -27   IZMIN=  -27

 NGX is ok and might be reduce to 110
 WARNING: aliasing errors must be expected set NGY to 110 to avoid them
 NGZ is ok and might be reduce to 110
 aliasing errors are usually negligible using standard VASP settings
 and one can safely disregard these warnings

 parallel 3D FFT for wavefunctions:
    minimum data exchange during FFTs selected (reduces bandwidth)
 parallel 3D FFT for charge:
    minimum data exchange during FFTs selected (reduces bandwidth)


 FFT grid for exact exchange (Hartree Fock) 
  NGX = 56; NGY = 56; NGZ = 60

 
 Radii for the augmentation spheres in the non-local exchange
 for species   1 augmentation radius   0.944 (default was   0.699)
       energy cutoff for augmentation   2800.0
 for species   2 augmentation radius   0.957 (default was   0.709)
       energy cutoff for augmentation   2800.0
 for species   3 augmentation radius   0.702 (default was   0.520)
       energy cutoff for augmentation   2800.0
 for species   4 augmentation radius   1.558 (default was   1.154)
       energy cutoff for augmentation   2800.0
 for species   5 augmentation radius   1.603 (default was   1.188)
       energy cutoff for augmentation   2800.0

 real space projection operators:
  total allocation   :      10797.88 KBytes
  max/ min on nodes  :        926.97        159.73

 Maximum index for augmentation-charges in exchange          232
  SETUP_FOCK is finished

 total amount of memory used by VASP on root node   100707. kBytes
========================================================================

   base      :      30000. kBytes
   nonl-proj :      43862. kBytes
   fftplans  :       6104. kBytes
   grid      :       6326. kBytes
   one-center:         62. kBytes
   HF        :        194. kBytes
   nonlr-proj:       3839. kBytes
   wavefun   :      10320. kBytes
 
     INWAV:  cpu time    0.0000: real time    0.0000
 Broyden mixing: mesh for mixing (old mesh)
   NGX = 55   NGY = 53   NGZ = 55
  (NGX  =224   NGY  =216   NGZ  =224)
  gives a total of 160325 points

 initial charge density was supplied:
 charge density of overlapping atoms calculated
 number of electron     400.0000000 magnetization 
 keeping initial charge density in first step


--------------------------------------------------------------------------------------------------------


 Maximum index for augmentation-charges         4634 (set IRDMAX)


--------------------------------------------------------------------------------------------------------


 First call to EWALD:  gamma=   0.141
 Maximum number of real-space cells 3x 3x 3
 Maximum number of reciprocal cells 3x 3x 3

 FEWALD executed in parallel
    FEWALD:  cpu time    0.0040: real time    0.0043


----------------------------------------- Iteration    1(   1)  ---------------------------------------


    POTLOK:  cpu time    0.2040: real time    0.2050
    SETDIJ:  cpu time    0.6080: real time    0.6085
    TRIAL :  cpu time   16.4050: real time   16.4153
    CORREC:  cpu time    0.0000: real time    0.0025
    --------------------------------------------
      LOOP:  cpu time   17.2251: real time   17.3108

 eigenvalue-minimisations  : 11648
 total energy-change (2. order) : 0.2351906E+05  (-0.1369959E+06)
 number of electron     400.0000000 magnetization 
 augmentation part      400.0000000 magnetization 

 Free energy of the ion-electron system (eV)
  ---------------------------------------------------
  alpha Z        PSCENC =       370.05370877
  Ewald energy   TEWEN  =    -15514.32937400
  -Hartree energ DENC   =     -8132.09243735
  -exchange      EXHF   =         0.00000000
  -V(xc)+E(xc)   XCENC  =       254.72206173
  PAW double counting   =     20708.16285019   -20051.16882790
  entropy T*S    EENTRO =        -0.00005125
  eigenvalues    EBANDS =     21203.28572689
  atomic energy  EATOM  =     24680.42500649
  ---------------------------------------------------
  free energy    TOTEN  =     23519.05866357 eV

  energy without entropy =    23519.05871482  energy(sigma->0) =    23519.05868919
  exchange ACFDT corr.  =         0.00000000  see jH, gK, PRB 81, 115126


--------------------------------------------------------------------------------------------------------




----------------------------------------- Iteration    1(   2)  ---------------------------------------


    TRIAL :  cpu time   10.4527: real time   10.4703
    CORREC:  cpu time    0.0040: real time    0.0027
    --------------------------------------------
      LOOP:  cpu time   10.4607: real time   10.5268

 eigenvalue-minimisations  :  8448
 total energy-change (2. order) :-0.1822341E+05  (-0.1723215E+05)
 number of electron     400.0000000 magnetization 
 augmentation part      400.0000000 magnetization 

 Free energy of the ion-electron system (eV)
  ---------------------------------------------------
  alpha Z        PSCENC =       370.05370877
  Ewald energy   TEWEN  =    -15514.32937400
  -Hartree energ DENC   =     -8132.09243735
  -exchange      EXHF   =         0.00000000
  -V(xc)+E(xc)   XCENC  =       254.72206173
  PAW double counting   =     20708.16285019   -20051.16882790
  entropy T*S    EENTRO =        -0.00000000
  eigenvalues    EBANDS =      2979.87578772
  atomic energy  EATOM  =     24680.42500649
  ---------------------------------------------------
  free energy    TOTEN  =      5295.64877564 eV

  energy without entropy =     5295.64877564  energy(sigma->0) =     5295.64877564
  exchange ACFDT corr.  =         0.00000000  see jH, gK, PRB 81, 115126


--------------------------------------------------------------------------------------------------------




----------------------------------------- Iteration    1(   3)  ---------------------------------------


    TRIAL :  cpu time   12.8688: real time   12.8845
    CORREC:  cpu time    0.0000: real time    0.0009
    --------------------------------------------
      LOOP:  cpu time   12.8688: real time   12.9253

 eigenvalue-minimisations  :  9856
 total energy-change (2. order) :-0.4412621E+04  (-0.4242276E+04)
 number of electron     400.0000000 magnetization 
 augmentation part      400.0000000 magnetization 

 Free energy of the ion-electron system (eV)
  ---------------------------------------------------
  alpha Z        PSCENC =       370.05370877
  Ewald energy   TEWEN  =    -15514.32937400
  -Hartree energ DENC   =     -8132.09243735
  -exchange      EXHF   =         0.00000000
  -V(xc)+E(xc)   XCENC  =       254.72206173
  PAW double counting   =     20708.16285019   -20051.16882790
  entropy T*S    EENTRO =        -0.00000000
  eigenvalues    EBANDS =     -1432.74478479
  atomic energy  EATOM  =     24680.42500649
  ---------------------------------------------------
  free energy    TOTEN  =       883.02820314 eV

  energy without entropy =      883.02820314  energy(sigma->0) =      883.02820314
  exchange ACFDT corr.  =         0.00000000  see jH, gK, PRB 81, 115126


--------------------------------------------------------------------------------------------------------




----------------------------------------- Iteration    1(   4)  ---------------------------------------


    TRIAL :  cpu time   13.1128: real time   13.1315
    CORREC:  cpu time    0.0000: real time    0.0006
    --------------------------------------------
      LOOP:  cpu time   13.1168: real time   13.1681

 eigenvalue-minimisations  :  9856
 total energy-change (2. order) :-0.5874213E+03  (-0.5739808E+03)
 number of electron     400.0000000 magnetization 
 augmentation part      400.0000000 magnetization 

 Free energy of the ion-electron system (eV)
  ---------------------------------------------------
  alpha Z        PSCENC =       370.05370877
  Ewald energy   TEWEN  =    -15514.32937400
  -Hartree energ DENC   =     -8132.09243735
  -exchange      EXHF   =         0.00000000
  -V(xc)+E(xc)   XCENC  =       254.72206173
  PAW double counting   =     20708.16285019   -20051.16882790
  entropy T*S    EENTRO =         0.00000000
  eigenvalues    EBANDS =     -2020.16609909
  atomic energy  EATOM  =     24680.42500649
  ---------------------------------------------------
  free energy    TOTEN  =       295.60688883 eV

  energy without entropy =      295.60688883  energy(sigma->0) =      295.60688883
  exchange ACFDT corr.  =         0.00000000  see jH, gK, PRB 81, 115126


--------------------------------------------------------------------------------------------------------




----------------------------------------- Iteration    1(   5)  ---------------------------------------


    TRIAL :  cpu time   11.7407: real time   11.7783
    CORREC:  cpu time    0.0040: real time    0.0019
    CHARGE:  cpu time    0.8761: real time    0.8785
    --------------------------------------------
      LOOP:  cpu time   12.6208: real time   13.0754

 eigenvalue-minimisations  :  8960
 total energy-change (2. order) :-0.2948689E+02  (-0.2941459E+02)
 number of electron     400.0000000 magnetization 
 augmentation part       10.9784358 magnetization 

 Free energy of the ion-electron system (eV)
  ---------------------------------------------------
  alpha Z        PSCENC =       370.05370877
  Ewald energy   TEWEN  =    -15514.32937400
  -Hartree energ DENC   =     -8132.09243735
  -exchange      EXHF   =         0.00000000
  -V(xc)+E(xc)   XCENC  =       254.72206173
  PAW double counting   =     20708.16285019   -20051.16882790
  entropy T*S    EENTRO =        -0.00000000
  eigenvalues    EBANDS =     -2049.65298704
  atomic energy  EATOM  =     24680.42500649
  ---------------------------------------------------
  free energy    TOTEN  =       266.12000088 eV

  energy without entropy =      266.12000088  energy(sigma->0) =      266.12000088
  exchange ACFDT corr.  =         0.00000000  see jH, gK, PRB 81, 115126


--------------------------------------------------------------------------------------------------------




----------------------------------------- Iteration    1(   6)  ---------------------------------------


    POTLOK:  cpu time    0.1720: real time    0.1728
    SETDIJ:  cpu time    0.6040: real time    0.6050
    TRIAL :  cpu time  405.2293: real time  405.5146
    CORREC:  cpu time  405.5893: real time  405.8544
    CHARGE:  cpu time    0.8961: real time    0.8963
    --------------------------------------------
      LOOP:  cpu time  812.4948: real time  813.0806

 eigenvalue-minimisations  :     0
 total energy-change (2. order) :-0.7282487E+03  (-0.1099568E+02)
 number of electron     400.0000000 magnetization 
 augmentation part       11.9480904 magnetization 

 Free energy of the ion-electron system (eV)
  ---------------------------------------------------
  alpha Z        PSCENC =       370.05370877
  Ewald energy   TEWEN  =    -15514.32937400
  -Hartree energ DENC   =     -8243.10545822
  -exchange      EXHF   =       757.53215020
  -V(xc)+E(xc)   XCENC  =       274.00561405
  PAW double counting   =     41399.93062850   -40732.28235430
  entropy T*S    EENTRO =         0.00000000
  eigenvalues    EBANDS =     -3454.35858484
  atomic energy  EATOM  =     24680.42500649
  ---------------------------------------------------
  free energy    TOTEN  =      -462.12866335 eV

  energy without entropy =     -462.12866335  energy(sigma->0) =     -462.12866335
  exchange ACFDT corr.  =         0.00000000  see jH, gK, PRB 81, 115126


--------------------------------------------------------------------------------------------------------




----------------------------------------- Iteration    1(   7)  ---------------------------------------


    POTLOK:  cpu time    0.1880: real time    0.1878
    SETDIJ:  cpu time    0.6200: real time    0.6197
    TRIAL :  cpu time  406.7254: real time  407.0209
    CORREC:  cpu time  408.3015: real time  408.5663
    CHARGE:  cpu time    0.8881: real time    0.8915
    --------------------------------------------
      LOOP:  cpu time  816.7230: real time  817.3317

 eigenvalue-minimisations  :     0
 total energy-change (2. order) :-0.1091292E+02  (-0.4319191E+01)
 number of electron     400.0000000 magnetization 
 augmentation part        9.6068391 magnetization 

 Free energy of the ion-electron system (eV)
  ---------------------------------------------------
  alpha Z        PSCENC =       370.05370877
  Ewald energy   TEWEN  =    -15514.32937400
  -Hartree energ DENC   =     -8457.61440243
  -exchange      EXHF   =       763.51977425
  -V(xc)+E(xc)   XCENC  =       278.97482727
  PAW double counting   =     40401.92089857   -39731.28939809
  entropy T*S    EENTRO =        -0.00000000
  eigenvalues    EBANDS =     -3264.70262823
  atomic energy  EATOM  =     24680.42500649
  ---------------------------------------------------
  free energy    TOTEN  =      -473.04158740 eV

  energy without entropy =     -473.04158740  energy(sigma->0) =     -473.04158740
  exchange ACFDT corr.  =         0.00000000  see jH, gK, PRB 81, 115126


--------------------------------------------------------------------------------------------------------




----------------------------------------- Iteration    1(   8)  ---------------------------------------


    POTLOK:  cpu time    0.1840: real time    0.1849
    SETDIJ:  cpu time    0.6120: real time    0.6108
    TRIAL :  cpu time  407.8695: real time  408.1759
    CORREC:  cpu time  409.0816: real time  409.3502
    CHARGE:  cpu time    0.8841: real time    0.8836
    --------------------------------------------
      LOOP:  cpu time  818.6352: real time  819.2284

 eigenvalue-minimisations  :     0
 total energy-change (2. order) :-0.4320668E+01  (-0.1346350E+01)
 number of electron     400.0000000 magnetization 
 augmentation part        9.3931709 magnetization 

 Free energy of the ion-electron system (eV)
  ---------------------------------------------------
  alpha Z        PSCENC =       370.05370877
  Ewald energy   TEWEN  =    -15514.32937400
  -Hartree energ DENC   =     -8404.62182489
  -exchange      EXHF   =       765.45043943
  -V(xc)+E(xc)   XCENC  =       277.57260187
  PAW double counting   =     38845.85764501   -38181.59804161
  entropy T*S    EENTRO =        -0.00000000
  eigenvalues    EBANDS =     -3316.17241675
  atomic energy  EATOM  =     24680.42500649
  ---------------------------------------------------
  free energy    TOTEN  =      -477.36225568 eV

  energy without entropy =     -477.36225568  energy(sigma->0) =     -477.36225568
  exchange ACFDT corr.  =         0.00000000  see jH, gK, PRB 81, 115126


--------------------------------------------------------------------------------------------------------




----------------------------------------- Iteration    1(   9)  ---------------------------------------


    POTLOK:  cpu time    0.2080: real time    0.2069
    SETDIJ:  cpu time    0.6200: real time    0.6189
    TRIAL :  cpu time  409.3296: real time  409.6220
    CORREC:  cpu time  409.7576: real time  410.0320
    CHARGE:  cpu time    0.9201: real time    0.9185
    --------------------------------------------
      LOOP:  cpu time  820.8353: real time  824.3834

 eigenvalue-minimisations  :     0
 total energy-change (2. order) :-0.1355498E+01  (-0.4258825E+00)
 number of electron     400.0000000 magnetization 
 augmentation part        9.5620045 magnetization 

 Free energy of the ion-electron system (eV)
  ---------------------------------------------------
  alpha Z        PSCENC =       370.05370877
  Ewald energy   TEWEN  =    -15514.32937400
  -Hartree energ DENC   =     -8447.49306793
  -exchange      EXHF   =       768.74463695
  -V(xc)+E(xc)   XCENC  =       279.55643238
  PAW double counting   =     37087.26607071   -36424.49328577
  entropy T*S    EENTRO =         0.00000000
  eigenvalues    EBANDS =     -3278.44788143
  atomic energy  EATOM  =     24680.42500649
  ---------------------------------------------------
  free energy    TOTEN  =      -478.71775384 eV

  energy without entropy =     -478.71775384  energy(sigma->0) =     -478.71775384
  exchange ACFDT corr.  =         0.00000000  see jH, gK, PRB 81, 115126


--------------------------------------------------------------------------------------------------------




----------------------------------------- Iteration    1(  10)  ---------------------------------------


    POTLOK:  cpu time    0.2040: real time    0.2011
    SETDIJ:  cpu time    0.6120: real time    0.6145
    TRIAL :  cpu time  409.1576: real time  409.4518
    CORREC:  cpu time  409.1696: real time  409.4390
    CHARGE:  cpu time    0.8961: real time    0.8994
    --------------------------------------------
      LOOP:  cpu time  820.0392: real time  820.6252

 eigenvalue-minimisations  :     0
 total energy-change (2. order) :-0.4277840E+00  (-0.1136336E+00)
 number of electron     400.0000000 magnetization 
 augmentation part        9.3189320 magnetization 

 Free energy of the ion-electron system (eV)
  ---------------------------------------------------
  alpha Z        PSCENC =       370.05370877
  Ewald energy   TEWEN  =    -15514.32937400
  -Hartree energ DENC   =     -8450.55982393
  -exchange      EXHF   =       768.59968529
  -V(xc)+E(xc)   XCENC  =       279.31403058
  PAW double counting   =     35924.12347602   -35260.52261917
  entropy T*S    EENTRO =        -0.00000000
  eigenvalues    EBANDS =     -3276.24962791
  atomic energy  EATOM  =     24680.42500649
  ---------------------------------------------------
  free energy    TOTEN  =      -479.14553787 eV

  energy without entropy =     -479.14553787  energy(sigma->0) =     -479.14553787
  exchange ACFDT corr.  =         0.00000000  see jH, gK, PRB 81, 115126


--------------------------------------------------------------------------------------------------------




----------------------------------------- Iteration    1(  11)  ---------------------------------------


    POTLOK:  cpu time    0.1800: real time    0.1810
    SETDIJ:  cpu time    0.6120: real time    0.6139
    TRIAL :  cpu time  409.3976: real time  409.6804
    CORREC:  cpu time  409.5896: real time  409.8638
    CHARGE:  cpu time    0.8961: real time    0.8958
    --------------------------------------------
      LOOP:  cpu time  820.6793: real time  822.1286

 eigenvalue-minimisations  :     0
 total energy-change (2. order) :-0.1136098E+00  (-0.5556659E-01)
 number of electron     400.0000000 magnetization 
 augmentation part        9.3709630 magnetization 

 Free energy of the ion-electron system (eV)
  ---------------------------------------------------
  alpha Z        PSCENC =       370.05370877
  Ewald energy   TEWEN  =    -15514.32937400
  -Hartree energ DENC   =     -8428.65627527
  -exchange      EXHF   =       768.13643278
  -V(xc)+E(xc)   XCENC  =       278.61189531
  PAW double counting   =     35542.76606853   -34879.44730971
  entropy T*S    EENTRO =         0.00000000
  eigenvalues    EBANDS =     -3296.81930053
  atomic energy  EATOM  =     24680.42500649
  ---------------------------------------------------
  free energy    TOTEN  =      -479.25914763 eV

  energy without entropy =     -479.25914763  energy(sigma->0) =     -479.25914763
  exchange ACFDT corr.  =        -0.00000000  see jH, gK, PRB 81, 115126


--------------------------------------------------------------------------------------------------------




----------------------------------------- Iteration    1(  12)  ---------------------------------------


    POTLOK:  cpu time    0.1880: real time    0.1903
    SETDIJ:  cpu time    0.6160: real time    0.6142
    TRIAL :  cpu time  408.9296: real time  409.2081
    CORREC:  cpu time  409.4416: real time  409.7084
    CHARGE:  cpu time    0.8961: real time    0.8996
    --------------------------------------------
      LOOP:  cpu time  820.0753: real time  820.6738

 eigenvalue-minimisations  :     0
 total energy-change (2. order) :-0.5559577E-01  (-0.1439829E-01)
 number of electron     400.0000000 magnetization 
 augmentation part        9.3560414 magnetization 

 Free energy of the ion-electron system (eV)
  ---------------------------------------------------
  alpha Z        PSCENC =       370.05370877
  Ewald energy   TEWEN  =    -15514.32937400
  -Hartree energ DENC   =     -8441.84797467
  -exchange      EXHF   =       768.56647972
  -V(xc)+E(xc)   XCENC  =       278.96177681
  PAW double counting   =     35426.63837350   -34762.96212820
  entropy T*S    EENTRO =         0.00000000
  eigenvalues    EBANDS =     -3284.82061182
  atomic energy  EATOM  =     24680.42500649
  ---------------------------------------------------
  free energy    TOTEN  =      -479.31474341 eV

  energy without entropy =     -479.31474341  energy(sigma->0) =     -479.31474341
  exchange ACFDT corr.  =         0.00000000  see jH, gK, PRB 81, 115126


--------------------------------------------------------------------------------------------------------




----------------------------------------- Iteration    1(  13)  ---------------------------------------


    POTLOK:  cpu time    0.2040: real time    0.2032
    SETDIJ:  cpu time    0.6240: real time    0.6261
    TRIAL :  cpu time  408.9616: real time  409.3889
    CORREC:  cpu time  408.8215: real time  409.0899
    CHARGE:  cpu time    0.8881: real time    0.8858
    --------------------------------------------
      LOOP:  cpu time  819.5032: real time  820.2186

 eigenvalue-minimisations  :     0
 total energy-change (2. order) :-0.1439652E-01  (-0.4110556E-02)
 number of electron     400.0000000 magnetization 
 augmentation part        9.3470714 magnetization 

 Free energy of the ion-electron system (eV)
  ---------------------------------------------------
  alpha Z        PSCENC =       370.05370877
  Ewald energy   TEWEN  =    -15514.32937400
  -Hartree energ DENC   =     -8441.74764039
  -exchange      EXHF   =       768.63500283
  -V(xc)+E(xc)   XCENC  =       278.97774783
  PAW double counting   =     35499.42937936   -34835.73585992
  entropy T*S    EENTRO =         0.00000000
  eigenvalues    EBANDS =     -3285.03711089
  atomic energy  EATOM  =     24680.42500649
  ---------------------------------------------------
  free energy    TOTEN  =      -479.32913993 eV

  energy without entropy =     -479.32913993  energy(sigma->0) =     -479.32913993
  exchange ACFDT corr.  =         0.00000000  see jH, gK, PRB 81, 115126


--------------------------------------------------------------------------------------------------------




----------------------------------------- Iteration    1(  14)  ---------------------------------------


    POTLOK:  cpu time    0.2080: real time    0.2077
    SETDIJ:  cpu time    0.6080: real time    0.6094
    TRIAL :  cpu time  408.2455: real time  408.5359
    CORREC:  cpu time  409.3896: real time  409.6596
    CHARGE:  cpu time    0.8881: real time    0.8868
    --------------------------------------------
      LOOP:  cpu time  819.3392: real time  819.9263

 eigenvalue-minimisations  :     0
 total energy-change (2. order) :-0.4111093E-02  (-0.1064062E-02)
 number of electron     400.0000000 magnetization 
 augmentation part        9.3649134 magnetization 

 Free energy of the ion-electron system (eV)
  ---------------------------------------------------
  alpha Z        PSCENC =       370.05370877
  Ewald energy   TEWEN  =    -15514.32937400
  -Hartree energ DENC   =     -8440.92016614
  -exchange      EXHF   =       768.62852554
  -V(xc)+E(xc)   XCENC  =       278.96221865
  PAW double counting   =     35591.39020156   -34927.72127775
  entropy T*S    EENTRO =         0.00000000
  eigenvalues    EBANDS =     -3285.82209413
  atomic energy  EATOM  =     24680.42500649
  ---------------------------------------------------
  free energy    TOTEN  =      -479.33325102 eV

  energy without entropy =     -479.33325102  energy(sigma->0) =     -479.33325102
  exchange ACFDT corr.  =         0.00000000  see jH, gK, PRB 81, 115126


--------------------------------------------------------------------------------------------------------




----------------------------------------- Iteration    1(  15)  ---------------------------------------


    POTLOK:  cpu time    0.1840: real time    0.1844
    SETDIJ:  cpu time    0.6080: real time    0.6084
    TRIAL :  cpu time  408.6375: real time  408.9100
    CORREC:  cpu time  409.1416: real time  409.4073
    CHARGE:  cpu time    0.8841: real time    0.8847
    --------------------------------------------
      LOOP:  cpu time  819.4552: real time  820.0875

 eigenvalue-minimisations  :     0
 total energy-change (2. order) :-0.1059660E-02  (-0.3688330E-03)
 number of electron     400.0000000 magnetization 
 augmentation part        9.3532936 magnetization 

 Free energy of the ion-electron system (eV)
  ---------------------------------------------------
  alpha Z        PSCENC =       370.05370877
  Ewald energy   TEWEN  =    -15514.32937400
  -Hartree energ DENC   =     -8442.60131712
  -exchange      EXHF   =       768.65832073
  -V(xc)+E(xc)   XCENC  =       279.00710490
  PAW double counting   =     35646.31926373   -34982.61909237
  entropy T*S    EENTRO =         0.00000000
  eigenvalues    EBANDS =     -3284.24793180
  atomic energy  EATOM  =     24680.42500649
  ---------------------------------------------------
  free energy    TOTEN  =      -479.33431068 eV

  energy without entropy =     -479.33431068  energy(sigma->0) =     -479.33431068
  exchange ACFDT corr.  =         0.00000000  see jH, gK, PRB 81, 115126


--------------------------------------------------------------------------------------------------------




----------------------------------------- Iteration    1(  16)  ---------------------------------------


    POTLOK:  cpu time    0.2200: real time    0.2185
    SETDIJ:  cpu time    0.6160: real time    0.6173
    TRIAL :  cpu time  408.0615: real time  408.3450
    CORREC:  cpu time  409.2256: real time  409.4972
    CHARGE:  cpu time    0.8881: real time    0.8898
    --------------------------------------------
      LOOP:  cpu time  819.0192: real time  819.5931

 eigenvalue-minimisations  :     0
 total energy-change (2. order) :-0.3673514E-03  (-0.2054114E-03)
 number of electron     400.0000000 magnetization 
 augmentation part        9.3561065 magnetization 

 Free energy of the ion-electron system (eV)
  ---------------------------------------------------
  alpha Z        PSCENC =       370.05370877
[...]


 FORCES acting on ions:
    Electron-Ion                     Ewald-Force                    Non-Local-Force
 -----------------------------------------------------------------------------------------------
   0.866E+02 0.565E-01 0.407E+02   -.937E+02 -.648E-01 -.444E+02   0.658E+01 0.754E-02 0.333E+01
   0.861E+02 0.549E-01 0.331E+02   -.935E+02 -.636E-01 -.360E+02   0.686E+01 0.802E-02 0.262E+01
   0.861E+02 0.549E-01 0.331E+02   -.935E+02 -.636E-01 -.360E+02   0.686E+01 0.802E-02 0.262E+01
   0.866E+02 0.565E-01 0.407E+02   -.937E+02 -.648E-01 -.444E+02   0.658E+01 0.754E-02 0.333E+01
   0.866E+02 0.566E-01 0.407E+02   -.937E+02 -.648E-01 -.444E+02   0.658E+01 0.754E-02 0.333E+01
   0.861E+02 0.549E-01 0.331E+02   -.935E+02 -.636E-01 -.360E+02   0.686E+01 0.802E-02 0.262E+01
   0.861E+02 0.549E-01 0.331E+02   -.935E+02 -.636E-01 -.360E+02   0.686E+01 0.802E-02 0.262E+01
   0.866E+02 0.565E-01 0.407E+02   -.937E+02 -.648E-01 -.444E+02   0.658E+01 0.754E-02 0.333E+01
   -.369E+02 -.818E-01 -.192E+02   0.362E+02 0.780E-01 0.183E+02   0.114E+01 0.372E-02 0.106E+01
   -.388E+02 -.107E+00 -.155E+02   0.378E+02 0.105E+00 0.151E+02   0.137E+01 0.238E-02 0.554E+00
   -.388E+02 -.107E+00 -.155E+02   0.378E+02 0.105E+00 0.151E+02   0.137E+01 0.238E-02 0.554E+00
   -.369E+02 -.818E-01 -.192E+02   0.362E+02 0.780E-01 0.183E+02   0.114E+01 0.372E-02 0.106E+01
   -.369E+02 -.818E-01 -.192E+02   0.362E+02 0.780E-01 0.183E+02   0.114E+01 0.372E-02 0.106E+01
   -.388E+02 -.107E+00 -.155E+02   0.378E+02 0.105E+00 0.151E+02   0.137E+01 0.238E-02 0.554E+00
   -.388E+02 -.107E+00 -.155E+02   0.378E+02 0.105E+00 0.151E+02   0.137E+01 0.238E-02 0.554E+00
   -.369E+02 -.818E-01 -.192E+02   0.362E+02 0.780E-01 0.183E+02   0.114E+01 0.372E-02 0.106E+01
   0.362E+01 0.542E-01 0.523E+02   -.304E+01 -.606E-01 -.577E+02   -.603E+00 0.655E-02 0.560E+01
   0.744E+01 0.407E-01 0.524E+02   -.742E+01 -.453E-01 -.578E+02   -.153E-01 0.478E-02 0.563E+01
   0.744E+01 0.407E-01 0.524E+02   -.742E+01 -.453E-01 -.578E+02   -.153E-01 0.478E-02 0.563E+01
   0.362E+01 0.542E-01 0.523E+02   -.304E+01 -.606E-01 -.577E+02   -.603E+00 0.655E-02 0.560E+01
   0.362E+01 0.542E-01 0.523E+02   -.304E+01 -.606E-01 -.577E+02   -.603E+00 0.655E-02 0.560E+01
   0.744E+01 0.407E-01 0.524E+02   -.742E+01 -.453E-01 -.578E+02   -.153E-01 0.478E-02 0.563E+01
   0.744E+01 0.407E-01 0.524E+02   -.742E+01 -.453E-01 -.578E+02   -.153E-01 0.478E-02 0.563E+01
   0.362E+01 0.542E-01 0.523E+02   -.304E+01 -.606E-01 -.577E+02   -.603E+00 0.655E-02 0.560E+01
   0.318E+02 -.394E+02 -.881E+01   -.346E+02 0.438E+02 0.103E+02   0.291E+01 -.458E+01 -.148E+01
   0.294E+02 -.394E+02 -.117E+02   -.320E+02 0.439E+02 0.134E+02   0.276E+01 -.458E+01 -.177E+01
   0.294E+02 -.394E+02 -.117E+02   -.320E+02 0.439E+02 0.134E+02   0.276E+01 -.458E+01 -.177E+01
   0.318E+02 -.394E+02 -.881E+01   -.346E+02 0.438E+02 0.103E+02   0.291E+01 -.458E+01 -.148E+01
   0.318E+02 -.394E+02 -.881E+01   -.346E+02 0.438E+02 0.103E+02   0.291E+01 -.458E+01 -.148E+01
   0.294E+02 -.394E+02 -.117E+02   -.320E+02 0.439E+02 0.134E+02   0.276E+01 -.458E+01 -.177E+01
   0.294E+02 -.394E+02 -.117E+02   -.320E+02 0.439E+02 0.134E+02   0.276E+01 -.458E+01 -.177E+01
   0.318E+02 -.394E+02 -.881E+01   -.346E+02 0.438E+02 0.103E+02   0.291E+01 -.458E+01 -.148E+01
   0.318E+02 0.394E+02 -.890E+01   -.346E+02 -.438E+02 0.104E+02   0.290E+01 0.458E+01 -.149E+01
   0.293E+02 0.394E+02 -.117E+02   -.320E+02 -.439E+02 0.135E+02   0.275E+01 0.458E+01 -.178E+01
   0.293E+02 0.394E+02 -.117E+02   -.320E+02 -.439E+02 0.135E+02   0.275E+01 0.458E+01 -.178E+01
   0.318E+02 0.394E+02 -.890E+01   -.346E+02 -.438E+02 0.104E+02   0.290E+01 0.458E+01 -.149E+01
   0.318E+02 0.394E+02 -.890E+01   -.346E+02 -.438E+02 0.104E+02   0.290E+01 0.458E+01 -.149E+01
   0.293E+02 0.394E+02 -.117E+02   -.320E+02 -.439E+02 0.135E+02   0.275E+01 0.458E+01 -.178E+01
   0.293E+02 0.394E+02 -.117E+02   -.320E+02 -.439E+02 0.135E+02   0.275E+01 0.458E+01 -.178E+01
   0.318E+02 0.394E+02 -.890E+01   -.346E+02 -.438E+02 0.104E+02   0.290E+01 0.458E+01 -.149E+01
   -.345E+02 -.483E+02 0.158E+02   0.379E+02 0.535E+02 -.174E+02   -.361E+01 -.547E+01 0.167E+01
   -.327E+02 -.488E+02 0.190E+02   0.360E+02 0.540E+02 -.210E+02   -.346E+01 -.547E+01 0.205E+01
   -.327E+02 -.488E+02 0.190E+02   0.360E+02 0.540E+02 -.210E+02   -.346E+01 -.547E+01 0.205E+01
   -.345E+02 -.483E+02 0.158E+02   0.379E+02 0.535E+02 -.174E+02   -.361E+01 -.547E+01 0.167E+01
   -.345E+02 -.483E+02 0.158E+02   0.379E+02 0.535E+02 -.174E+02   -.361E+01 -.547E+01 0.167E+01
   -.327E+02 -.488E+02 0.190E+02   0.360E+02 0.540E+02 -.210E+02   -.346E+01 -.547E+01 0.205E+01
   -.327E+02 -.488E+02 0.190E+02   0.360E+02 0.540E+02 -.210E+02   -.346E+01 -.547E+01 0.205E+01
   -.345E+02 -.483E+02 0.158E+02   0.379E+02 0.535E+02 -.174E+02   -.361E+01 -.547E+01 0.167E+01
   -.345E+02 0.483E+02 0.157E+02   0.379E+02 -.535E+02 -.173E+02   -.362E+01 0.547E+01 0.166E+01
   -.328E+02 0.487E+02 0.189E+02   0.360E+02 -.539E+02 -.209E+02   -.346E+01 0.546E+01 0.204E+01
   -.328E+02 0.487E+02 0.189E+02   0.360E+02 -.539E+02 -.209E+02   -.346E+01 0.546E+01 0.204E+01
   -.345E+02 0.483E+02 0.157E+02   0.379E+02 -.535E+02 -.173E+02   -.362E+01 0.547E+01 0.166E+01
   -.345E+02 0.483E+02 0.157E+02   0.379E+02 -.535E+02 -.173E+02   -.362E+01 0.547E+01 0.166E+01
   -.328E+02 0.487E+02 0.189E+02   0.360E+02 -.539E+02 -.209E+02   -.346E+01 0.546E+01 0.204E+01
   -.328E+02 0.487E+02 0.189E+02   0.360E+02 -.539E+02 -.209E+02   -.346E+01 0.546E+01 0.204E+01
   -.345E+02 0.483E+02 0.157E+02   0.379E+02 -.535E+02 -.173E+02   -.362E+01 0.547E+01 0.166E+01
   0.709E+01 -.829E-01 -.654E+02   -.750E+01 0.915E-01 0.720E+02   0.384E+00 -.905E-02 -.696E+01
   0.331E+00 -.640E-01 -.634E+02   0.421E-03 0.697E-01 0.699E+02   -.395E+00 -.591E-02 -.682E+01
   0.331E+00 -.640E-01 -.634E+02   0.421E-03 0.697E-01 0.699E+02   -.395E+00 -.591E-02 -.682E+01
   0.709E+01 -.829E-01 -.654E+02   -.750E+01 0.915E-01 0.720E+02   0.384E+00 -.905E-02 -.696E+01
   0.709E+01 -.829E-01 -.654E+02   -.750E+01 0.915E-01 0.720E+02   0.384E+00 -.905E-02 -.696E+01
   0.331E+00 -.640E-01 -.634E+02   0.421E-03 0.697E-01 0.699E+02   -.395E+00 -.591E-02 -.682E+01
   0.331E+00 -.640E-01 -.634E+02   0.421E-03 0.697E-01 0.699E+02   -.395E+00 -.591E-02 -.682E+01
   0.709E+01 -.829E-01 -.654E+02   -.750E+01 0.915E-01 0.720E+02   0.384E+00 -.905E-02 -.696E+01
   -.314E+02 -.430E+01 -.118E+02   0.301E+02 0.433E+01 0.114E+02   0.125E+01 -.304E-01 0.325E+00
   -.314E+02 0.443E+01 -.118E+02   0.300E+02 -.448E+01 0.114E+02   0.125E+01 0.415E-01 0.324E+00
   -.314E+02 0.443E+01 -.118E+02   0.300E+02 -.448E+01 0.114E+02   0.125E+01 0.415E-01 0.324E+00
   -.314E+02 -.430E+01 -.118E+02   0.301E+02 0.433E+01 0.114E+02   0.125E+01 -.304E-01 0.325E+00
   -.314E+02 -.430E+01 -.118E+02   0.301E+02 0.433E+01 0.114E+02   0.125E+01 -.304E-01 0.325E+00
   -.314E+02 0.443E+01 -.118E+02   0.300E+02 -.448E+01 0.114E+02   0.125E+01 0.415E-01 0.324E+00
   -.314E+02 0.443E+01 -.118E+02   0.300E+02 -.448E+01 0.114E+02   0.125E+01 0.415E-01 0.324E+00
   -.314E+02 -.430E+01 -.118E+02   0.301E+02 0.433E+01 0.114E+02   0.125E+01 -.304E-01 0.325E+00
   -.173E+02 -.224E+01 0.562E+01   0.175E+02 0.225E+01 -.556E+01   -.108E+00 -.445E-02 -.765E-01
   -.173E+02 0.232E+01 0.562E+01   0.175E+02 -.233E+01 -.556E+01   -.108E+00 0.559E-02 -.764E-01
   -.173E+02 0.232E+01 0.562E+01   0.175E+02 -.233E+01 -.556E+01   -.108E+00 0.559E-02 -.764E-01
   -.173E+02 -.224E+01 0.562E+01   0.175E+02 0.225E+01 -.556E+01   -.108E+00 -.445E-02 -.765E-01
   -.173E+02 -.224E+01 0.562E+01   0.175E+02 0.225E+01 -.556E+01   -.108E+00 -.445E-02 -.765E-01
   -.173E+02 0.232E+01 0.562E+01   0.175E+02 -.233E+01 -.556E+01   -.108E+00 0.559E-02 -.764E-01
   -.173E+02 0.232E+01 0.562E+01   0.175E+02 -.233E+01 -.556E+01   -.108E+00 0.559E-02 -.764E-01
   -.173E+02 -.224E+01 0.562E+01   0.175E+02 0.225E+01 -.556E+01   -.108E+00 -.445E-02 -.765E-01
   -.214E+02 -.509E-01 -.161E+02   0.214E+02 0.522E-01 0.166E+02   0.669E-01 -.107E-02 -.546E+00
   -.706E+01 -.574E-01 -.163E+02   0.690E+01 0.588E-01 0.169E+02   0.177E+00 -.109E-02 -.624E+00
   -.706E+01 -.574E-01 -.163E+02   0.690E+01 0.588E-01 0.169E+02   0.177E+00 -.109E-02 -.624E+00
   -.214E+02 -.509E-01 -.161E+02   0.214E+02 0.522E-01 0.166E+02   0.669E-01 -.107E-02 -.546E+00
   -.214E+02 -.509E-01 -.161E+02   0.214E+02 0.522E-01 0.166E+02   0.669E-01 -.107E-02 -.546E+00
   -.706E+01 -.574E-01 -.163E+02   0.690E+01 0.588E-01 0.169E+02   0.177E+00 -.109E-02 -.624E+00
   -.706E+01 -.574E-01 -.163E+02   0.690E+01 0.588E-01 0.169E+02   0.177E+00 -.109E-02 -.624E+00
   -.214E+02 -.509E-01 -.161E+02   0.214E+02 0.522E-01 0.166E+02   0.669E-01 -.107E-02 -.546E+00
   0.394E+01 0.255E+01 -.260E+01   -.339E+01 -.266E+01 0.218E+01   -.561E+00 0.102E+00 0.426E+00
   0.394E+01 -.253E+01 -.258E+01   -.339E+01 0.264E+01 0.217E+01   -.561E+00 -.103E+00 0.426E+00
   0.394E+01 -.253E+01 -.258E+01   -.339E+01 0.264E+01 0.217E+01   -.561E+00 -.103E+00 0.426E+00
   0.394E+01 0.255E+01 -.260E+01   -.339E+01 -.266E+01 0.218E+01   -.561E+00 0.102E+00 0.426E+00
   0.394E+01 0.255E+01 -.260E+01   -.339E+01 -.266E+01 0.218E+01   -.561E+00 0.102E+00 0.426E+00
   0.394E+01 -.253E+01 -.258E+01   -.339E+01 0.264E+01 0.217E+01   -.561E+00 -.103E+00 0.426E+00
   0.394E+01 -.253E+01 -.258E+01   -.339E+01 0.264E+01 0.217E+01   -.561E+00 -.103E+00 0.426E+00
   0.394E+01 0.255E+01 -.260E+01   -.339E+01 -.266E+01 0.218E+01   -.561E+00 0.102E+00 0.426E+00
 -----------------------------------------------------------------------------------------------
   -.594E+02 -.119E+00 -.260E+02   -.135E-12 -.107E-12 -.817E-13   0.556E+02 0.111E+00 0.244E+02
 
 
 POSITION                                       TOTAL-FORCE (eV/Angst)
 -----------------------------------------------------------------------------------
      2.55112      3.11382      2.87916        -0.227480     -0.000367     -0.138283
      8.75685      3.11442      3.08017        -0.241056     -0.000368     -0.112883
      2.46903      9.34223      3.01070        -0.241056     -0.000368     -0.112883
      8.84014      9.34355      2.94789        -0.227480     -0.000367     -0.138283
      2.62083      3.11386      9.25287        -0.227480     -0.000367     -0.138283
      8.82655      3.11446      9.45388        -0.241056     -0.000368     -0.112883
      2.53873      9.34227      9.38441        -0.241056     -0.000368     -0.112883
      8.90984      9.34359      9.32160        -0.227480     -0.000367     -0.138283
      3.88022      3.11517      3.53710         0.441559      0.000159      0.229038
     10.14540      3.11586      3.59843         0.474390      0.000101      0.191789
      3.85757      9.34367      3.52896         0.474390      0.000101      0.191789
     10.16923      9.34490      3.60583         0.441559      0.000159      0.229038
      3.94992      3.11522      9.91081         0.441559      0.000159      0.229038
     10.21510      3.11591      9.97214         0.474390      0.000101      0.191789
      3.92728      9.34372      9.90267         0.474390      0.000101      0.191789
     10.23894      9.34494      9.97954         0.441559      0.000159      0.229038
      2.69773      3.11257      1.78832        -0.048900      0.000548      0.441439
      8.78952      3.11351      1.98001         0.001396      0.000389      0.441988
      2.50170      9.34132      1.91054         0.001396      0.000389      0.441988
      8.98675      9.34230      1.85705        -0.048900      0.000548      0.441439
      2.76744      3.11262      8.16203        -0.048900      0.000548      0.441439
      8.85922      3.11355      8.35372         0.001396      0.000389      0.441988
      2.57140      9.34137      8.28425         0.001396      0.000389      0.441988
      9.05646      9.34234      8.23076        -0.048900      0.000548      0.441439
      2.00237      4.01668      3.18548         0.224709     -0.331518     -0.106676
      8.24023      4.01634      3.44012         0.215419     -0.330380     -0.126383
      1.95241     10.24415      3.37065         0.215419     -0.330380     -0.126383
      8.29139     10.24641      3.25421         0.224709     -0.331518     -0.106676
      2.07207      4.01673      9.55919         0.224709     -0.331518     -0.106676
      8.30993      4.01638      9.81383         0.215419     -0.330380     -0.126383
      2.02211     10.24419      9.74436         0.215419     -0.330380     -0.126383
      8.36109     10.24646      9.62792         0.224709     -0.331518     -0.106676
      2.00327      2.21114      3.18764         0.224122      0.331729     -0.107644
      8.24166      2.21229      3.44166         0.214678      0.330763     -0.127119
      1.95384      8.44010      3.37218         0.214678      0.330763     -0.127119
      8.29229      8.44086      3.25637         0.224122      0.331729     -0.107644
      2.07298      2.21118      9.56135         0.224122      0.331729     -0.107644
      8.31136      2.21233      9.81537         0.214678      0.330763     -0.127119
      2.02354      8.44014      9.74589         0.214678      0.330763     -0.127119
      8.36199      8.44091      9.63008         0.224122      0.331729     -0.107644
      4.43902      3.96201      3.27635        -0.344438     -0.504338      0.141794
     10.67694      3.96018      3.28149        -0.332910     -0.499879      0.176953
      4.38912     10.18800      3.21202        -0.332910     -0.499879      0.176953
     10.72803     10.19174      3.34508        -0.344438     -0.504338      0.141794
      4.50872      3.96206      9.65006        -0.344438     -0.504338      0.141794
     10.74665      3.96023      9.65520        -0.332910     -0.499879      0.176953
      4.45883     10.18804      9.58573        -0.332910     -0.499879      0.176953
     10.79774     10.19179      9.71879        -0.344438     -0.504338      0.141794
      4.43951      2.26794      3.27850        -0.344895      0.504913      0.140288
     10.67794      2.27155      3.28299        -0.333661      0.500252      0.175812
      4.39012      8.49936      3.21352        -0.333661      0.500252      0.175812
     10.72852      8.49767      3.34723        -0.344895      0.504913      0.140288
      4.50921      2.26799      9.65221        -0.344895      0.504913      0.140288
     10.74765      2.27160      9.65670        -0.333661      0.500252      0.175812
      4.45983      8.49941      9.58723        -0.333661      0.500252      0.175812
     10.79823      8.49771      9.72094        -0.344895      0.504913      0.140288
      3.81557      3.11652      4.57619        -0.001562     -0.000848     -0.628220
     10.19844      3.11677      4.64253        -0.082767     -0.000514     -0.641921
      3.91062      9.34458      4.57306        -0.082767     -0.000514     -0.641921
     10.10458      9.34624      4.64492        -0.001562     -0.000848     -0.628220
      3.88527      3.11656     10.94990        -0.001562     -0.000848     -0.628220
     10.26815      3.11681     11.01624        -0.082767     -0.000514     -0.641921
      3.98033      9.34462     10.94677        -0.082767     -0.000514     -0.641921
     10.17429      9.34629     11.01863        -0.001562     -0.000848     -0.628220
      6.01060      6.23639      6.29599         0.012046      0.002601      0.009769
     12.29895      6.22375      6.36511         0.012042     -0.002998      0.009764
      6.01113     12.45156      6.29564         0.012042     -0.002998      0.009764
     12.29843      0.00858      6.36547         0.012046      0.002601      0.009769
      6.08031      6.23643     12.66970         0.012046      0.002601      0.009769
     12.36865      6.22380     12.73882         0.012042     -0.002998      0.009764
      6.08083     12.45161     12.66935         0.012042     -0.002998      0.009764
     12.36813      0.00862     12.73918         0.012046      0.002601      0.009769
      5.75306      6.23317      3.09089         0.045496      0.002654     -0.015238
     12.04127      6.22689      3.16003         0.045473     -0.003090     -0.015240
      5.75345     12.45470      3.09056         0.045473     -0.003090     -0.015240
     12.04088      0.00536      3.16036         0.045496      0.002654     -0.015238
      5.82276      6.23321      9.46460         0.045496      0.002654     -0.015238
     12.11098      6.22693      9.53374         0.045473     -0.003090     -0.015240
      5.82316     12.45474      9.46427         0.045473     -0.003090     -0.015240
     12.11058      0.00540      9.53407         0.045496      0.002654     -0.015238
      5.78883      3.11498      0.18906         0.064058      0.000264     -0.003978
     11.81347      3.11595      0.30560         0.033507      0.000272      0.003016
      5.52565      9.34376      0.23613         0.033507      0.000272      0.003016
     12.07784      9.34471      0.25779         0.064058      0.000264     -0.003978
      5.85853      3.11502      6.56277         0.064058      0.000264     -0.003978
     11.88318      3.11599      6.67931         0.033507      0.000272      0.003016
      5.59536      9.34381      6.60984         0.033507      0.000272      0.003016
     12.14755      9.34475      6.63150         0.064058      0.000264     -0.003978
      2.78367      6.07294      5.90913        -0.025611     -0.009975      0.030981
      9.07205      6.38640      5.97821        -0.025615      0.009628      0.030954
      2.78304      0.15667      5.90948        -0.025615      0.009628      0.030954
      9.07269     12.30267      5.97785        -0.025611     -0.009975      0.030981
      2.85337      6.07299     12.28284        -0.025611     -0.009975      0.030981
      9.14176      6.38644     12.35192        -0.025615      0.009628      0.030954
      2.85274      0.15672     12.28319        -0.025615      0.009628      0.030954
      9.14239     12.30272     12.35156        -0.025611     -0.009975      0.030981
 -----------------------------------------------------------------------------------
    total drift:                                0.008854      0.000455     -0.000604


--------------------------------------------------------------------------------------------------------



  FREE ENERGIE OF THE ION-ELECTRON SYSTEM (eV)
  ---------------------------------------------------
  free  energy   TOTEN  =      -479.33498734 eV

  energy  without entropy=     -479.33498734  energy(sigma->0) =     -479.33498734
 


--------------------------------------------------------------------------------------------------------


    POTLOK:  cpu time    0.8040: real time    0.8050


--------------------------------------------------------------------------------------------------------


     LOOP+:  cpu time28876.9647: real time28905.7657
    4ORBIT:  cpu time    0.0000: real time    0.0000

 total amount of memory used by VASP on root node   125547. kBytes
========================================================================

   base      :      30000. kBytes
   nonl-proj :      43862. kBytes
   fftplans  :       6104. kBytes
   grid      :       6326. kBytes
   one-center:         62. kBytes
   HF        :        194. kBytes
   nonlr-proj:      28679. kBytes
   wavefun   :      10320. kBytes
 
  
  
 General timing and accounting informations for this job:
 ========================================================
  
                  Total CPU time used (sec):    28931.461
                            User time (sec):    28847.047
                          System time (sec):       84.413
                         Elapsed time (sec):    28962.981
  
                   Maximum memory used (kb):      257584.
                   Average memory used (kb):           0.
  
                          Minor page faults:     20724641
                          Major page faults:            0
                 Voluntary context switches:         8773
