 running on 1536 total cores
 distrk:  each k-point on 1536 cores,    1 groups
 distr:  one band on   24 cores,   64 groups
 using from now: INCAR     
 vasp.5.4.1 24Jun15 (build Nov 25 2015 16:01:35) complex                        
  
 POSCAR found type information on POSCAR  C  N  H  Pb I 
 POSCAR found :  5 types and      96 ions
 scaLAPACK will be used

 ----------------------------------------------------------------------------- 
|                                                                             |
|  ADVICE TO THIS USER RUNNING 'VASP/VAMP'   (HEAR YOUR MASTER'S VOICE ...):  |
|                                                                             |
|      You have a (more or less) 'large supercell' and for larger cells       |
|      it might be more efficient to use real space projection opertators     |
|      So try LREAL= Auto  in the INCAR   file.                               |
|      Mind: At the moment your POTCAR file does not contain real space       |
|       projectors, and has to be modified,  BUT if you                       |
|      want to do an extremely  accurate calculation you might also keep the  |
|      reciprocal projection scheme          (i.e. LREAL=.FALSE.)             |
|                                                                             |
 ----------------------------------------------------------------------------- 

 LDA part: xc-table for Pade appr. of Perdew
 POSCAR, INCAR and KPOINTS ok, starting setup
 WARNING: small aliasing (wrap around) errors must be expected
 FFT: planning ...
 WAVECAR not read
  WARNING: DENMP: can't reach specified precision
  Number of Electrons is NELECT =   399.999999999888     
 entering main loop
       N       E                     dE             d eps       ncg     rms          ort
DAV:   1     0.235190586636E+05    0.23519E+05   -0.13700E+06  3584   0.486E+03
DAV:   2     0.529564877564E+04   -0.18223E+05   -0.17232E+05  3584   0.147E+03
DAV:   3     0.883028203138E+03   -0.44126E+04   -0.42423E+04  3584   0.383E+02
DAV:   4     0.295606888833E+03   -0.58742E+03   -0.57398E+03  3584   0.133E+02
DAV:   5     0.266120000878E+03   -0.29487E+02   -0.29415E+02  3584   0.316E+01
 gam= 0.000 g(H,U,f)=  0.726E+02 0.552E+01 0.171E-87 ort(H,U,f) = 0.000E+00 0.000E+00 0.000E+00
SDA:   6    -0.462128663350E+03   -0.72825E+03   -0.29415E+02  3584   0.781E+02 0.000E+00
 gam= 0.000 trial= 0.400  step= 0.282 mean= 0.400
 gam= 0.274 g(H,U,f)=  0.192E+02 0.213E+01 0.000E+00 ort(H,U,f) =-0.298E+01 0.316E+01 0.000E+00
CGA:   7    -0.473041587400E+03   -0.10913E+02   -0.10996E+02  3584   0.214E+02 0.183E+00
 gam= 0.274 trial= 0.394  step= 0.403 mean= 0.394
 gam= 0.186 g(H,U,f)=  0.347E+01 0.500E+00 0.170-105 ort(H,U,f) =-0.105E+01 0.124E+01 0.347-105
CGA:   8    -0.477362255678E+03   -0.43207E+01   -0.43192E+01  3584   0.397E+01 0.187E+00
 gam= 0.186 trial= 0.395  step= 0.673 mean= 0.395
 gam= 0.326 g(H,U,f)=  0.112E+01 0.169E+00 0.494-206 ort(H,U,f) =-0.330E+00 0.389E+00 0.111-205
CGA:   9    -0.478717753844E+03   -0.13555E+01   -0.13464E+01  3584   0.129E+01 0.594E-01
 gam= 0.326 trial= 0.408  step= 0.650 mean= 0.408
 gam= 0.430 g(H,U,f)=  0.509E+00 0.466E-01 0.000E+00 ort(H,U,f) =-0.127E+00 0.140E+00 0.000E+00
CGA:  10    -0.479145537866E+03   -0.42778E+00   -0.42588E+00  3584   0.555E+00 0.136E-01
 gam= 0.430 trial= 0.421  step= 0.405 mean= 0.421
 gam= 0.344 g(H,U,f)=  0.174E+00 0.172E-01 0.210E-11 ort(H,U,f) =-0.562E-01 0.587E-01 0.755E-11
CGA:  11    -0.479259147635E+03   -0.11361E+00   -0.11363E+00  3584   0.191E+00 0.243E-02
 gam= 0.344 trial= 0.420  step= 0.579 mean= 0.420
 gam= 0.240 g(H,U,f)=  0.425E-01 0.330E-02 0.000E+00 ort(H,U,f) =-0.148E-01 0.149E-01 0.000E+00
CGA:  12    -0.479314743408E+03   -0.55596E-01   -0.55567E-01  3584   0.458E-01 0.161E-03
 gam= 0.240 trial= 0.428  step= 0.628 mean= 0.428
 gam= 0.289 g(H,U,f)=  0.124E-01 0.847E-03 0.000E+00 ort(H,U,f) =-0.314E-02 0.312E-02 0.000E+00
CGA:  13    -0.479329139932E+03   -0.14397E-01   -0.14398E-01  3584   0.132E-01-0.219E-04
 gam= 0.289 trial= 0.438  step= 0.622 mean= 0.438
 gam= 0.304 g(H,U,f)=  0.378E-02 0.243E-03 0.000E+00 ort(H,U,f) =-0.817E-03 0.823E-03 0.000E+00
CGA:  14    -0.479333251025E+03   -0.41111E-02   -0.41106E-02  3584   0.402E-02 0.647E-05
 gam= 0.304 trial= 0.447  step= 0.529 mean= 0.447
 gam= 0.485 g(H,U,f)=  0.189E-02 0.616E-04 0.000E+00 ort(H,U,f) =-0.329E-03 0.221E-03 0.000E+00
CGA:  15    -0.479334310685E+03   -0.10597E-02   -0.10641E-02  3584   0.195E-02-0.107E-03
 gam= 0.485 trial= 0.451  step= 0.389 mean= 0.451
 gam= 0.307 g(H,U,f)=  0.572E-03 0.262E-04 0.000E+00 ort(H,U,f) =-0.513E-04 0.992E-04 0.000E+00
CGA:  16    -0.479334678036E+03   -0.36735E-03   -0.36883E-03  3584   0.598E-03 0.479E-04
 gam= 0.307 trial= 0.448  step= 0.671 mean= 0.448
 gam= 0.348 g(H,U,f)=  0.204E-03 0.452E-05 0.000E+00 ort(H,U,f) =-0.467E-04 0.175E-04 0.000E+00
CGA:  17    -0.479334880195E+03   -0.20216E-03   -0.20541E-03  3584   0.208E-03-0.291E-04
 gam= 0.348 trial= 0.459  step= 0.716 mean= 0.459
 gam= 0.418 g(H,U,f)=  0.856E-04 0.137E-05 0.000E+00 ort(H,U,f) =-0.114E-04 0.102E-05 0.000E+00
CGA:  18    -0.479334949806E+03   -0.69611E-04   -0.70952E-04  3584   0.870E-04-0.104E-04
 gam= 0.418 trial= 0.472  step= 0.436 mean= 0.472
 gam= 0.388 g(H,U,f)=  0.330E-04 0.743E-06 0.327-290 ort(H,U,f) = 0.102E-04 0.540E-06 0.372-290
CGA:  19    -0.479334967630E+03   -0.17824E-04   -0.18017E-04  3584   0.337E-04 0.107E-04
 gam= 0.388 trial= 0.470  step= 0.603 mean= 0.470
 gam= 0.590 g(H,U,f)=  0.194E-04 0.493E-06 0.770-174 ort(H,U,f) =-0.537E-05 0.326E-06 0.162-173
CGA:  20    -0.479334978715E+03   -0.11084E-04   -0.11419E-04  3584   0.199E-04-0.505E-05
 gam= 0.590 trial= 0.477  step= 0.505 mean= 0.477
 gam= 0.374 g(H,U,f)=  0.719E-05 0.259E-06 0.437-100 ort(H,U,f) = 0.153E-05 0.319E-06 0.188E-99
CGA:  21    -0.479334983016E+03   -0.43012E-05   -0.42751E-05  3584   0.745E-05 0.185E-05
 gam= 0.374 trial= 0.478  step= 0.463 mean= 0.478
 gam= 0.444 g(H,U,f)=  0.317E-05 0.132E-06 0.730E-64 ort(H,U,f) = 0.116E-05 0.230E-06 0.387E-63
CGA:  22    -0.479334984891E+03   -0.18752E-05   -0.18856E-05  3584   0.331E-05 0.139E-05
 gam= 0.444 trial= 0.477  step= 0.955 mean= 0.477
 gam= 0.000 g(H,U,f)=  0.766E-05 0.322E-07 0.231E-23 ort(H,U,f) =-0.305E-05 0.819E-07-0.865E-22
CGA:  23    -0.479334986055E+03   -0.11643E-05   -0.18721E-05  3584   0.769E-05-0.296E-05
 gam= 0.000 trial= 0.501  step= 0.206 mean= 0.501
 gam= 0.166 g(H,U,f)=  0.126E-05 0.199E-07 0.272E-20 ort(H,U,f) = 0.214E-05 0.223E-07 0.119E-20
CGA:  24    -0.479334986530E+03   -0.47492E-06   -0.79424E-06  3584   0.128E-05 0.217E-05
 gam= 0.166 trial= 0.487  step= 0.277 mean= 0.487
 gam= 0.396 g(H,U,f)=  0.491E-06 0.156E-07 0.000E+00 ort(H,U,f) = 0.437E-06 0.205E-07 0.000E+00
CGA:  25    -0.479334986709E+03   -0.17847E-06   -0.22661E-06  3584   0.507E-06 0.458E-06
 gam= 0.396 trial= 0.476  step= 3.005 mean= 0.476
 gam= 0.396 trial= 3.095  step= 3.095 mean= 0.751
 gam= 0.000 g(H,U,f)=  0.258E-04 0.511E-07 0.000E+00 ort(H,U,f) =-0.416E-05-0.173E-07 0.000E+00
CGA:  26    -0.479334982293E+03    0.44159E-05   -0.23816E-05  3584   0.258E-04-0.418E-05
 gam= 0.000 trial= 0.868  step= 0.314 mean= 0.868
 gam= 0.187 g(H,U,f)=  0.481E-05 0.164E-07 0.000E+00 ort(H,U,f) = 0.300E-05-0.361E-08 0.000E+00
CGA:  27    -0.479334985524E+03   -0.32313E-05   -0.40612E-05  3584   0.483E-05 0.300E-05
 gam= 0.187 trial= 0.841  step= 0.553 mean= 0.841
 gam= 0.219 g(H,U,f)=  0.105E-05 0.664E-08 0.000E+00 ort(H,U,f) =-0.151E-05 0.820E-08 0.000E+00
CGA:  28    -0.479334987229E+03   -0.17050E-05   -0.14880E-05  3584   0.106E-05-0.151E-05
 gam= 0.219 trial= 0.826  step= 0.314 mean= 0.826
 gam= 0.328 g(H,U,f)=  0.342E-06 0.429E-08 0.000E+00 ort(H,U,f) = 0.270E-06 0.674E-08 0.000E+00
CGA:  29    -0.479334987272E+03   -0.43234E-07   -0.11420E-06  3584   0.347E-06 0.277E-06
 gam= 0.328 trial= 0.801  step= 0.246 mean= 0.801
 gam= 0.324 g(H,U,f)=  0.109E-06 0.285E-08 0.000E+00 ort(H,U,f) = 0.159E-06 0.525E-08 0.000E+00
CGA:  30    -0.479334987280E+03   -0.80181E-08   -0.53771E-07  3584   0.112E-06 0.164E-06
 gam= 0.324 trial= 0.773  step= 0.411 mean= 0.773
 gam= 0.392 g(H,U,f)=  0.427E-07 0.129E-08 0.000E+00 ort(H,U,f) =-0.853E-08 0.297E-08 0.000E+00
CGA:  31    -0.479334987316E+03   -0.35019E-07   -0.34019E-07  3584   0.440E-07-0.556E-08
 gam= 0.392 trial= 0.755  step= 0.520 mean= 0.755
 gam= 0.750 g(H,U,f)=  0.325E-07 0.511E-09 0.000E+00 ort(H,U,f) = 0.187E-08 0.150E-08 0.000E+00
CGA:  32    -0.479334987326E+03   -0.10416E-07   -0.10855E-07  3584   0.330E-07 0.337E-08
 gam= 0.750 trial= 0.743  step= 0.204 mean= 0.743
 gam= 0.000 g(H,U,f)=  0.215E-07 0.292E-09 0.000E+00 ort(H,U,f) = 0.208E-07 0.124E-08 0.000E+00
CGA:  33    -0.479334987324E+03    0.23429E-08   -0.36135E-08  3584   0.218E-07 0.220E-07
 gam= 0.000 trial= 0.716  step= 1.547 mean= 0.716
 gam= 0.000 g(H,U,f)=  0.737E-07 0.830E-10 0.000E+00 ort(H,U,f) =-0.255E-07 0.110E-09 0.000E+00
CGA:  34    -0.479334987330E+03   -0.63774E-08   -0.16860E-07  3584   0.737E-07-0.254E-07
 gam= 0.000 trial= 0.758  step= 0.841 mean= 0.758
 gam= 0.000 g(H,U,f)=  0.133E-06 0.547E-10 0.000E+00 ort(H,U,f) =-0.716E-07 0.321E-11 0.000E+00
CGA:  35    -0.479334987358E+03   -0.27925E-07   -0.31010E-07  3584   0.133E-06-0.716E-07
 gam= 0.000 trial= 0.762  step= 0.134 mean= 0.762
 gam= 0.278 g(H,U,f)=  0.371E-07 0.237E-10 0.000E+00 ort(H,U,f) = 0.656E-07 0.300E-10 0.000E+00
CGA:  36    -0.479334987346E+03    0.11722E-07   -0.89402E-08  3584   0.371E-07 0.656E-07
 gam= 0.278 trial= 0.730  step= 0.105 mean= 0.730
 gam= 0.000 g(H,U,f)=  0.118E-07 0.194E-10 0.000E+00 ort(H,U,f) = 0.256E-07 0.252E-10 0.000E+00
CGA:  37    -0.479334987341E+03    0.50204E-08   -0.29107E-08  3584   0.118E-07 0.256E-07
 gam= 0.000 trial= 0.699  step=-0.248 mean= 0.699
 BOPT < 0, no correction made
   1 F= -.47933499E+03 E0= -.47933499E+03  d E =0.000000E+00
Application 22292926 resources: utime ~44323250s, stime ~132509s, Rss ~257736, inblocks ~67812809, outblocks ~22275644
