       N       E                     dE             d eps       ncg     rms          rms(c)
DAV:   1     0.962457607516E+03    0.96246E+03   -0.44490E+04 15156   0.198E+03
DAV:   2     0.100520666943E+03   -0.86194E+03   -0.83622E+03 12824   0.595E+02
DAV:   3    -0.273856068526E+02   -0.12791E+03   -0.12441E+03 14120   0.207E+02
DAV:   4    -0.355334442626E+02   -0.81478E+01   -0.80601E+01 15156   0.506E+01
DAV:   5    -0.357673234837E+02   -0.23388E+00   -0.23338E+00 15876   0.949E+00
DAV:   6    -0.357763909629E+02   -0.90675E-02   -0.90640E-02 16304   0.168E+00
DAV:   7    -0.357768356298E+02   -0.44467E-03   -0.44463E-03 17832   0.335E-01
DAV:   8    -0.357768498731E+02   -0.14243E-04   -0.14243E-04 16412   0.500E-02
DAV:   9    -0.357768505382E+02   -0.66511E-06   -0.66518E-06 11416   0.915E-03
   1 F= -.35776851E+02 E0= -.35776851E+02  d E =-.336134E-19
