 vasp.5.4.1 24Jun15 (build Nov 25 2015 16:01:35) complex                        
  
 executed on         CrayXC-Intel date 2016.05.26  09:45:07
 running on   96 total cores
 distrk:  each k-point on   24 cores,    4 groups
 distr:  one band on NCORES_PER_BAND=   6 cores,    4 groups


--------------------------------------------------------------------------------------------------------


 INCAR:
 POTCAR:    PAW_PBE Cu_pv 06Sep2000               
 POTCAR:    PAW_PBE Zn 06Sep2000                  
 POTCAR:    PAW_PBE Sn_d 06Sep2000                
 POTCAR:    PAW_PBE S 06Sep2000                   

 ----------------------------------------------------------------------------- 
|                                                                             |
|           W    W    AA    RRRRR   N    N  II  N    N   GGGG   !!!           |
|           W    W   A  A   R    R  NN   N  II  NN   N  G    G  !!!           |
|           W    W  A    A  R    R  N N  N  II  N N  N  G       !!!           |
|           W WW W  AAAAAA  RRRRR   N  N N  II  N  N N  G  GGG   !            |
|           WW  WW  A    A  R   R   N   NN  II  N   NN  G    G                |
|           W    W  A    A  R    R  N    N  II  N    N   GGGG   !!!           |
|                                                                             |
|      You have enabled k-point parallelism (KPAR>1).                         |
|      This developmental code was originally  written by Paul Kent at ORNL,  |
|      and carefully double checked in Vienna.                                |
|      GW as well as linear response parallelism added by Martijn Marsman     |
|      and Georg Kresse.                                                      |
|      Carefully verify results versus KPAR=1.                                |
|      Report problems to Paul Kent and Vienna.                               |
|                                                                             |
 ----------------------------------------------------------------------------- 

 POTCAR:    PAW_PBE Cu_pv 06Sep2000               
   VRHFIN =Cu: d10 p1                                                           
   LEXCH  = PE                                                                  
   EATOM  =  4120.1201 eV,  302.8203 Ry                                         
                                                                                
   TITEL  = PAW_PBE Cu_pv 06Sep2000                                             
   LULTRA =        F    use ultrasoft PP ?                                      
   IUNSCR =        1    unscreen: 0-lin 1-nonlin 2-no                           
   RPACOR =    1.500    partial core radius                                     
   POMASS =   63.546; ZVAL   =   17.000    mass and valenz                      
   RCORE  =    2.000    outmost cutoff radius                                   
   RWIGS  =    2.000; RWIGS  =    1.058    wigner-seitz radius (au A)           
   ENMAX  =  368.648; ENMIN  =  276.486 eV                                      
   RCLOC  =    1.304    cutoff for local pot                                    
   LCOR   =        T    correct aug charges                                     
   LPAW   =        T    paw PP                                                  
   EAUG   =  758.233                                                            
   DEXC   =    0.000                                                            
   RMAX   =    2.046    core radius for proj-oper                               
   RAUG   =    1.300    factor for augmentation sphere                          
   RDEP   =    2.025    radius for radial grids                                 
   RDEPT  =    1.558    core radius for aug-charge                              
                                                                                
   Atomic configuration                                                         
    8 entries                                                                   
     n  l   j            E        occ.                                          
     1  0  0.50     -8850.2467   2.0000                                         
     2  0  0.50     -1062.3498   2.0000                                         
     2  1  1.50      -916.8226   6.0000                                         
     3  0  0.50      -114.6929   2.0000                                         
     3  1  1.50       -72.1325   6.0000                                         
     3  2  2.50        -5.0394  10.0000                                         
     4  0  0.50        -4.6097   1.0000                                         
     4  3  2.50        -1.3606   0.0000                                         
   Description                                                                  
     l       E           TYP  RCUT    TYP  RCUT                                 
     1    -72.1324777     23  1.700                                             
     1     -1.3605826     23  1.700                                             
     2     -5.0393776     23  2.000                                             
     2     -6.3999602     23  2.000                                             
     0     -4.6097062     23  1.800                                             
     0     14.1620818     23  1.800                                             
  local pseudopotential read in
  partial core-charges read in
  partial kinetic energy density read in
  atomic valenz-charges read in
  non local Contribution for L=           1  read in
    real space projection operators read in
  non local Contribution for L=           1  read in
    real space projection operators read in
  non local Contribution for L=           2  read in
    real space projection operators read in
  non local Contribution for L=           2  read in
    real space projection operators read in
  non local Contribution for L=           0  read in
    real space projection operators read in
  non local Contribution for L=           0  read in
    real space projection operators read in
    PAW grid and wavefunctions read in
 
   number of l-projection  operators is LMAX  =           6
   number of lm-projection operators is LMMAX =          18
 
 POTCAR:    PAW_PBE Zn 06Sep2000                  
   VRHFIN =Zn: d10 p2                                                           
   LEXCH  = PE                                                                  
   EATOM  =  1748.8345 eV,  128.5357 Ry                                         
                                                                                
   TITEL  = PAW_PBE Zn 06Sep2000                                                
   LULTRA =        F    use ultrasoft PP ?                                      
   IUNSCR =        1    unscreen: 0-lin 1-nonlin 2-no                           
   RPACOR =    2.000    partial core radius                                     
   POMASS =   65.390; ZVAL   =   12.000    mass and valenz                      
   RCORE  =    2.300    outmost cutoff radius                                   
   RWIGS  =    2.400; RWIGS  =    1.270    wigner-seitz radius (au A)           
   ENMAX  =  276.723; ENMIN  =  207.542 eV                                      
   RCLOC  =    1.828    cutoff for local pot                                    
   LCOR   =        T    correct aug charges                                     
   LPAW   =        T    paw PP                                                  
   EAUG   =  575.892                                                            
   DEXC   =    0.000                                                            
   RMAX   =    2.347    core radius for proj-oper                               
   RAUG   =    1.300    factor for augmentation sphere                          
   RDEP   =    2.324    radius for radial grids                                 
   RDEPT  =    1.788    core radius for aug-charge                              
                                                                                
   Atomic configuration                                                         
    9 entries                                                                   
     n  l   j            E        occ.                                          
     1  0  0.50     -9524.6913   2.0000                                         
     2  0  0.50     -1158.1882   2.0000                                         
     2  1  1.50     -1003.8506   6.0000                                         
     3  0  0.50      -129.2194   2.0000                                         
     3  1  1.50       -83.3890   6.0000                                         
     3  2  2.50       -10.1410  10.0000                                         
     4  0  0.50        -5.9785   2.0000                                         
     4  1  0.50        -4.0817   0.0000                                         
     4  3  2.50        -1.3606   0.0000                                         
   Description                                                                  
     l       E           TYP  RCUT    TYP  RCUT                                 
     2    -10.1410010     23  2.300                                             
     2    -11.5015836     23  2.300                                             
     0     -5.9785163     23  2.300                                             
     0      1.1858015     23  2.300                                             
     1     -2.7211652     23  2.300                                             
     1     13.2444212     23  2.300                                             
  local pseudopotential read in
  partial core-charges read in
  partial kinetic energy density read in
  atomic valenz-charges read in
  non local Contribution for L=           2  read in
    real space projection operators read in
  non local Contribution for L=           2  read in
    real space projection operators read in
  non local Contribution for L=           0  read in
    real space projection operators read in
  non local Contribution for L=           0  read in
    real space projection operators read in
  non local Contribution for L=           1  read in
    real space projection operators read in
  non local Contribution for L=           1  read in
    real space projection operators read in
    PAW grid and wavefunctions read in
 
   number of l-projection  operators is LMAX  =           6
   number of lm-projection operators is LMMAX =          18
 
 POTCAR:    PAW_PBE Sn_d 06Sep2000                
   VRHFIN =Sn: s2p2                                                             
   LEXCH  = PE                                                                  
   EATOM  =  1893.1092 eV,  139.1396 Ry                                         
                                                                                
   TITEL  = PAW_PBE Sn_d 06Sep2000                                              
   LULTRA =        F    use ultrasoft PP ?                                      
   IUNSCR =        1    unscreen: 0-lin 1-nonlin 2-no                           
   RPACOR =    2.300    partial core radius                                     
   POMASS =  118.710; ZVAL   =   14.000    mass and valenz                      
   RCORE  =    2.500    outmost cutoff radius                                   
   RWIGS  =    2.960; RWIGS  =    1.566    wigner-seitz radius (au A)           
   ENMAX  =  241.083; ENMIN  =  180.812 eV                                      
   ICORE  =        3    local potential                                         
   LCOR   =        T    correct aug charges                                     
   LPAW   =        T    paw PP                                                  
   EAUG   =  439.825                                                            
   DEXC   =    0.000                                                            
   RMAX   =    2.560    core radius for proj-oper                               
   RAUG   =    1.300    factor for augmentation sphere                          
   RDEP   =    2.659    radius for radial grids                                 
   RDEPT  =    2.046    core radius for aug-charge                              
                                                                                
   Atomic configuration                                                         
   12 entries                                                                   
     n  l   j            E        occ.                                          
     1  0  0.50    -29007.2859   2.0000                                         
     2  0  0.50     -4378.8056   2.0000                                         
     2  1  1.50     -3930.4293   6.0000                                         
     3  0  0.50      -845.0264   2.0000                                         
     3  1  1.50      -698.5725   6.0000                                         
     3  2  2.50      -473.2839  10.0000                                         
     4  0  0.50      -133.9036   2.0000                                         
     4  1  1.50       -89.6752   6.0000                                         
     4  2  2.50       -25.8375  10.0000                                         
     5  0  0.50       -10.5484   2.0000                                         
     5  1  0.50        -3.6940   2.0000                                         
     4  3  2.50        -2.7416   0.0000                                         
   Description                                                                  
     l       E           TYP  RCUT    TYP  RCUT                                 
     2    -25.8374624     23  2.500                                             
     2     -5.4423304     23  2.500                                             
     0    -10.5483727     23  2.500                                             
     0     13.6058260     23  2.500                                             
     1     -3.6939829     23  2.500                                             
     1      1.9821976     23  2.500                                             
     3     -1.3605826      7  2.500                                             
  local pseudopotential read in
  partial core-charges read in
  partial kinetic energy density read in
  atomic valenz-charges read in
  non local Contribution for L=           2  read in
    real space projection operators read in
  non local Contribution for L=           2  read in
    real space projection operators read in
  non local Contribution for L=           0  read in
    real space projection operators read in
  non local Contribution for L=           0  read in
    real space projection operators read in
  non local Contribution for L=           1  read in
    real space projection operators read in
  non local Contribution for L=           1  read in
    real space projection operators read in
    PAW grid and wavefunctions read in
 
   number of l-projection  operators is LMAX  =           6
   number of lm-projection operators is LMMAX =          18
 
 POTCAR:    PAW_PBE S 06Sep2000                   
   VRHFIN =S : s2p4                                                             
   LEXCH  = PE                                                                  
   EATOM  =   276.8230 eV,   20.3459 Ry                                         
                                                                                
   TITEL  = PAW_PBE S 06Sep2000                                                 
   LULTRA =        F    use ultrasoft PP ?                                      
   IUNSCR =        1    unscreen: 0-lin 1-nonlin 2-no                           
   RPACOR =    1.500    partial core radius                                     
   POMASS =   32.066; ZVAL   =    6.000    mass and valenz                      
   RCORE  =    1.900    outmost cutoff radius                                   
   RWIGS  =    2.200; RWIGS  =    1.164    wigner-seitz radius (au A)           
   ENMAX  =  258.689; ENMIN  =  194.016 eV                                      
   ICORE  =        2    local potential                                         
   LCOR   =        T    correct aug charges                                     
   LPAW   =        T    paw PP                                                  
   EAUG   =  335.092                                                            
   DEXC   =    0.000                                                            
   RMAX   =    1.942    core radius for proj-oper                               
   RAUG   =    1.300    factor for augmentation sphere                          
   RDEP   =    1.954    radius for radial grids                                 
   RDEPT  =    1.744    core radius for aug-charge                              
                                                                                
   Atomic configuration                                                         
    6 entries                                                                   
     n  l   j            E        occ.                                          
     1  0  0.50     -2405.8406   2.0000                                         
     2  0  0.50      -211.7007   2.0000                                         
     2  1  1.50      -156.4958   6.0000                                         
     3  0  0.50       -17.2562   2.0000                                         
     3  1  0.50        -7.0085   4.0000                                         
     3  2  1.50        -6.8029   0.0000                                         
   Description                                                                  
     l       E           TYP  RCUT    TYP  RCUT                                 
     0    -17.2561641     23  1.900                                             
     0    -15.8743224     23  1.900                                             
     1     -7.0085400     23  1.900                                             
     1     -2.7779785     23  1.900                                             
     2     -6.8029130     23  1.900                                             
  local pseudopotential read in
  partial core-charges read in
  partial kinetic energy density read in
  atomic valenz-charges read in
  non local Contribution for L=           0  read in
    real space projection operators read in
  non local Contribution for L=           0  read in
    real space projection operators read in
  non local Contribution for L=           1  read in
    real space projection operators read in
  non local Contribution for L=           1  read in
    real space projection operators read in
    PAW grid and wavefunctions read in
 
   number of l-projection  operators is LMAX  =           4
   number of lm-projection operators is LMMAX =           8
 

 ----------------------------------------------------------------------------- 
|                                                                             |
|  ADVICE TO THIS USER RUNNING 'VASP/VAMP'   (HEAR YOUR MASTER'S VOICE ...):  |
|                                                                             |
|      You enforced a specific xc-type in the INCAR file,                     |
|      a different type was found on the POTCAR file                          |
|          I HOPE YOU KNOW, WHAT YOU ARE  DOING                               |
|                                                                             |
 ----------------------------------------------------------------------------- 

  PAW_PBE Cu_pv 06Sep2000               :
 energy of atom  1       EATOM=-4120.1201
 kinetic energy error for atom=    0.0655 (will be added to EATOM!!)
  PAW_PBE Zn 06Sep2000                  :
 energy of atom  2       EATOM=-1748.8345
 kinetic energy error for atom=    0.0029 (will be added to EATOM!!)
  PAW_PBE Sn_d 06Sep2000                :
 energy of atom  3       EATOM=-1893.1092
 kinetic energy error for atom=    0.0032 (will be added to EATOM!!)
  PAW_PBE S 06Sep2000                   :
 energy of atom  4       EATOM= -276.8230
 kinetic energy error for atom=    0.0020 (will be added to EATOM!!)
 
 
 POSCAR: Cu2ZnSnS4 (LaFond 2014, 293 K)          
  positions in direct lattice
  velocities in cartesian coordinates
 exchange correlation table for  LEXCH =       14
   RHO(1)=    0.500       N(1)  =     2000
   RHO(2)=  100.500       N(2)  =     4000
 


--------------------------------------------------------------------------------------------------------


 ion  position               nearest neighbor table
   1  0.000  0.000  0.000-   5 2.32   6 2.32   7 2.32   8 2.32
   2  0.750  0.250  0.500-   8 2.32   6 2.32   7 2.32   5 2.32
   3  0.500  0.500  0.000-   8 2.35   6 2.35   7 2.35   5 2.35
   4  0.250  0.750  0.500-   8 2.42   6 2.42   7 2.42   5 2.42
   5  0.118  0.134  0.244-   1 2.32   2 2.32   3 2.35   4 2.42
   6  0.639  0.623  0.244-   1 2.32   2 2.32   3 2.35   4 2.42
   7  0.866  0.361  0.756-   1 2.32   2 2.32   3 2.35   4 2.42
   8  0.377  0.882  0.756-   1 2.32   2 2.32   3 2.35   4 2.42
 
  LATTYP: Found a body centered tetragonal cell.
 ALAT       =     5.4353000000
 C/A-ratio  =     1.9955400000
  
  Lattice vectors:
  
 A1 = (   2.7176500000,  -2.7176500000,   5.4231792810)
 A2 = (  -2.7176500000,   2.7176500000,   5.4231792810)
 A3 = (  -2.7176500000,  -2.7176500000,  -5.4231792810)


Analysis of symmetry for initial positions (statically):
=====================================================================
 Subroutine PRICEL returns:
 Original cell was already a primitive cell.
 

 Routine SETGRP: Setting up the symmetry group for a 
 body centered tetragonal supercell.


 Subroutine GETGRP returns: Found  4 space group operations
 (whereof  4 operations were pure point group operations)
 out of a pool of 16 trial point group operations.


The static configuration has the point symmetry S_4 .


Analysis of symmetry for dynamics (positions and initial velocities):
=====================================================================
 Subroutine PRICEL returns:
 Original cell was already a primitive cell.
 

 Routine SETGRP: Setting up the symmetry group for a 
 body centered tetragonal supercell.


 Subroutine GETGRP returns: Found  4 space group operations
 (whereof  4 operations were pure point group operations)
 out of a pool of 16 trial point group operations.


The dynamic configuration has the point symmetry S_4 .


 Subroutine INISYM returns: Found  4 space group operations
 (whereof  4 operations are pure point group operations),
 and found     1 'primitive' translations

 
 
 KPOINTS: Automatically generated mesh SCF: 51 to 
  k-points in reciprocal lattice
Space group operators:
 irot       det(A)        alpha          n_x          n_y          n_z        tau_x        tau_y        tau_z
    1     1.000000     0.000000     1.000000     0.000000     0.000000     0.000000     0.000000     0.000000
    2    -1.000000    90.000000     0.000000     0.000000    -1.000000     0.000000     0.000000     0.000000
    3     1.000000   179.999999     0.000000     0.000000     1.000000     0.000000     0.000000     0.000000
    4    -1.000000    90.000000     0.000000     0.000000     1.000000     0.000000     0.000000     0.000000


--------------------------------------------------------------------------------------------------------




 Dimension of arrays:
   k-points           NKPTS =    123   k-points in BZ     NKDIM =    123   number of bands    NBANDS=     52
   number of dos      NEDOS =    301   number of ions     NIONS =      8
   non local maximal  LDIM  =      6   non local SUM 2l+1 LMDIM =     18
   total plane-waves  NPLWV =  76800
   max r-space proj   IRMAX =      1   max aug-charges    IRDMAX=  21604
   dimension x,y,z NGX =    40 NGY =   40 NGZ =   48
   dimension x,y,z NGXF=    80 NGYF=   80 NGZF=   96
   support grid    NGXF=    80 NGYF=   80 NGZF=   96
   ions per type =               2   1   1   4
 NGX,Y,Z   is equivalent  to a cutoff of  12.23, 12.23, 12.01 a.u.
 NGXF,Y,Z  is equivalent  to a cutoff of  24.47, 24.47, 24.01 a.u.


 I would recommend the setting:
   dimension x,y,z NGX =    40 NGY =   40 NGZ =   48
 SYSTEM =  Name                                    
 POSCAR =  Cu2ZnSnS4 (LaFond 2014, 293 K)          

 Startparameter for this run:
   NWRITE =      2    write-flag & timer
   PREC   = accura    normal or accurate (medium, high low for compatibility)
   ISTART =      0    job   : 0-new  1-cont  2-samecut
   ICHARG =     11    charge: 1-file 2-atom 10-const
   ISPIN  =      1    spin polarized calculation?
   LNONCOLLINEAR =      F non collinear calculations
   LSORBIT =      F    spin-orbit coupling
   INIWAV =      1    electr: 0-lowe 1-rand  2-diag
   LASPH  =      F    aspherical Exc in radial PAW
   METAGGA=      F    non-selfconsistent MetaGGA calc.

 Electronic Relaxation 1
   ENCUT  =  500.0 eV  36.75 Ry    6.06 a.u.   9.91  9.91 12.12*2*pi/ulx,y,z
   ENINI  =  500.0     initial cutoff
   ENAUG  =  758.2 eV  augmentation charge cutoff
   NELM   =     60;   NELMIN=  2; NELMDL=  0     # of ELM steps 
   EDIFF  = 0.1E-05   stopping-criterion for ELM
   LREAL  =      F    real-space projection
   NLSPLINE    = F    spline interpolate recip. space projectors
   LCOMPAT=      F    compatible to vasp.4.4
   GGA_COMPAT  = T    GGA compatible to vasp.4.4-vasp.4.6
   LMAXPAW     = -100 max onsite density
   LMAXMIX     =    2 max onsite mixed and CHGCAR
   VOSKOWN=      0    Vosko Wilk Nusair interpolation
   ROPT   =    0.00000   0.00000   0.00000   0.00000
 Ionic relaxation
   EDIFFG = -.5E-02   stopping-criterion for IOM
   NSW    =      0    number of steps for IOM
   NBLOCK =      1;   KBLOCK =      1    inner block; outer block 
   IBRION =     -1    ionic relax: 0-MD 1-quasi-New 2-CG
   NFREE  =      1    steps in history (QN), initial steepest desc. (CG)
   ISIF   =      3    stress and relaxation
   IWAVPR =     10    prediction:  0-non 1-charg 2-wave 3-comb
   ISYM   =      2    0-nonsym 1-usesym 2-fastsym
   LCORR  =      T    Harris-Foulkes like correction to forces

   POTIM  = 0.5000    time-step for ionic-motion
   TEIN   =    0.0    initial temperature
   TEBEG  =    0.0;   TEEND  =   0.0 temperature during run
   SMASS  =  -3.00    Nose mass-parameter (am)
   estimated Nose-frequenzy (Omega)   =  0.10E-29 period in steps =****** mass=  -0.675E-27a.u.
   SCALEE = 1.0000    scale energy and forces
   NPACO  =    256;   APACO  = 16.0  distance and # of slots for P.C.
   PSTRESS=    0.0 pullay stress

  Mass of Ions in am
   POMASS =  63.55 65.39118.71 32.07
  Ionic Valenz
   ZVAL   =  17.00 12.00 14.00  6.00
  Atomic Wigner-Seitz radii
   RWIGS  =  -1.00 -1.00 -1.00 -1.00
  virtual crystal weights 
   VCA    =   1.00  1.00  1.00  1.00
   NELECT =      84.0000    total number of electrons
   NUPDOWN=      -1.0000    fix difference up-down

 DOS related values:
   EMIN   =  10.00;   EMAX   =-10.00  energy-range for DOS
   EFERMI =   0.00
   ISMEAR =     0;   SIGMA  =   0.01  broadening in eV -4-tet -1-fermi 0-gaus

 Electronic relaxation 2 (details)
   IALGO  =     38    algorithm
   LDIAG  =      T    sub-space diagonalisation (order eigenvalues)
   LSUBROT=      F    optimize rotation matrix (better conditioning)
   TURBO    =      0    0=normal 1=particle mesh
   IRESTART =      0    0=no restart 2=restart with 2 vectors
   NREBOOT  =      0    no. of reboots
   NMIN     =      0    reboot dimension
   EREF     =   0.00    reference energy to select bands
   IMIX   =      4    mixing-type and parameters
     AMIX     =   0.40;   BMIX     =  1.00
     AMIX_MAG =   1.60;   BMIX_MAG =  1.00
     AMIN     =   0.01
     WC   =   100.;   INIMIX=   1;  MIXPRE=   1;  MAXMIX= -45

 Intra band minimization:
   WEIMIN = 0.0000     energy-eigenvalue tresh-hold
   EBREAK =  0.48E-08  absolut break condition
   DEPER  =   0.30     relativ break condition  

   TIME   =   0.40     timestep for ELM

  volume/ion in A,a.u.               =      20.03       135.15
  Fermi-wavevector in a.u.,A,eV,Ry     =   1.320082  2.494593 23.709739  1.742617
  Thomas-Fermi vector in A             =   2.449934
 
 Write flags
   LWAVE  =      T    write WAVECAR
   LCHARG =      T    write CHGCAR
   LVTOT  =      F    write LOCPOT, total local potential
   LVHAR  =      F    write LOCPOT, Hartree potential only
   LELF   =      F    write electronic localiz. function (ELF)
   LORBIT =     10    0 simple, 1 ext, 2 COOP (PROOUT)


 Dipole corrections
   LMONO  =      F    monopole corrections only (constant potential shift)
   LDIPOL =      F    correct potential (dipole corrections)
   IDIPOL =      0    1-x, 2-y, 3-z, 4-all directions 
   EPSILON=  1.0000000 bulk dielectric constant

 Core level calculations are selected ICORELEVEL =  1
 Exchange correlation treatment:
   GGA     =    PS    GGA type
   LEXCH   =    14    internal setting for exchange type
   VOSKOWN=      0    Vosko Wilk Nusair interpolation
   LHFCALC =     F    Hartree Fock is set to
   LHFONE  =     F    Hartree Fock one center treatment
   AEXX    =    0.0000 exact exchange contribution

 Linear response parameters
   LEPSILON=     F    determine dielectric tensor
   LRPA    =     F    only Hartree local field effects (RPA)
   LNABLA  =     F    use nabla operator in PAW spheres
   LVEL    =     F    velocity operator in full k-point grid
   LINTERFAST=   F  fast interpolation
   KINTER  =     0    interpolate to denser k-point grid
   CSHIFT  =0.1000    complex shift for real part using Kramers Kronig
   OMEGAMAX=  -1.0    maximum frequency
   DEG_THRESHOLD= 0.2000000E-02 threshold for treating states as degnerate
   RTIME   =    0.100 relaxation time in fs

 Orbital magnetization related:
   ORBITALMAG=     F  switch on orbital magnetization
   LCHIMAG   =     F  perturbation theory with respect to B field
   DQ        =  0.001000  dq finite difference perturbation B field



--------------------------------------------------------------------------------------------------------


 Static calculation
 charge density and potential remain constant during run
 non-spin polarized calculation
 Variant of blocked Davidson
 Davidson routine will perform the subspace rotation
 perform sub-space diagonalisation
    after iterative eigenvector-optimisation
 no mixing
 using additional bands           10
 reciprocal scheme for non local part
 use partial core corrections
 calculate Harris-corrections to forces 
   (improved forces if not selfconsistent)
 use gradient corrections 
 WARNING: stress and forces are not correct
  (second derivative of E(xc) not defined)
 use of overlap-Matrix (Vanderbilt PP)
 Gauss-broadening in eV      SIGMA  =   0.01


--------------------------------------------------------------------------------------------------------


  energy-cutoff  :      500.00
  volume of cell :      160.21
      direct lattice vectors                 reciprocal lattice vectors
     5.435300000  0.000000000  0.000000000     0.183982485  0.000000000 -0.092196841
     0.000000000  5.435300000  0.000000000     0.000000000  0.183982485 -0.092196841
     2.717650000  2.717650000  5.423179281     0.000000000  0.000000000  0.184393683

  length of vectors
     5.435300000  5.435300000  6.646962958     0.205790700  0.205790700  0.184393683


 
 k-points in units of 2pi/SCALE and weight: Automatically generated mesh SCF: 51 to 
   0.00000000  0.00000000  0.00000000       0.007
   0.16666667  0.00000000 -0.08351958       0.028
   0.33333333  0.00000000 -0.16703916       0.028
   0.50000000  0.00000000 -0.25055875       0.028
   0.16666667  0.16666667 -0.16703916       0.014
   0.33333333  0.16666667 -0.25055875       0.028
   0.50000000  0.16666667 -0.33407833       0.028
  -0.33333333  0.16666667  0.08351958       0.014
  -0.16666667  0.16666667  0.00000000       0.014
   0.16666667  0.33333333 -0.25055875       0.028
   0.33333333  0.33333333 -0.33407833       0.014
   0.50000000  0.33333333 -0.41759791       0.028
  -0.33333333  0.33333333  0.00000000       0.014
  -0.16666667  0.33333333 -0.08351958       0.014
   0.16666667  0.50000000 -0.33407833       0.028
   0.33333333  0.50000000 -0.41759791       0.028
   0.50000000  0.50000000 -0.50111749       0.014
   0.00000000  0.00000000  0.25055875       0.014
   0.16666667  0.00000000  0.16703916       0.028
   0.33333333  0.00000000  0.08351958       0.028
   0.50000000  0.00000000  0.00000000       0.028
  -0.33333333  0.00000000  0.41759791       0.028
  -0.16666667  0.00000000  0.33407833       0.028
   0.16666667  0.16666667  0.08351958       0.014
   0.33333333  0.16666667  0.00000000       0.014
   0.50000000  0.16666667 -0.08351958       0.028
  -0.33333333  0.16666667  0.33407833       0.014
  -0.16666667  0.16666667  0.25055875       0.028
   0.16666667  0.33333333  0.00000000       0.014
   0.33333333  0.33333333 -0.08351958       0.014
   0.50000000  0.33333333 -0.16703916       0.028
  -0.33333333  0.33333333  0.25055875       0.028
  -0.16666667  0.33333333  0.16703916       0.014
   0.16666667  0.50000000 -0.08351958       0.028
   0.33333333  0.50000000 -0.16703916       0.028
   0.50000000  0.50000000 -0.25055875       0.014
   0.16666667 -0.33333333  0.33407833       0.014
  -0.33333333 -0.33333333  0.58463707       0.014
  -0.16666667 -0.33333333  0.50111749       0.014
   0.33333333 -0.16666667  0.16703916       0.014
  -0.33333333 -0.16666667  0.50111749       0.014
  -0.16666667 -0.16666667  0.41759791       0.014
   0.00000000  0.00000000  0.50111749       0.007
   0.16666667  0.00000000  0.41759791       0.028
   0.33333333  0.00000000  0.33407833       0.028
   0.16666667  0.16666667  0.33407833       0.014
  -0.33333333  0.16666667  0.58463707       0.014
  -0.16666667  0.16666667  0.50111749       0.014
   0.33333333  0.33333333  0.16703916       0.014
  -0.33333333  0.33333333  0.50111749       0.014
  -0.16666667  0.33333333  0.41759791       0.014
   0.00000000  0.00000000  0.00000000       0.000
   0.00000000  0.02941176 -0.01473875       0.000
   0.00000000  0.05882353 -0.02947750       0.000
   0.00000000  0.08823530 -0.04421625       0.000
   0.00000000  0.11764706 -0.05895500       0.000
   0.00000000  0.14705883 -0.07369375       0.000
   0.00000000  0.17647059 -0.08843250       0.000
   0.00000000  0.20588236 -0.10317125       0.000
   0.00000000  0.23529412 -0.11791000       0.000
   0.00000000  0.26470590 -0.13264876       0.000
   0.00000000  0.29411766 -0.14738750       0.000
   0.00000000  0.32352942 -0.16212625       0.000
   0.00000000  0.35294119 -0.17686500       0.000
   0.00000000  0.38235295 -0.19160375       0.000
   0.00000000  0.41176471 -0.20634250       0.000
   0.00000000  0.44117647 -0.22108125       0.000
   0.00000000  0.47058824 -0.23582000       0.000
   0.00000000  0.50000000 -0.25055875       0.000
   0.02941176  0.50000000 -0.26529749       0.000
   0.05882353  0.50000000 -0.28003625       0.000
   0.08823530  0.50000000 -0.29477500       0.000
   0.11764706  0.50000000 -0.30951375       0.000
   0.14705883  0.50000000 -0.32425250       0.000
   0.17647059  0.50000000 -0.33899125       0.000
   0.20588236  0.50000000 -0.35373000       0.000
   0.23529412  0.50000000 -0.36846875       0.000
   0.26470590  0.50000000 -0.38320750       0.000
   0.29411766  0.50000000 -0.39794625       0.000
   0.32352942  0.50000000 -0.41268500       0.000
   0.35294119  0.50000000 -0.42742375       0.000
   0.38235295  0.50000000 -0.44216250       0.000
   0.41176471  0.50000000 -0.45690124       0.000
   0.44117647  0.50000000 -0.47163999       0.000
   0.47058824  0.50000000 -0.48637874       0.000
   0.50000000  0.50000000 -0.50111749       0.000
   0.47916666  0.47916666 -0.48023759       0.000
   0.45833334  0.45833334 -0.45935771       0.000
   0.43750000  0.43750000 -0.43847781       0.000
   0.41666666  0.41666666 -0.41759790       0.000
   0.39583334  0.39583334 -0.39671802       0.000
   0.37500000  0.37500000 -0.37583812       0.000
   0.35416669  0.35416669 -0.35495825       0.000
   0.33333331  0.33333331 -0.33407830       0.000
   0.31250000  0.31250000 -0.31319843       0.000
   0.29166669  0.29166669 -0.29231856       0.000
   0.27083331  0.27083331 -0.27143862       0.000
   0.25000000  0.25000000 -0.25055875       0.000
   0.22916666  0.22916666 -0.22967884       0.000
   0.20833334  0.20833334 -0.20879896       0.000
   0.18750000  0.18750000 -0.18791906       0.000
   0.16666666  0.16666666 -0.16703916       0.000
   0.14583331  0.14583331 -0.14615925       0.000
   0.12500000  0.12500000 -0.12527937       0.000
   0.10416666  0.10416666 -0.10439947       0.000
   0.08333334  0.08333334 -0.08351959       0.000
   0.06249997  0.06249997 -0.06263966       0.000
   0.04166666  0.04166666 -0.04175978       0.000
   0.02083331  0.02083331 -0.02087987       0.000
   0.00000000  0.00000000  0.00000000       0.000
   0.00000000  0.00000000  0.03854750       0.000
   0.00000000  0.00000000  0.07709500       0.000
   0.00000000  0.00000000  0.11564250       0.000
   0.00000000  0.00000000  0.15419000       0.000
   0.00000000  0.00000000  0.19273750       0.000
   0.00000000  0.00000000  0.23128502       0.000
   0.00000000  0.00000000  0.26983251       0.000
   0.00000000  0.00000000  0.30838001       0.000
   0.00000000  0.00000000  0.34692751       0.000
   0.00000000  0.00000000  0.38547500       0.000
   0.00000000  0.00000000  0.42402250       0.000
   0.00000000  0.00000000  0.46257002       0.000
   0.00000000  0.00000000  0.50111749       0.000
 
 k-points in reciprocal lattice and weights: Automatically generated mesh SCF: 51 to 
   0.00000000  0.00000000  0.00000000       0.007
   0.16666667  0.00000000  0.00000000       0.028
   0.33333333  0.00000000  0.00000000       0.028
   0.50000000  0.00000000  0.00000000       0.028
   0.16666667  0.16666667  0.00000000       0.014
   0.33333333  0.16666667  0.00000000       0.028
   0.50000000  0.16666667  0.00000000       0.028
  -0.33333333  0.16666667  0.00000000       0.014
  -0.16666667  0.16666667  0.00000000       0.014
   0.16666667  0.33333333  0.00000000       0.028
   0.33333333  0.33333333  0.00000000       0.014
   0.50000000  0.33333333  0.00000000       0.028
  -0.33333333  0.33333333  0.00000000       0.014
  -0.16666667  0.33333333  0.00000000       0.014
   0.16666667  0.50000000  0.00000000       0.028
   0.33333333  0.50000000  0.00000000       0.028
   0.50000000  0.50000000  0.00000000       0.014
   0.00000000  0.00000000  0.25000000       0.014
   0.16666667  0.00000000  0.25000000       0.028
   0.33333333  0.00000000  0.25000000       0.028
   0.50000000  0.00000000  0.25000000       0.028
  -0.33333333  0.00000000  0.25000000       0.028
  -0.16666667  0.00000000  0.25000000       0.028
   0.16666667  0.16666667  0.25000000       0.014
   0.33333333  0.16666667  0.25000000       0.014
   0.50000000  0.16666667  0.25000000       0.028
  -0.33333333  0.16666667  0.25000000       0.014
  -0.16666667  0.16666667  0.25000000       0.028
   0.16666667  0.33333333  0.25000000       0.014
   0.33333333  0.33333333  0.25000000       0.014
   0.50000000  0.33333333  0.25000000       0.028
  -0.33333333  0.33333333  0.25000000       0.028
  -0.16666667  0.33333333  0.25000000       0.014
   0.16666667  0.50000000  0.25000000       0.028
   0.33333333  0.50000000  0.25000000       0.028
   0.50000000  0.50000000  0.25000000       0.014
   0.16666667 -0.33333333  0.25000000       0.014
  -0.33333333 -0.33333333  0.25000000       0.014
  -0.16666667 -0.33333333  0.25000000       0.014
   0.33333333 -0.16666667  0.25000000       0.014
  -0.33333333 -0.16666667  0.25000000       0.014
  -0.16666667 -0.16666667  0.25000000       0.014
   0.00000000  0.00000000  0.50000000       0.007
   0.16666667  0.00000000  0.50000000       0.028
   0.33333333  0.00000000  0.50000000       0.028
   0.16666667  0.16666667  0.50000000       0.014
  -0.33333333  0.16666667  0.50000000       0.014
  -0.16666667  0.16666667  0.50000000       0.014
   0.33333333  0.33333333  0.50000000       0.014
  -0.33333333  0.33333333  0.50000000       0.014
  -0.16666667  0.33333333  0.50000000       0.014
   0.00000000  0.00000000  0.00000000       0.000
   0.00000000  0.02941176  0.00000000       0.000
   0.00000000  0.05882353  0.00000000       0.000
   0.00000000  0.08823530  0.00000000       0.000
   0.00000000  0.11764706  0.00000000       0.000
   0.00000000  0.14705883  0.00000000       0.000
   0.00000000  0.17647059  0.00000000       0.000
   0.00000000  0.20588236  0.00000000       0.000
   0.00000000  0.23529412  0.00000000       0.000
   0.00000000  0.26470590  0.00000000       0.000
   0.00000000  0.29411766  0.00000000       0.000
   0.00000000  0.32352942  0.00000000       0.000
   0.00000000  0.35294119  0.00000000       0.000
   0.00000000  0.38235295  0.00000000       0.000
   0.00000000  0.41176471  0.00000000       0.000
   0.00000000  0.44117647  0.00000000       0.000
   0.00000000  0.47058824  0.00000000       0.000
   0.00000000  0.50000000  0.00000000       0.000
   0.02941176  0.50000000  0.00000000       0.000
   0.05882353  0.50000000  0.00000000       0.000
   0.08823530  0.50000000  0.00000000       0.000
   0.11764706  0.50000000  0.00000000       0.000
   0.14705883  0.50000000  0.00000000       0.000
   0.17647059  0.50000000  0.00000000       0.000
   0.20588236  0.50000000  0.00000000       0.000
   0.23529412  0.50000000  0.00000000       0.000
   0.26470590  0.50000000  0.00000000       0.000
   0.29411766  0.50000000  0.00000000       0.000
   0.32352942  0.50000000  0.00000000       0.000
   0.35294119  0.50000000  0.00000000       0.000
   0.38235295  0.50000000  0.00000000       0.000
   0.41176471  0.50000000  0.00000000       0.000
   0.44117647  0.50000000  0.00000000       0.000
   0.47058824  0.50000000  0.00000000       0.000
   0.50000000  0.50000000  0.00000000       0.000
   0.47916666  0.47916666  0.00000000       0.000
   0.45833334  0.45833334  0.00000000       0.000
   0.43750000  0.43750000  0.00000000       0.000
   0.41666666  0.41666666  0.00000000       0.000
   0.39583334  0.39583334  0.00000000       0.000
   0.37500000  0.37500000  0.00000000       0.000
   0.35416669  0.35416669  0.00000000       0.000
   0.33333331  0.33333331  0.00000000       0.000
   0.31250000  0.31250000  0.00000000       0.000
   0.29166669  0.29166669  0.00000000       0.000
   0.27083331  0.27083331  0.00000000       0.000
   0.25000000  0.25000000  0.00000000       0.000
   0.22916666  0.22916666  0.00000000       0.000
   0.20833334  0.20833334  0.00000000       0.000
   0.18750000  0.18750000  0.00000000       0.000
   0.16666666  0.16666666  0.00000000       0.000
   0.14583331  0.14583331  0.00000000       0.000
   0.12500000  0.12500000  0.00000000       0.000
   0.10416666  0.10416666  0.00000000       0.000
   0.08333334  0.08333334  0.00000000       0.000
   0.06249997  0.06249997  0.00000000       0.000
   0.04166666  0.04166666  0.00000000       0.000
   0.02083331  0.02083331  0.00000000       0.000
   0.00000000  0.00000000  0.00000000       0.000
   0.00000000  0.00000000  0.03846154       0.000
   0.00000000  0.00000000  0.07692308       0.000
   0.00000000  0.00000000  0.11538462       0.000
   0.00000000  0.00000000  0.15384616       0.000
   0.00000000  0.00000000  0.19230770       0.000
   0.00000000  0.00000000  0.23076925       0.000
   0.00000000  0.00000000  0.26923078       0.000
   0.00000000  0.00000000  0.30769232       0.000
   0.00000000  0.00000000  0.34615386       0.000
   0.00000000  0.00000000  0.38461539       0.000
   0.00000000  0.00000000  0.42307693       0.000
   0.00000000  0.00000000  0.46153849       0.000
   0.00000000  0.00000000  0.50000000       0.000
 
 position of ions in fractional coordinates (direct lattice) 
   0.00000000  0.00000000  0.00000000
   0.75000000  0.25000000  0.50000000
   0.50000000  0.50000000  0.00000000
   0.25000000  0.75000000  0.50000000
   0.11777234  0.13390109  0.24359300
   0.63863466  0.62250591  0.24359300
   0.86609891  0.36136534  0.75640700
   0.37749409  0.88222766  0.75640700
 
 position of ions in cartesian coordinates  (Angst):
   0.00000000  0.00000000  0.00000000
   5.43530000  2.71765000  2.71158964
   2.71765000  2.71765000  0.00000000
   2.71765000  5.43530000  2.71158964
   1.30212853  1.38979311  1.32104849
   4.13317147  4.04550689  1.32104849
   6.76315689  4.01977853  4.10213079
   4.10744311  6.85082147  4.10213079
 


--------------------------------------------------------------------------------------------------------


 k-point  1 :   0.0000 0.0000 0.0000  plane waves:    4055
 k-point  2 :   0.1667 0.0000 0.0000  plane waves:    4054
 k-point  3 :   0.3333 0.0000 0.0000  plane waves:    4078
 k-point  4 :   0.5000 0.0000 0.0000  plane waves:    4072
 k-point  5 :   0.1667 0.1667 0.0000  plane waves:    4054
 k-point  6 :   0.3333 0.1667 0.0000  plane waves:    4071
 k-point  7 :   0.5000 0.1667 0.0000  plane waves:    4069
 k-point  8 :  -0.3333 0.1667 0.0000  plane waves:    4066
 k-point  9 :  -0.1667 0.1667 0.0000  plane waves:    4058
 k-point 10 :   0.1667 0.3333 0.0000  plane waves:    4071
 k-point 11 :   0.3333 0.3333 0.0000  plane waves:    4064
 k-point 12 :   0.5000 0.3333 0.0000  plane waves:    4074
 k-point 13 :  -0.3333 0.3333 0.0000  plane waves:    4068
 k-point 14 :  -0.1667 0.3333 0.0000  plane waves:    4066
 k-point 15 :   0.1667 0.5000 0.0000  plane waves:    4069
 k-point 16 :   0.3333 0.5000 0.0000  plane waves:    4074
 k-point 17 :   0.5000 0.5000 0.0000  plane waves:    4054
 k-point 18 :   0.0000 0.0000 0.2500  plane waves:    4056
 k-point 19 :   0.1667 0.0000 0.2500  plane waves:    4052
 k-point 20 :   0.3333 0.0000 0.2500  plane waves:    4063
 k-point 21 :   0.5000 0.0000 0.2500  plane waves:    4072
 k-point 22 :  -0.3333 0.0000 0.2500  plane waves:    4078
 k-point 23 :  -0.1667 0.0000 0.2500  plane waves:    4068
 k-point 24 :   0.1667 0.1667 0.2500  plane waves:    4060
 k-point 25 :   0.3333 0.1667 0.2500  plane waves:    4064
 k-point 26 :   0.5000 0.1667 0.2500  plane waves:    4070
 k-point 27 :  -0.3333 0.1667 0.2500  plane waves:    4071
 k-point 28 :  -0.1667 0.1667 0.2500  plane waves:    4057
 k-point 29 :   0.1667 0.3333 0.2500  plane waves:    4064
 k-point 30 :   0.3333 0.3333 0.2500  plane waves:    4061
 k-point 31 :   0.5000 0.3333 0.2500  plane waves:    4074
 k-point 32 :  -0.3333 0.3333 0.2500  plane waves:    4055
 k-point 33 :  -0.1667 0.3333 0.2500  plane waves:    4063
 k-point 34 :   0.1667 0.5000 0.2500  plane waves:    4070
 k-point 35 :   0.3333 0.5000 0.2500  plane waves:    4074
 k-point 36 :   0.5000 0.5000 0.2500  plane waves:    4080
 k-point 37 :   0.1667-0.3333 0.2500  plane waves:    4071
 k-point 38 :  -0.3333-0.3333 0.2500  plane waves:    4085
 k-point 39 :  -0.1667-0.3333 0.2500  plane waves:    4082
 k-point 40 :   0.3333-0.1667 0.2500  plane waves:    4063
 k-point 41 :  -0.3333-0.1667 0.2500  plane waves:    4082
 k-point 42 :  -0.1667-0.1667 0.2500  plane waves:    4064
 k-point 43 :   0.0000 0.0000 0.5000  plane waves:    4040
 k-point 44 :   0.1667 0.0000 0.5000  plane waves:    4060
 k-point 45 :   0.3333 0.0000 0.5000  plane waves:    4074
 k-point 46 :   0.1667 0.1667 0.5000  plane waves:    4069
 k-point 47 :  -0.3333 0.1667 0.5000  plane waves:    4077
 k-point 48 :  -0.1667 0.1667 0.5000  plane waves:    4058
 k-point 49 :   0.3333 0.3333 0.5000  plane waves:    4050
 k-point 50 :  -0.3333 0.3333 0.5000  plane waves:    4094
 k-point 51 :  -0.1667 0.3333 0.5000  plane waves:    4077
 k-point 52 :   0.0000 0.0000 0.0000  plane waves:    4055
 k-point 53 :   0.0000 0.0294 0.0000  plane waves:    4051
 k-point 54 :   0.0000 0.0588 0.0000  plane waves:    4047
 k-point 55 :   0.0000 0.0882 0.0000  plane waves:    4047
 k-point 56 :   0.0000 0.1176 0.0000  plane waves:    4051
 k-point 57 :   0.0000 0.1471 0.0000  plane waves:    4043
 k-point 58 :   0.0000 0.1765 0.0000  plane waves:    4056
 k-point 59 :   0.0000 0.2059 0.0000  plane waves:    4061
 k-point 60 :   0.0000 0.2353 0.0000  plane waves:    4055
 k-point 61 :   0.0000 0.2647 0.0000  plane waves:    4060
 k-point 62 :   0.0000 0.2941 0.0000  plane waves:    4071
 k-point 63 :   0.0000 0.3235 0.0000  plane waves:    4072
 k-point 64 :   0.0000 0.3529 0.0000  plane waves:    4080
 k-point 65 :   0.0000 0.3824 0.0000  plane waves:    4080
 k-point 66 :   0.0000 0.4118 0.0000  plane waves:    4076
 k-point 67 :   0.0000 0.4412 0.0000  plane waves:    4075
 k-point 68 :   0.0000 0.4706 0.0000  plane waves:    4066
 k-point 69 :   0.0000 0.5000 0.0000  plane waves:    4072
 k-point 70 :   0.0294 0.5000 0.0000  plane waves:    4068
 k-point 71 :   0.0588 0.5000 0.0000  plane waves:    4066
 k-point 72 :   0.0882 0.5000 0.0000  plane waves:    4068
 k-point 73 :   0.1176 0.5000 0.0000  plane waves:    4068
 k-point 74 :   0.1471 0.5000 0.0000  plane waves:    4076
 k-point 75 :   0.1765 0.5000 0.0000  plane waves:    4071
 k-point 76 :   0.2059 0.5000 0.0000  plane waves:    4071
 k-point 77 :   0.2353 0.5000 0.0000  plane waves:    4072
 k-point 78 :   0.2647 0.5000 0.0000  plane waves:    4072
 k-point 79 :   0.2941 0.5000 0.0000  plane waves:    4073
 k-point 80 :   0.3235 0.5000 0.0000  plane waves:    4073
 k-point 81 :   0.3529 0.5000 0.0000  plane waves:    4073
 k-point 82 :   0.3824 0.5000 0.0000  plane waves:    4072
 k-point 83 :   0.4118 0.5000 0.0000  plane waves:    4073
 k-point 84 :   0.4412 0.5000 0.0000  plane waves:    4076
 k-point 85 :   0.4706 0.5000 0.0000  plane waves:    4058
 k-point 86 :   0.5000 0.5000 0.0000  plane waves:    4054
 k-point 87 :   0.4792 0.4792 0.0000  plane waves:    4064
 k-point 88 :   0.4583 0.4583 0.0000  plane waves:    4072
 k-point 89 :   0.4375 0.4375 0.0000  plane waves:    4087
 k-point 90 :   0.4167 0.4167 0.0000  plane waves:    4082
 k-point 91 :   0.3958 0.3958 0.0000  plane waves:    4082
 k-point 92 :   0.3750 0.3750 0.0000  plane waves:    4073
 k-point 93 :   0.3542 0.3542 0.0000  plane waves:    4068
 k-point 94 :   0.3333 0.3333 0.0000  plane waves:    4064
 k-point 95 :   0.3125 0.3125 0.0000  plane waves:    4063
 k-point 96 :   0.2917 0.2917 0.0000  plane waves:    4070
 k-point 97 :   0.2708 0.2708 0.0000  plane waves:    4068
 k-point 98 :   0.2500 0.2500 0.0000  plane waves:    4051
 k-point 99 :   0.2292 0.2292 0.0000  plane waves:    4057
 k-point ** :   0.2083 0.2083 0.0000  plane waves:    4058
 k-point ** :   0.1875 0.1875 0.0000  plane waves:    4055
 k-point ** :   0.1667 0.1667 0.0000  plane waves:    4054
 k-point ** :   0.1458 0.1458 0.0000  plane waves:    4039
 k-point ** :   0.1250 0.1250 0.0000  plane waves:    4043
 k-point ** :   0.1042 0.1042 0.0000  plane waves:    4045
 k-point ** :   0.0833 0.0833 0.0000  plane waves:    4053
 k-point ** :   0.0625 0.0625 0.0000  plane waves:    4042
 k-point ** :   0.0417 0.0417 0.0000  plane waves:    4043
 k-point ** :   0.0208 0.0208 0.0000  plane waves:    4050
 k-point ** :   0.0000 0.0000 0.0000  plane waves:    4055
 k-point ** :   0.0000 0.0000 0.0385  plane waves:    4043
 k-point ** :   0.0000 0.0000 0.0769  plane waves:    4051
 k-point ** :   0.0000 0.0000 0.1154  plane waves:    4056
 k-point ** :   0.0000 0.0000 0.1538  plane waves:    4040
 k-point ** :   0.0000 0.0000 0.1923  plane waves:    4052
 k-point ** :   0.0000 0.0000 0.2308  plane waves:    4072
 k-point ** :   0.0000 0.0000 0.2692  plane waves:    4048
 k-point ** :   0.0000 0.0000 0.3077  plane waves:    4048
 k-point ** :   0.0000 0.0000 0.3462  plane waves:    4040
 k-point ** :   0.0000 0.0000 0.3846  plane waves:    4036
 k-point ** :   0.0000 0.0000 0.4231  plane waves:    4060
 k-point ** :   0.0000 0.0000 0.4615  plane waves:    4056
 k-point ** :   0.0000 0.0000 0.5000  plane waves:    4040

 maximum and minimum number of plane-waves per node :       702      650

 maximum number of plane-waves:      4094
 maximum index in each direction: 
   IXMAX=   10   IYMAX=   10   IZMAX=   12
   IXMIN=  -10   IYMIN=  -10   IZMIN=  -12

 WARNING: aliasing errors must be expected set NGX to  42 to avoid them
 WARNING: aliasing errors must be expected set NGY to  42 to avoid them
 WARNING: aliasing errors must be expected set NGZ to  50 to avoid them
 aliasing errors are usually negligible using standard VASP settings
 and one can safely disregard these warnings

 parallel 3D FFT for wavefunctions:
    minimum data exchange during FFTs selected (reduces bandwidth)
 parallel 3D FFT for charge:
    minimum data exchange during FFTs selected (reduces bandwidth)


 total amount of memory used by VASP on root node   101378. kBytes
========================================================================

   base      :      30000. kBytes
   nonl-proj :      48831. kBytes
   fftplans  :       1409. kBytes
   grid      :       2789. kBytes
   one-center:         31. kBytes
   wavefun   :      18318. kBytes
 
     INWAV:  cpu time    0.0040: real time    0.0003
 initial charge density was supplied:
 number of electron      83.9999897 magnetization 
 keeping initial charge density in first step


--------------------------------------------------------------------------------------------------------


 Maximum index for augmentation-charges         1037 (set IRDMAX)


--------------------------------------------------------------------------------------------------------


 First call to EWALD:  gamma=   0.326
 Maximum number of real-space cells 3x 3x 3
 Maximum number of reciprocal cells 3x 3x 3

 FEWALD executed in parallel
    FEWALD:  cpu time    0.0000: real time    0.0018


----------------------------------------- Iteration    1(   1)  ---------------------------------------


    POTLOK:  cpu time    0.0160: real time    0.0162
    SETDIJ:  cpu time    0.0040: real time    0.0022
     EDDAV:  cpu time    1.1641: real time    1.1662
       DOS:  cpu time    0.0000: real time    0.0027
    --------------------------------------------
      LOOP:  cpu time    1.1921: real time    1.2098

 eigenvalue-minimisations  : 15156
 total energy-change (2. order) : 0.9624576E+03  (-0.4449018E+04)
 number of electron      83.9999897 magnetization 
 augmentation part       83.9999897 magnetization 

 Free energy of the ion-electron system (eV)
  ---------------------------------------------------
  alpha Z        PSCENC =       275.46753454
  Ewald energy   TEWEN  =     -7155.92568703
  -Hartree energ DENC   =     -5039.24821403
  -exchange      EXHF   =         0.00000000
  -V(xc)+E(xc)   XCENC  =       383.32731484
  PAW double counting   =     13039.56930228   -13549.22117807
  entropy T*S    EENTRO =        -0.00021425
  eigenvalues    EBANDS =        27.33833221
  atomic energy  EATOM  =     12981.15041703
  Solvation  Ediel_sol  =         0.00000000
  ---------------------------------------------------
  free energy    TOTEN  =       962.45760752 eV

  energy without entropy =      962.45782177  energy(sigma->0) =      962.45771464


--------------------------------------------------------------------------------------------------------




----------------------------------------- Iteration    1(   2)  ---------------------------------------


     EDDAV:  cpu time    1.0161: real time    1.0196
       DOS:  cpu time    0.0040: real time    0.0022
    --------------------------------------------
      LOOP:  cpu time    1.0241: real time    1.0292

 eigenvalue-minimisations  : 12824
 total energy-change (2. order) :-0.8619369E+03  (-0.8362155E+03)
 number of electron      83.9999897 magnetization 
 augmentation part       83.9999897 magnetization 

 Free energy of the ion-electron system (eV)
  ---------------------------------------------------
  alpha Z        PSCENC =       275.46753454
  Ewald energy   TEWEN  =     -7155.92568703
  -Hartree energ DENC   =     -5039.24821403
  -exchange      EXHF   =         0.00000000
  -V(xc)+E(xc)   XCENC  =       383.32731484
  PAW double counting   =     13039.56930228   -13549.22117807
  entropy T*S    EENTRO =        -0.00013629
  eigenvalues    EBANDS =      -834.59868632
  atomic energy  EATOM  =     12981.15041703
  Solvation  Ediel_sol  =         0.00000000
  ---------------------------------------------------
  free energy    TOTEN  =       100.52066694 eV

  energy without entropy =      100.52080324  energy(sigma->0) =      100.52073509


--------------------------------------------------------------------------------------------------------




----------------------------------------- Iteration    1(   3)  ---------------------------------------


     EDDAV:  cpu time    1.0841: real time    1.0821
       DOS:  cpu time    0.0000: real time    0.0013
    --------------------------------------------
      LOOP:  cpu time    1.0841: real time    1.0904

 eigenvalue-minimisations  : 14120
 total energy-change (2. order) :-0.1279063E+03  (-0.1244082E+03)
 number of electron      83.9999897 magnetization 
 augmentation part       83.9999897 magnetization 

 Free energy of the ion-electron system (eV)
  ---------------------------------------------------
  alpha Z        PSCENC =       275.46753454
  Ewald energy   TEWEN  =     -7155.92568703
  -Hartree energ DENC   =     -5039.24821403
  -exchange      EXHF   =         0.00000000
  -V(xc)+E(xc)   XCENC  =       383.32731484
  PAW double counting   =     13039.56930228   -13549.22117807
  entropy T*S    EENTRO =        -0.00000000
  eigenvalues    EBANDS =      -962.50509641
  atomic energy  EATOM  =     12981.15041703
  Solvation  Ediel_sol  =         0.00000000
  ---------------------------------------------------
  free energy    TOTEN  =       -27.38560685 eV

  energy without entropy =      -27.38560685  energy(sigma->0) =      -27.38560685


--------------------------------------------------------------------------------------------------------




----------------------------------------- Iteration    1(   4)  ---------------------------------------


     EDDAV:  cpu time    1.1481: real time    1.1490
       DOS:  cpu time    0.0040: real time    0.0019
    --------------------------------------------
      LOOP:  cpu time    1.1521: real time    1.2297

 eigenvalue-minimisations  : 15156
 total energy-change (2. order) :-0.8147837E+01  (-0.8060096E+01)
 number of electron      83.9999897 magnetization 
 augmentation part       83.9999897 magnetization 

 Free energy of the ion-electron system (eV)
  ---------------------------------------------------
  alpha Z        PSCENC =       275.46753454
  Ewald energy   TEWEN  =     -7155.92568703
  -Hartree energ DENC   =     -5039.24821403
  -exchange      EXHF   =         0.00000000
  -V(xc)+E(xc)   XCENC  =       383.32731484
  PAW double counting   =     13039.56930228   -13549.22117807
  entropy T*S    EENTRO =        -0.00000000
  eigenvalues    EBANDS =      -970.65293382
  atomic energy  EATOM  =     12981.15041703
  Solvation  Ediel_sol  =         0.00000000
  ---------------------------------------------------
  free energy    TOTEN  =       -35.53344426 eV

  energy without entropy =      -35.53344426  energy(sigma->0) =      -35.53344426


--------------------------------------------------------------------------------------------------------




----------------------------------------- Iteration    1(   5)  ---------------------------------------


     EDDAV:  cpu time    1.1961: real time    1.1976
       DOS:  cpu time    0.0040: real time    0.0016
    --------------------------------------------
      LOOP:  cpu time    1.2001: real time    1.2087

 eigenvalue-minimisations  : 15876
 total energy-change (2. order) :-0.2338792E+00  (-0.2333850E+00)
 number of electron      83.9999897 magnetization 
 augmentation part       83.9999897 magnetization 

 Free energy of the ion-electron system (eV)
  ---------------------------------------------------
  alpha Z        PSCENC =       275.46753454
  Ewald energy   TEWEN  =     -7155.92568703
  -Hartree energ DENC   =     -5039.24821403
  -exchange      EXHF   =         0.00000000
  -V(xc)+E(xc)   XCENC  =       383.32731484
  PAW double counting   =     13039.56930228   -13549.22117807
  entropy T*S    EENTRO =        -0.00000000
  eigenvalues    EBANDS =      -970.88681304
  atomic energy  EATOM  =     12981.15041703
  Solvation  Ediel_sol  =         0.00000000
  ---------------------------------------------------
  free energy    TOTEN  =       -35.76732348 eV

  energy without entropy =      -35.76732348  energy(sigma->0) =      -35.76732348


--------------------------------------------------------------------------------------------------------




----------------------------------------- Iteration    1(   6)  ---------------------------------------


     EDDAV:  cpu time    1.2001: real time    1.2024
       DOS:  cpu time    0.0000: real time    0.0013
    --------------------------------------------
      LOOP:  cpu time    1.2041: real time    1.2124

 eigenvalue-minimisations  : 16304
 total energy-change (2. order) :-0.9067479E-02  (-0.9064006E-02)
 number of electron      83.9999897 magnetization 
 augmentation part       83.9999897 magnetization 

 Free energy of the ion-electron system (eV)
  ---------------------------------------------------
  alpha Z        PSCENC =       275.46753454
  Ewald energy   TEWEN  =     -7155.92568703
  -Hartree energ DENC   =     -5039.24821403
  -exchange      EXHF   =         0.00000000
  -V(xc)+E(xc)   XCENC  =       383.32731484
  PAW double counting   =     13039.56930228   -13549.22117807
  entropy T*S    EENTRO =        -0.00000000
  eigenvalues    EBANDS =      -970.89588052
  atomic energy  EATOM  =     12981.15041703
  Solvation  Ediel_sol  =         0.00000000
  ---------------------------------------------------
  free energy    TOTEN  =       -35.77639096 eV

  energy without entropy =      -35.77639096  energy(sigma->0) =      -35.77639096


--------------------------------------------------------------------------------------------------------




----------------------------------------- Iteration    1(   7)  ---------------------------------------


     EDDAV:  cpu time    1.3001: real time    1.2987
       DOS:  cpu time    0.0000: real time    0.0015
    --------------------------------------------
      LOOP:  cpu time    1.3001: real time    1.3085

 eigenvalue-minimisations  : 17832
 total energy-change (2. order) :-0.4446668E-03  (-0.4446325E-03)
 number of electron      83.9999897 magnetization 
 augmentation part       83.9999897 magnetization 

 Free energy of the ion-electron system (eV)
  ---------------------------------------------------
  alpha Z        PSCENC =       275.46753454
  Ewald energy   TEWEN  =     -7155.92568703
  -Hartree energ DENC   =     -5039.24821403
  -exchange      EXHF   =         0.00000000
  -V(xc)+E(xc)   XCENC  =       383.32731484
  PAW double counting   =     13039.56930228   -13549.22117807
  entropy T*S    EENTRO =        -0.00000000
  eigenvalues    EBANDS =      -970.89632519
  atomic energy  EATOM  =     12981.15041703
  Solvation  Ediel_sol  =         0.00000000
  ---------------------------------------------------
  free energy    TOTEN  =       -35.77683563 eV

  energy without entropy =      -35.77683563  energy(sigma->0) =      -35.77683563


--------------------------------------------------------------------------------------------------------




----------------------------------------- Iteration    1(   8)  ---------------------------------------


     EDDAV:  cpu time    1.2201: real time    1.2196
       DOS:  cpu time    0.0040: real time    0.0019
    --------------------------------------------
      LOOP:  cpu time    1.2241: real time    1.2268

 eigenvalue-minimisations  : 16412
 total energy-change (2. order) :-0.1424337E-04  (-0.1424306E-04)
 number of electron      83.9999897 magnetization 
 augmentation part       83.9999897 magnetization 

 Free energy of the ion-electron system (eV)
  ---------------------------------------------------
  alpha Z        PSCENC =       275.46753454
  Ewald energy   TEWEN  =     -7155.92568703
  -Hartree energ DENC   =     -5039.24821403
  -exchange      EXHF   =         0.00000000
  -V(xc)+E(xc)   XCENC  =       383.32731484
  PAW double counting   =     13039.56930228   -13549.22117807
  entropy T*S    EENTRO =        -0.00000000
  eigenvalues    EBANDS =      -970.89633943
  atomic energy  EATOM  =     12981.15041703
  Solvation  Ediel_sol  =         0.00000000
  ---------------------------------------------------
  free energy    TOTEN  =       -35.77684987 eV

  energy without entropy =      -35.77684987  energy(sigma->0) =      -35.77684987


--------------------------------------------------------------------------------------------------------




----------------------------------------- Iteration    1(   9)  ---------------------------------------


     EDDAV:  cpu time    0.9441: real time    0.9446
       DOS:  cpu time    0.0000: real time    0.0014
    --------------------------------------------
      LOOP:  cpu time    0.9841: real time    0.9910

 eigenvalue-minimisations  : 11416
 total energy-change (2. order) :-0.6651098E-06  (-0.6651797E-06)
 number of electron      83.9999897 magnetization 
 augmentation part       83.9999897 magnetization 

 Free energy of the ion-electron system (eV)
  ---------------------------------------------------
  alpha Z        PSCENC =       275.46753454
  Ewald energy   TEWEN  =     -7155.92568703
  -Hartree energ DENC   =     -5039.24821403
  -exchange      EXHF   =         0.00000000
  -V(xc)+E(xc)   XCENC  =       383.32731484
  PAW double counting   =     13039.56930228   -13549.22117807
  entropy T*S    EENTRO =        -0.00000000
  eigenvalues    EBANDS =      -970.89634010
  atomic energy  EATOM  =     12981.15041703
  Solvation  Ediel_sol  =         0.00000000
  ---------------------------------------------------
  free energy    TOTEN  =       -35.77685054 eV

  energy without entropy =      -35.77685054  energy(sigma->0) =      -35.77685054


--------------------------------------------------------------------------------------------------------




 the core state eigenenergies are
   1-  1s  -8842.9123  2s  -1055.2192  2p   -909.6774  3s   -107.0700
   2-  1s  -8842.9275  2s  -1055.2305  2p   -909.6891  3s   -107.0830
   3-  1s  -9516.8197  2s  -1150.3373  2p   -995.9918  3s   -121.3593  3p    -75.5220
     
   4-  1s -28998.8071  2s  -4370.2858  2p  -3921.9058  3s   -836.5385  3p   -690.0858
       3d   -464.7957  4s   -125.4840  4p    -81.2664
   5-  1s  -2395.4964  2s   -201.5080  2p   -146.2857
   6-  1s  -2395.4964  2s   -201.5080  2p   -146.2857
   7-  1s  -2395.4964  2s   -201.5080  2p   -146.2857
   8-  1s  -2395.4964  2s   -201.5080  2p   -146.2857
 
 E-fermi :   4.7180     XC(G=0): -10.0632     alpha+bet : -9.9404


 k-point     1 :       0.0000    0.0000    0.0000
  band No.  band energies     occupation 
      1     -64.3059      2.00000
      2     -64.2510      2.00000
      3     -64.2510      2.00000
      4     -64.2284      2.00000
      5     -64.2284      2.00000
      6     -64.2218      2.00000
      7     -17.5219      2.00000
      8     -17.5180      2.00000
      9     -17.5180      2.00000
     10     -17.4281      2.00000
     11     -17.4226      2.00000
     12      -9.8884      2.00000
     13      -8.3354      2.00000
     14      -8.3246      2.00000
     15      -8.3246      2.00000
     16      -3.4615      2.00000
     17      -2.4951      2.00000
     18      -2.4231      2.00000
     19      -2.4211      2.00000
     20      -2.4211      2.00000
     21      -2.3211      2.00000
     22      -1.0513      2.00000
     23      -0.4114      2.00000
     24      -0.3061      2.00000
     25       0.1334      2.00000
     26       0.1334      2.00000
     27       0.1754      2.00000
     28       0.8969      2.00000
     29       0.8969      2.00000
     30       1.3865      2.00000
     31       1.3865      2.00000
     32       1.4054      2.00000
     33       2.5503      2.00000
     34       2.5925      2.00000
     35       2.7931      2.00000
     36       3.0420      2.00000
     37       3.0522      2.00000
     38       3.0522      2.00000
     39       3.2173      2.00000
     40       4.5813      2.00000
     41       4.5813      2.00000
     42       4.6591      2.00000
     43       4.8455      0.00000
     44       6.5587      0.00000
     45       7.4103      0.00000
     46       8.3761      0.00000
     47       8.3761      0.00000
     48       9.4850      0.00000
     49       9.5611      0.00000
     50       9.8139      0.00000
     51       9.8139      0.00000
     52      10.2393      0.00000

 k-point     2 :       0.1667    0.0000    0.0000
  band No.  band energies     occupation 
      1     -64.3059      2.00000
      2     -64.2511      2.00000
      3     -64.2510      2.00000
      4     -64.2284      2.00000
      5     -64.2283      2.00000
      6     -64.2218      2.00000
      7     -17.5221      2.00000
      8     -17.5181      2.00000
      9     -17.5180      2.00000
     10     -17.4280      2.00000
     11     -17.4225      2.00000
     12      -9.7954      2.00000
     13      -8.4091      2.00000
     14      -8.3671      2.00000
     15      -8.3533      2.00000
     16      -3.4135      2.00000
     17      -2.4689      2.00000
     18      -2.4514      2.00000
     19      -2.4286      2.00000
     20      -2.4120      2.00000
     21      -2.3069      2.00000
     22      -1.0998      2.00000
     23      -0.5508      2.00000
     24      -0.3088      2.00000
     25      -0.0081      2.00000
     26       0.3079      2.00000
     27       0.4658      2.00000
     28       0.8113      2.00000
     29       0.9067      2.00000
     30       1.2842      2.00000
     31       1.3599      2.00000
     32       1.4862      2.00000
     33       2.5899      2.00000
     34       2.6778      2.00000
     35       2.8143      2.00000
     36       2.9303      2.00000
     37       2.9998      2.00000
     38       3.1789      2.00000
     39       3.2891      2.00000
     40       3.9662      2.00000
     41       4.3634      2.00000
     42       4.5459      2.00000
     43       5.5839      0.00000
     44       6.9700      0.00000
     45       7.6238      0.00000
     46       8.1217      0.00000
     47       8.2253      0.00000
     48       9.2276      0.00000
     49       9.7083      0.00000
     50       9.8284      0.00000
     51       9.9593      0.00000
     52      10.2149      0.00000

 k-point     3 :       0.3333    0.0000    0.0000
  band No.  band energies     occupation 
      1     -64.3059      2.00000
      2     -64.2512      2.00000
      3     -64.2511      2.00000
      4     -64.2285      2.00000
      5     -64.2284      2.00000
      6     -64.2218      2.00000
      7     -17.5223      2.00000
      8     -17.5183      2.00000
      9     -17.5180      2.00000
     10     -17.4277      2.00000
     11     -17.4224      2.00000
     12      -9.5447      2.00000
     13      -8.6583      2.00000
     14      -8.4357      2.00000
     15      -8.3945      2.00000
     16      -3.3173      2.00000
     17      -2.4930      2.00000
     18      -2.4595      2.00000
     19      -2.4122      2.00000
     20      -2.3917      2.00000
     21      -2.2762      2.00000
     22      -1.1056      2.00000
     23      -0.6359      2.00000
     24      -0.3248      2.00000
     25       0.1236      2.00000
     26       0.2413      2.00000
     27       0.4836      2.00000
     28       0.7058      2.00000
     29       0.9456      2.00000
     30       1.2260      2.00000
     31       1.3511      2.00000
     32       1.5809      2.00000
     33       2.7087      2.00000
     34       2.7721      2.00000
     35       2.8434      2.00000
     36       2.8991      2.00000
     37       3.0237      2.00000
     38       3.2628      2.00000
     39       3.3860      2.00000
     40       3.6694      2.00000
     41       3.9054      2.00000
     42       4.3176      2.00000
     43       6.1544      0.00000
     44       7.5689      0.00000
     45       7.8806      0.00000
     46       8.0028      0.00000
     47       8.5161      0.00000
     48       9.2728      0.00000
     49       9.7629      0.00000
     50       9.8085      0.00000
     51      10.3963      0.00000
     52      10.5004      0.00000

 k-point     4 :       0.5000    0.0000    0.0000
  band No.  band energies     occupation 
      1     -64.3060      2.00000
      2     -64.2511      2.00000
      3     -64.2511      2.00000
      4     -64.2285      2.00000
      5     -64.2284      2.00000
      6     -64.2218      2.00000
      7     -17.5224      2.00000
      8     -17.5185      2.00000
      9     -17.5179      2.00000
     10     -17.4276      2.00000
     11     -17.4223      2.00000
     12      -9.3178      2.00000
     13      -8.8907      2.00000
     14      -8.4662      2.00000
     15      -8.4143      2.00000
     16      -3.2696      2.00000
     17      -2.5052      2.00000
     18      -2.4697      2.00000
     19      -2.3989      2.00000
     20      -2.3775      2.00000
     21      -2.2582      2.00000
     22      -1.0434      2.00000
     23      -0.6562      2.00000
     24      -0.2946      2.00000
     25      -0.0309      2.00000
     26       0.2880      2.00000
     27       0.3587      2.00000
     28       0.8306      2.00000
     29       1.0015      2.00000
     30       1.1386      2.00000
     31       1.3532      2.00000
     32       1.5826      2.00000
     33       2.7335      2.00000
     34       2.7681      2.00000
     35       2.8599      2.00000
     36       2.9636      2.00000
     37       3.0590      2.00000
     38       3.3719      2.00000
     39       3.4909      2.00000
     40       3.5517      2.00000
     41       3.6236      2.00000
     42       4.1514      2.00000
     43       6.3596      0.00000
     44       7.7407      0.00000
     45       7.8973      0.00000
     46       8.7969      0.00000
     47       8.8622      0.00000
     48       9.1670      0.00000
     49       9.6297      0.00000
     50       9.9256      0.00000
     51      10.1994      0.00000
     52      10.6865      0.00000

 k-point     5 :       0.1667    0.1667    0.0000
  band No.  band energies     occupation 
      1     -64.3059      2.00000
      2     -64.2511      2.00000
      3     -64.2510      2.00000
      4     -64.2284      2.00000
      5     -64.2284      2.00000
      6     -64.2217      2.00000
      7     -17.5222      2.00000
      8     -17.5181      2.00000
      9     -17.5181      2.00000
     10     -17.4278      2.00000
     11     -17.4224      2.00000
     12      -9.6730      2.00000
     13      -8.4919      2.00000
     14      -8.4125      2.00000
     15      -8.4065      2.00000
     16      -3.4009      2.00000
     17      -2.4760      2.00000
     18      -2.4644      2.00000
     19      -2.4104      2.00000
     20      -2.3966      2.00000
     21      -2.2832      2.00000
     22      -1.2001      2.00000
     23      -0.6851      2.00000
     24      -0.1484      2.00000
     25       0.1163      2.00000
     26       0.2263      2.00000
     27       0.5693      2.00000
     28       0.8174      2.00000
     29       0.9444      2.00000
     30       1.2102      2.00000
     31       1.4333      2.00000
     32       1.4916      2.00000
     33       2.6201      2.00000
     34       2.7565      2.00000
     35       2.8391      2.00000
     36       2.9083      2.00000
     37       3.0347      2.00000
     38       3.2035      2.00000
     39       3.3267      2.00000
     40       3.6866      2.00000
     41       4.3873      2.00000
     42       4.4350      2.00000
     43       5.7100      0.00000
     44       7.2193      0.00000
     45       7.4860      0.00000
     46       7.7801      0.00000
     47       8.2472      0.00000
     48       9.3241      0.00000
     49       9.6678      0.00000
     50       9.8817      0.00000
     51      10.0726      0.00000
     52      10.2094      0.00000

 k-point     6 :       0.3333    0.1667    0.0000
  band No.  band energies     occupation 
      1     -64.3059      2.00000
      2     -64.2511      2.00000
      3     -64.2511      2.00000
      4     -64.2285      2.00000
      5     -64.2284      2.00000
      6     -64.2218      2.00000
      7     -17.5225      2.00000
      8     -17.5183      2.00000
      9     -17.5181      2.00000
     10     -17.4275      2.00000
     11     -17.4223      2.00000
     12      -9.4206      2.00000
     13      -8.6969      2.00000
     14      -8.5114      2.00000
     15      -8.4320      2.00000
     16      -3.3550      2.00000
     17      -2.5167      2.00000
     18      -2.4656      2.00000
     19      -2.3939      2.00000
     20      -2.3682      2.00000
     21      -2.2612      2.00000
     22      -1.2207      2.00000
     23      -0.8206      2.00000
     24      -0.2789      2.00000
     25       0.0566      2.00000
     26       0.3872      2.00000
     27       0.6239      2.00000
     28       0.8611      2.00000
     29       0.9095      2.00000
     30       1.2358      2.00000
     31       1.4555      2.00000
     32       1.5379      2.00000
     33       2.6771      2.00000
     34       2.7807      2.00000
     35       2.8708      2.00000
     36       2.9233      2.00000
     37       3.0966      2.00000
     38       3.3470      2.00000
     39       3.3878      2.00000
     40       3.6133      2.00000
     41       4.0246      2.00000
     42       4.2742      2.00000
     43       5.9552      0.00000
     44       7.4006      0.00000
     45       7.6774      0.00000
     46       7.9950      0.00000
     47       8.5345      0.00000
     48       9.5402      0.00000
     49       9.8397      0.00000
     50      10.0361      0.00000
     51      10.3015      0.00000
     52      10.5033      0.00000

 k-point     7 :       0.5000    0.1667    0.0000
  band No.  band energies     occupation 
      1     -64.3059      2.00000
      2     -64.2511      2.00000
      3     -64.2511      2.00000
      4     -64.2285      2.00000
      5     -64.2284      2.00000
      6     -64.2218      2.00000
      7     -17.5226      2.00000
      8     -17.5185      2.00000
      9     -17.5181      2.00000
     10     -17.4274      2.00000
     11     -17.4222      2.00000
     12      -9.2833      2.00000
     13      -8.8366      2.00000
     14      -8.5428      2.00000
     15      -8.4125      2.00000
     16      -3.3275      2.00000
     17      -2.5061      2.00000
     18      -2.4623      2.00000
     19      -2.4001      2.00000
     20      -2.3619      2.00000
     21      -2.2823      2.00000
     22      -1.2291      2.00000
     23      -0.8822      2.00000
     24      -0.3651      2.00000
     25      -0.0599      2.00000
     26       0.4462      2.00000
     27       0.6269      2.00000
     28       0.8339      2.00000
     29       0.9900      2.00000
     30       1.2772      2.00000
     31       1.4117      2.00000
     32       1.5951      2.00000
     33       2.7201      2.00000
     34       2.7736      2.00000
     35       2.8387      2.00000
     36       2.8981      2.00000
     37       3.2357      2.00000
     38       3.3381      2.00000
     39       3.5463      2.00000
     40       3.5998      2.00000
     41       3.8657      2.00000
     42       4.0734      2.00000
     43       6.1418      0.00000
     44       7.5941      0.00000
[...]
     24       0.2208      2.00000
     25       0.3953      2.00000
     26       0.3953      2.00000
     27       0.4622      2.00000
     28       0.9292      2.00000
     29       0.9292      2.00000
     30       1.1717      2.00000
     31       1.4012      2.00000
     32       1.4012      2.00000
     33       2.4428      2.00000
     34       2.7224      2.00000
     35       2.7783      2.00000
     36       2.9005      2.00000
     37       3.2768      2.00000
     38       3.3527      2.00000
     39       3.3527      2.00000
     40       3.7544      2.00000
     41       4.0062      2.00000
     42       4.0062      2.00000
     43       6.0297      0.00000
     44       6.8733      0.00000
     45       6.9258      0.00000
     46       6.9258      0.00000
     47       7.6956      0.00000
     48       8.2073      0.00000
     49       8.7712      0.00000
     50       9.0253      0.00000
     51      10.6693      0.00000
     52      10.6693      0.00000

 k-point   120 :       0.0000    0.0000    0.3846
  band No.  band energies     occupation 
      1     -64.3059      2.00000
      2     -64.2510      2.00000
      3     -64.2509      2.00000
      4     -64.2283      2.00000
      5     -64.2283      2.00000
      6     -64.2218      2.00000
      7     -17.5220      2.00000
      8     -17.5177      2.00000
      9     -17.5177      2.00000
     10     -17.4282      2.00000
     11     -17.4225      2.00000
     12      -9.5250      2.00000
     13      -8.8728      2.00000
     14      -8.3380      2.00000
     15      -8.3380      2.00000
     16      -3.5146      2.00000
     17      -2.5103      2.00000
     18      -2.4575      2.00000
     19      -2.4575      2.00000
     20      -2.3713      2.00000
     21      -2.1189      2.00000
     22      -1.3109      2.00000
     23      -0.2219      2.00000
     24       0.2758      2.00000
     25       0.3888      2.00000
     26       0.4262      2.00000
     27       0.4262      2.00000
     28       0.9350      2.00000
     29       0.9350      2.00000
     30       1.1986      2.00000
     31       1.4036      2.00000
     32       1.4036      2.00000
     33       2.4381      2.00000
     34       2.7170      2.00000
     35       2.7610      2.00000
     36       2.8864      2.00000
     37       3.3238      2.00000
     38       3.4051      2.00000
     39       3.4051      2.00000
     40       3.6960      2.00000
     41       3.9285      2.00000
     42       3.9285      2.00000
     43       6.0564      0.00000
     44       6.7904      0.00000
     45       6.7904      0.00000
     46       6.9164      0.00000
     47       7.7524      0.00000
     48       8.1171      0.00000
     49       8.7548      0.00000
     50       8.9309      0.00000
     51      10.8562      0.00000
     52      10.8563      0.00000

 k-point   121 :       0.0000    0.0000    0.4231
  band No.  band energies     occupation 
      1     -64.3060      2.00000
      2     -64.2510      2.00000
      3     -64.2510      2.00000
      4     -64.2284      2.00000
      5     -64.2284      2.00000
      6     -64.2218      2.00000
      7     -17.5221      2.00000
      8     -17.5177      2.00000
      9     -17.5177      2.00000
     10     -17.4282      2.00000
     11     -17.4225      2.00000
     12      -9.4692      2.00000
     13      -8.9415      2.00000
     14      -8.3391      2.00000
     15      -8.3391      2.00000
     16      -3.5184      2.00000
     17      -2.5152      2.00000
     18      -2.4602      2.00000
     19      -2.4602      2.00000
     20      -2.3720      2.00000
     21      -2.0981      2.00000
     22      -1.3264      2.00000
     23      -0.1326      2.00000
     24       0.2731      2.00000
     25       0.3419      2.00000
     26       0.4496      2.00000
     27       0.4496      2.00000
     28       0.9398      2.00000
     29       0.9398      2.00000
     30       1.2261      2.00000
     31       1.4057      2.00000
     32       1.4057      2.00000
     33       2.4341      2.00000
     34       2.7103      2.00000
     35       2.7556      2.00000
     36       2.8671      2.00000
     37       3.3743      2.00000
     38       3.4529      2.00000
     39       3.4529      2.00000
     40       3.6417      2.00000
     41       3.8624      2.00000
     42       3.8624      2.00000
     43       6.0671      0.00000
     44       6.6896      0.00000
     45       6.6896      0.00000
     46       6.9518      0.00000
     47       7.7920      0.00000
     48       8.0542      0.00000
     49       8.7587      0.00000
     50       8.8620      0.00000
     51      11.0311      0.00000
     52      11.0312      0.00000

 k-point   122 :       0.0000    0.0000    0.4615
  band No.  band energies     occupation 
      1     -64.3060      2.00000
      2     -64.2510      2.00000
      3     -64.2510      2.00000
      4     -64.2283      2.00000
      5     -64.2283      2.00000
      6     -64.2218      2.00000
      7     -17.5221      2.00000
      8     -17.5177      2.00000
      9     -17.5177      2.00000
     10     -17.4282      2.00000
     11     -17.4225      2.00000
     12      -9.4257      2.00000
     13      -8.9929      2.00000
     14      -8.3397      2.00000
     15      -8.3397      2.00000
     16      -3.5207      2.00000
     17      -2.5181      2.00000
     18      -2.4619      2.00000
     19      -2.4618      2.00000
     20      -2.3726      2.00000
     21      -2.0852      2.00000
     22      -1.3359      2.00000
     23      -0.0346      2.00000
     24       0.1782      2.00000
     25       0.3620      2.00000
     26       0.4642      2.00000
     27       0.4642      2.00000
     28       0.9431      2.00000
     29       0.9431      2.00000
     30       1.2456      2.00000
     31       1.4070      2.00000
     32       1.4070      2.00000
     33       2.4313      2.00000
     34       2.7051      2.00000
     35       2.7577      2.00000
     36       2.8495      2.00000
     37       3.4209      2.00000
     38       3.4896      2.00000
     39       3.4896      2.00000
     40       3.5949      2.00000
     41       3.8148      2.00000
     42       3.8148      2.00000
     43       6.0699      0.00000
     44       6.6273      0.00000
     45       6.6273      0.00000
     46       6.9756      0.00000
     47       7.8093      0.00000
     48       8.0223      0.00000
     49       8.7674      0.00000
     50       8.8217      0.00000
     51      11.1673      0.00000
     52      11.1788      0.00000

 k-point   123 :       0.0000    0.0000    0.5000
  band No.  band energies     occupation 
      1     -64.3058      2.00000
      2     -64.2510      2.00000
      3     -64.2510      2.00000
      4     -64.2284      2.00000
      5     -64.2284      2.00000
      6     -64.2217      2.00000
      7     -17.5221      2.00000
      8     -17.5177      2.00000
      9     -17.5177      2.00000
     10     -17.4282      2.00000
     11     -17.4225      2.00000
     12      -9.4084      2.00000
     13      -9.0129      2.00000
     14      -8.3400      2.00000
     15      -8.3400      2.00000
     16      -3.5215      2.00000
     17      -2.5191      2.00000
     18      -2.4624      2.00000
     19      -2.4624      2.00000
     20      -2.3729      2.00000
     21      -2.0809      2.00000
     22      -1.3391      2.00000
     23       0.0541      2.00000
     24       0.0882      2.00000
     25       0.3710      2.00000
     26       0.4691      2.00000
     27       0.4691      2.00000
     28       0.9443      2.00000
     29       0.9443      2.00000
     30       1.2526      2.00000
     31       1.4075      2.00000
     32       1.4075      2.00000
     33       2.4304      2.00000
     34       2.7033      2.00000
     35       2.7600      2.00000
     36       2.8419      2.00000
     37       3.4439      2.00000
     38       3.5042      2.00000
     39       3.5042      2.00000
     40       3.5720      2.00000
     41       3.7966      2.00000
     42       3.7966      2.00000
     43       6.0701      0.00000
     44       6.6063      0.00000
     45       6.6063      0.00000
     46       6.9841      0.00000
     47       7.8127      0.00000
     48       8.0138      0.00000
     49       8.7709      0.00000
     50       8.8091      0.00000
     51      11.2218      0.00000
     52      11.2230      0.00000


--------------------------------------------------------------------------------------------------------


 soft charge-density along one line, spin component           1
         0         1         2         3         4         5         6         7         8         9
 total charge-density along one line
 
 pseudopotential strength for first ion, spin component:           1
-68.267  -0.000  -0.000   8.953   0.000   0.000   0.000   0.000
 -0.000 -68.244  -0.000   0.000   8.944   0.000  -0.008   0.000
 -0.000  -0.000 -68.267   0.000   0.000   8.953   0.000  -0.008
  8.953   0.000   0.000   5.745   0.000   0.000  -0.000  -0.000
  0.000   8.944   0.000   0.000   5.747   0.000   0.001  -0.000
  0.000   0.000   8.953   0.000   0.000   5.745  -0.000   0.001
  0.000  -0.008   0.000  -0.000   0.001  -0.000  -7.494  -0.000
  0.000   0.000  -0.008  -0.000  -0.000   0.001  -0.000  -7.480
  0.000   0.000   0.000   0.000  -0.000   0.000  -0.000  -0.000
 -0.008   0.000   0.000   0.001  -0.000  -0.000  -0.000  -0.000
 -0.000  -0.000   0.000   0.000   0.000  -0.000   0.002   0.000
  0.000  -0.008   0.000  -0.000   0.001  -0.000  -8.052  -0.000
  0.000   0.000  -0.008  -0.000  -0.000   0.001  -0.000  -8.038
  0.000   0.000   0.000   0.000  -0.000   0.000  -0.000  -0.000
 -0.008   0.000   0.000   0.001  -0.000  -0.000  -0.000  -0.000
 -0.000  -0.000   0.000   0.000   0.000  -0.000   0.002   0.000
 -0.000  -0.000  -0.000  -0.000  -0.000  -0.000   0.000   0.000
 -0.000  -0.000  -0.000  -0.000  -0.000  -0.000   0.000   0.000
 total augmentation occupancy for first ion, spin component:           1
  2.000   0.000   0.000   0.000   0.000   0.000   0.000   0.000   0.000   0.000   0.000   0.000   0.000   0.000   0.000   0.000
  0.000   2.000   0.000   0.000   0.000   0.000   0.000   0.000   0.000   0.000   0.000   0.000   0.000   0.000   0.000   0.000
  0.000   0.000   2.000   0.000   0.000   0.000   0.000   0.000   0.000   0.000   0.000   0.000   0.000   0.000   0.000   0.000
  0.000   0.000   0.000   0.000   0.000   0.000   0.000   0.000   0.000   0.000   0.000   0.000   0.000   0.000   0.000   0.000
  0.000   0.000   0.000   0.000   0.000   0.000   0.000   0.000   0.000   0.000   0.000   0.000   0.000   0.000   0.000   0.000
  0.000   0.000   0.000   0.000   0.000   0.000   0.000   0.000   0.000   0.000   0.000   0.000   0.000   0.000   0.000   0.000
  0.000   0.000   0.000   0.000   0.000   0.000   2.000   0.000   0.000   0.000   0.000   0.000   0.000   0.000   0.000   0.000
  0.000   0.000   0.000   0.000   0.000   0.000   0.000   2.000   0.000   0.000   0.000   0.000   0.000   0.000   0.000   0.000
  0.000   0.000   0.000   0.000   0.000   0.000   0.000   0.000   2.000   0.000   0.000   0.000   0.000   0.000   0.000   0.000
  0.000   0.000   0.000   0.000   0.000   0.000   0.000   0.000   0.000   2.000   0.000   0.000   0.000   0.000   0.000   0.000
  0.000   0.000   0.000   0.000   0.000   0.000   0.000   0.000   0.000   0.000   2.000   0.000   0.000   0.000   0.000   0.000
  0.000   0.000   0.000   0.000   0.000   0.000   0.000   0.000   0.000   0.000   0.000   0.000   0.000   0.000   0.000   0.000
  0.000   0.000   0.000   0.000   0.000   0.000   0.000   0.000   0.000   0.000   0.000   0.000   0.000   0.000   0.000   0.000
  0.000   0.000   0.000   0.000   0.000   0.000   0.000   0.000   0.000   0.000   0.000   0.000   0.000   0.000   0.000   0.000
  0.000   0.000   0.000   0.000   0.000   0.000   0.000   0.000   0.000   0.000   0.000   0.000   0.000   0.000   0.000   0.000
  0.000   0.000   0.000   0.000   0.000   0.000   0.000   0.000   0.000   0.000   0.000   0.000   0.000   0.000   0.000   0.000
  0.000   0.000   0.000   0.000   0.000   0.000   0.000   0.000   0.000   0.000   0.000   0.000   0.000   0.000   0.000   0.000
  0.000   0.000   0.000   0.000   0.000   0.000   0.000   0.000   0.000   0.000   0.000   0.000   0.000   0.000   0.000   0.000


------------------------ aborting loop because EDIFF is reached ----------------------------------------


 


 total charge     
 
# of ion     s       p       d       tot
----------------------------------------
  1        0.237   6.176   8.954  15.366
  2        0.236   6.173   8.954  15.363
  3        0.532   0.471   9.796  10.799
  4        1.104   1.123  10.112  12.339
  5        1.322   2.360   0.000   3.682
  6        1.322   2.360   0.000   3.682
  7        1.322   2.359   0.000   3.682
  8        1.322   2.359   0.000   3.681
------------------------------------------------
tot        7.396  23.381  37.817  68.593
 
    CHARGE:  cpu time    0.0360: real time    0.0344
    FORLOC:  cpu time    0.0040: real time    0.0023
    FORNL :  cpu time    0.2800: real time    0.2812
    STRESS:  cpu time    0.9121: real time    0.9126
    FORCOR:  cpu time    0.0200: real time    0.0189
    FORHAR:  cpu time    0.0040: real time    0.0050
    OFIELD:  cpu time    0.0000: real time    0.0001

  FORCE on cell =-STRESS in cart. coord.  units (eV):
  Direction    XX          YY          ZZ          XY          YZ          ZX
  --------------------------------------------------------------------------------------
  Alpha Z   275.46753   275.46753   275.46753
  Ewald   -2394.86127 -2394.86127 -2366.21278     0.00000     0.00000     0.00000
  Hartree  1669.45784  1669.45784  1700.25347     0.00000     0.00016     0.00014
  E(xc)    -488.83827  -488.83827  -488.83797    -0.00001     0.00003     0.00003
  Local    -633.41749  -633.41749  -692.96365     0.00036     0.00053     0.00056
  n-local   139.62750   139.70923   140.20822     0.03619    -0.04273     0.07671
  augment   521.06486   521.06486   520.60217    -0.00005    -0.00300    -0.00300
  Kinetic   908.10679   910.38893   909.26184    -0.03294    -0.18973    -0.38886
  Fock        0.00000     0.00000     0.00000     0.00000     0.00000     0.00000
  -------------------------------------------------------------------------------------
  Total      -2.21058    -2.21058    -2.22116     0.00000    -0.00000     0.00000
  in kB     -22.10627   -22.10627   -22.21214     0.00000    -0.00000     0.00000
  external pressure =      -22.14 kB  Pullay stress =        0.00 kB


 VOLUME and BASIS-vectors are now :
 -----------------------------------------------------------------------------
  energy-cutoff  :      500.00
  volume of cell :      160.21
      direct lattice vectors                 reciprocal lattice vectors
     5.435300000  0.000000000  0.000000000     0.183982485  0.000000000 -0.092196841
     0.000000000  5.435300000  0.000000000     0.000000000  0.183982485 -0.092196841
     2.717650000  2.717650000  5.423179281     0.000000000  0.000000000  0.184393683

  length of vectors
     5.435300000  5.435300000  6.646962958     0.205790700  0.205790700  0.184393683


 FORCES acting on ions
    electron-ion (+dipol)            ewald-force                    non-local-force                 convergence-correction
 -----------------------------------------------------------------------------------------------
   -.171E-05 0.112E-05 0.408E-05   0.792E-11 -.246E-11 -.853E-11   0.173E-17 0.434E-18 0.000E+00   -.365E-07 -.759E-07 -.100E-06
   0.215E-05 0.493E-05 0.522E-05   -.757E-11 -.244E-11 0.882E-11   0.000E+00 0.000E+00 0.000E+00   -.461E-07 -.738E-07 -.939E-07
   0.711E-08 -.473E-05 -.200E-05   0.544E-11 -.267E-11 0.605E-11   -.217E-18 -.217E-18 0.000E+00   -.148E-07 0.168E-07 0.512E-08
   0.211E-05 -.236E-05 -.113E-05   -.553E-11 -.253E-11 -.624E-11   -.239E-17 -.239E-17 0.000E+00   -.491E-08 0.124E-07 0.265E-08
   -.632E+02 -.744E+01 0.604E+01   0.613E+02 0.840E+01 -.704E+01   0.157E+01 -.781E+00 0.813E+00   0.213E-02 -.681E-03 0.112E-02
   0.632E+02 0.744E+01 0.604E+01   -.613E+02 -.840E+01 -.704E+01   -.157E+01 0.781E+00 0.813E+00   -.213E-02 0.681E-03 0.112E-02
   0.744E+01 -.632E+02 -.604E+01   -.840E+01 0.613E+02 0.704E+01   0.781E+00 0.157E+01 -.813E+00   0.681E-03 0.213E-02 -.112E-02
   -.744E+01 0.632E+02 -.604E+01   0.840E+01 -.613E+02 0.704E+01   -.781E+00 -.157E+01 -.813E+00   -.681E-03 -.213E-02 -.112E-02
 -----------------------------------------------------------------------------------------------
   -.201E-04 -.187E-04 0.104E-04   -.178E-13 -.711E-14 -.888E-15   0.333E-15 -.222E-15 0.000E+00   -.103E-06 -.121E-06 -.188E-06
 
 
 POSITION                                       TOTAL-FORCE (eV/Angst)
 -----------------------------------------------------------------------------------
      0.00000      0.00000      0.00000        -0.000000      0.000000      0.000000
      5.43530      2.71765      2.71159        -0.000000      0.000000      0.000000
      2.71765      2.71765      0.00000        -0.000000      0.000000      0.000000
      2.71765      5.43530      2.71159        -0.000000      0.000000      0.000000
      1.30213      1.38979      1.32105        -0.371308      0.181567     -0.193086
      4.13317      4.04551      1.32105         0.371308     -0.181567     -0.193086
      6.76316      4.01978      4.10213        -0.181567     -0.371308      0.193086
      4.10744      6.85082      4.10213         0.181567      0.371308      0.193086
 -----------------------------------------------------------------------------------
    total drift:                               -0.000020     -0.000019      0.000010


--------------------------------------------------------------------------------------------------------



  FREE ENERGIE OF THE ION-ELECTRON SYSTEM (eV)
  ---------------------------------------------------
  free  energy   TOTEN  =       -35.77685054 eV

  energy  without entropy=      -35.77685054  energy(sigma->0) =      -35.77685054
 


--------------------------------------------------------------------------------------------------------


    POTLOK:  cpu time    0.0200: real time    0.0189


--------------------------------------------------------------------------------------------------------


 writing wavefunctions
     LOOP+:  cpu time   14.7409: real time   17.2086
    4ORBIT:  cpu time    0.0000: real time    0.0000
 


 total charge     
 
# of ion     s       p       d       tot
----------------------------------------
  1        0.237   6.176   8.954  15.366
  2        0.236   6.173   8.954  15.363
  3        0.532   0.471   9.796  10.799
  4        1.104   1.123  10.112  12.339
  5        1.322   2.360   0.000   3.682
  6        1.322   2.360   0.000   3.682
  7        1.322   2.359   0.000   3.682
  8        1.322   2.359   0.000   3.681
------------------------------------------------
tot        7.396  23.381  37.817  68.593
 

 total amount of memory used by VASP on root node   101378. kBytes
========================================================================

   base      :      30000. kBytes
   nonl-proj :      48831. kBytes
   fftplans  :       1409. kBytes
   grid      :       2789. kBytes
   one-center:         31. kBytes
   wavefun   :      18318. kBytes
 
  
  
 General timing and accounting informations for this job:
 ========================================================
  
                  Total CPU time used (sec):       22.341
                            User time (sec):       17.461
                          System time (sec):        4.880
                         Elapsed time (sec):       26.098
  
                   Maximum memory used (kb):       93596.
                   Average memory used (kb):           0.
  
                          Minor page faults:        23989
                          Major page faults:            0
                 Voluntary context switches:          827
