  96  96   0   0
  0.2080188E+02  0.1257760E-08  0.1245754E-08  0.1274818E-08  0.5000000E-15
  1.000000000000000E-004
  CAR 
 MAPbI3-Cubic                            
      8.89737281    -19.60612706  301      1.43895701      1.00000000
    -19.606  0.0000E+00  0.0000E+00
    -19.511  0.0000E+00  0.0000E+00
    -19.416  0.0000E+00  0.0000E+00
    -19.321  0.0000E+00  0.0000E+00
    -19.226  0.0000E+00  0.0000E+00
    -19.131  0.0000E+00  0.0000E+00
    -19.036  0.0000E+00  0.0000E+00
    -18.941  0.0000E+00  0.0000E+00
    -18.846  0.0000E+00  0.0000E+00
    -18.751  0.0000E+00  0.0000E+00
    -18.656  0.0000E+00  0.0000E+00
    -18.561  0.0000E+00  0.0000E+00
    -18.466  0.0000E+00  0.0000E+00
    -18.371  0.0000E+00  0.0000E+00
    -18.276  0.0000E+00  0.1600E+02
    -18.181  0.0000E+00  0.1600E+02
    -18.086  0.0000E+00  0.1600E+02
    -17.991  0.0000E+00  0.1600E+02
    -17.896  0.0000E+00  0.1600E+02
    -17.801  0.0000E+00  0.1600E+02
    -17.706  0.0000E+00  0.1600E+02
    -17.611  0.0000E+00  0.1600E+02
    -17.516  0.0000E+00  0.1600E+02
    -17.421  0.0000E+00  0.1600E+02
    -17.326  0.0000E+00  0.1600E+02
    -17.231  0.0000E+00  0.1600E+02
    -17.136  0.0000E+00  0.1600E+02
    -17.041  0.0000E+00  0.1600E+02
    -16.946  0.0000E+00  0.1600E+02
    -16.851  0.0000E+00  0.1600E+02
    -16.756  0.0000E+00  0.1600E+02
    -16.661  0.0000E+00  0.1600E+02
    -16.566  0.0000E+00  0.1600E+02
    -16.471  0.0000E+00  0.1600E+02
    -16.376  0.0000E+00  0.1600E+02
    -16.281  0.0000E+00  0.1600E+02
    -16.186  0.0000E+00  0.1600E+02
    -16.091  0.0000E+00  0.1600E+02
    -15.996  0.0000E+00  0.1600E+02
    -15.901  0.0000E+00  0.1600E+02
    -15.806  0.0000E+00  0.1600E+02
    -15.711  0.0000E+00  0.1600E+02
    -15.616  0.0000E+00  0.1600E+02
    -15.521  0.0000E+00  0.1600E+02
    -15.426  0.0000E+00  0.1600E+02
    -15.331  0.0000E+00  0.1600E+02
    -15.236  0.0000E+00  0.1600E+02
    -15.141  0.0000E+00  0.1600E+02
    -15.046  0.6580E+02  0.4796E+02
    -14.951  0.0000E+00  0.9600E+02
    -14.856  0.0000E+00  0.9600E+02
    -14.761  0.0000E+00  0.9600E+02
    -14.666  0.0000E+00  0.9600E+02
    -14.571  0.0000E+00  0.9600E+02
    -14.475  0.0000E+00  0.9600E+02
    -14.380  0.0000E+00  0.9600E+02
    -14.285  0.0000E+00  0.9600E+02
    -14.190  0.0000E+00  0.9600E+02
    -14.095  0.0000E+00  0.9600E+02
    -14.000  0.0000E+00  0.9600E+02
    -13.905  0.0000E+00  0.9600E+02
    -13.810  0.0000E+00  0.9600E+02
    -13.715  0.0000E+00  0.9600E+02
    -13.620  0.0000E+00  0.9600E+02
    -13.525  0.0000E+00  0.9600E+02
    -13.430  0.0000E+00  0.9600E+02
    -13.335  0.0000E+00  0.9600E+02
    -13.240  0.0000E+00  0.9600E+02
    -13.145  0.0000E+00  0.9600E+02
    -13.050  0.0000E+00  0.9600E+02
    -12.955  0.0000E+00  0.9600E+02
    -12.860  0.0000E+00  0.9600E+02
    -12.765  0.0000E+00  0.9600E+02
    -12.670  0.0000E+00  0.9600E+02
    -12.575  0.0000E+00  0.9600E+02
    -12.480  0.0000E+00  0.9600E+02
    -12.385  0.0000E+00  0.9600E+02
    -12.290  0.0000E+00  0.9600E+02
    -12.195  0.0000E+00  0.9600E+02
    -12.100  0.0000E+00  0.9600E+02
    -12.005  0.0000E+00  0.9600E+02
    -11.910  0.0000E+00  0.9600E+02
    -11.815  0.0000E+00  0.9600E+02
    -11.720  0.0000E+00  0.9600E+02
    -11.625  0.0000E+00  0.9600E+02
    -11.530  0.0000E+00  0.9600E+02
    -11.435  0.0000E+00  0.9600E+02
    -11.340  0.1728E+02  0.1053E+03
    -11.245  0.0000E+00  0.1120E+03
    -11.150  0.0000E+00  0.1120E+03
    -11.055  0.0000E+00  0.1120E+03
    -10.960  0.0000E+00  0.1120E+03
    -10.865  0.0000E+00  0.1120E+03
    -10.770  0.3826E+01  0.1129E+03
    -10.675  0.4065E+01  0.1154E+03
    -10.580  0.2339E+01  0.1209E+03
    -10.485  0.5452E+01  0.1269E+03
    -10.390  0.0000E+00  0.1291E+03
    -10.295  0.1910E+01  0.1361E+03
    -10.200  0.9175E+01  0.1412E+03
    -10.105  0.0000E+00  0.1442E+03
    -10.010  0.4280E+01  0.1535E+03
     -9.915  0.3131E+01  0.1594E+03
     -9.820  0.0000E+00  0.1600E+03
     -9.725  0.0000E+00  0.1600E+03
     -9.630  0.0000E+00  0.1600E+03
     -9.535  0.0000E+00  0.1600E+03
     -9.440  0.0000E+00  0.1600E+03
     -9.345  0.0000E+00  0.1600E+03
     -9.250  0.0000E+00  0.1600E+03
     -9.155  0.0000E+00  0.1600E+03
     -9.060  0.0000E+00  0.1600E+03
     -8.965  0.0000E+00  0.1600E+03
     -8.870  0.0000E+00  0.1600E+03
     -8.775  0.0000E+00  0.1600E+03
     -8.680  0.0000E+00  0.1600E+03
     -8.585  0.0000E+00  0.1600E+03
     -8.490  0.0000E+00  0.1600E+03
     -8.395  0.0000E+00  0.1600E+03
     -8.300  0.0000E+00  0.1600E+03
     -8.205  0.0000E+00  0.1600E+03
     -8.110  0.0000E+00  0.1600E+03
     -8.015  0.0000E+00  0.1600E+03
     -7.920  0.0000E+00  0.1600E+03
     -7.825  0.0000E+00  0.1600E+03
     -7.730  0.2905E+02  0.1722E+03
     -7.635  0.0000E+00  0.1920E+03
     -7.540  0.0000E+00  0.1920E+03
     -7.445  0.0000E+00  0.1920E+03
     -7.350  0.0000E+00  0.1920E+03
     -7.255  0.0000E+00  0.1920E+03
     -7.160  0.0000E+00  0.1920E+03
     -7.065  0.0000E+00  0.1920E+03
     -6.970  0.0000E+00  0.1921E+03
     -6.875  0.0000E+00  0.1925E+03
     -6.780  0.0000E+00  0.1934E+03
     -6.685  0.3118E+01  0.1937E+03
     -6.590  0.0000E+00  0.1944E+03
     -6.495  0.1507E+01  0.1961E+03
     -6.400  0.3119E+01  0.1979E+03
     -6.304  0.0000E+00  0.1991E+03
     -6.209  0.1559E+01  0.2009E+03
     -6.114  0.0000E+00  0.2031E+03
     -6.019  0.3119E+01  0.2044E+03
     -5.924  0.1779E+01  0.2059E+03
     -5.829  0.1247E+02  0.2110E+03
     -5.734  0.0000E+00  0.2226E+03
     -5.639  0.0000E+00  0.2235E+03
     -5.544  0.8188E-03  0.2236E+03
     -5.449  0.0000E+00  0.2239E+03
     -5.354  0.0000E+00  0.2240E+03
     -5.259  0.0000E+00  0.2240E+03
     -5.164  0.0000E+00  0.2240E+03
     -5.069  0.0000E+00  0.2240E+03
     -4.974  0.0000E+00  0.2240E+03
     -4.879  0.0000E+00  0.2240E+03
     -4.784  0.0000E+00  0.2240E+03
     -4.689  0.0000E+00  0.2240E+03
     -4.594  0.0000E+00  0.2240E+03
     -4.499  0.0000E+00  0.2240E+03
     -4.404  0.0000E+00  0.2240E+03
     -4.309  0.0000E+00  0.2240E+03
     -4.214  0.0000E+00  0.2240E+03
     -4.119  0.0000E+00  0.2240E+03
     -4.024  0.0000E+00  0.2240E+03
     -3.929  0.0000E+00  0.2240E+03
     -3.834  0.0000E+00  0.2240E+03
     -3.739  0.0000E+00  0.2240E+03
     -3.644  0.0000E+00  0.2240E+03
     -3.549  0.2096E+02  0.2401E+03
     -3.454  0.0000E+00  0.2560E+03
     -3.359  0.0000E+00  0.2560E+03
     -3.264  0.0000E+00  0.2560E+03
     -3.169  0.0000E+00  0.2560E+03
     -3.074  0.0000E+00  0.2560E+03
     -2.979  0.0000E+00  0.2560E+03
     -2.884  0.0000E+00  0.2560E+03
     -2.789  0.0000E+00  0.2560E+03
     -2.694  0.0000E+00  0.2560E+03
     -2.599  0.0000E+00  0.2560E+03
     -2.504  0.0000E+00  0.2560E+03
     -2.409  0.0000E+00  0.2560E+03
     -2.314  0.0000E+00  0.2560E+03
     -2.219  0.0000E+00  0.2560E+03
     -2.124  0.2630E-10  0.2560E+03
     -2.029  0.3119E+01  0.2584E+03
     -1.934  0.3119E+01  0.2615E+03
     -1.839  0.2621E-05  0.2635E+03
     -1.744  0.0000E+00  0.2659E+03
     -1.649  0.3119E+01  0.2684E+03
     -1.554  0.7796E+01  0.2724E+03
     -1.459  0.6237E+01  0.2756E+03
     -1.364  0.1559E+01  0.2787E+03
     -1.269  0.0000E+00  0.2796E+03
     -1.174  0.0000E+00  0.2800E+03
     -1.079  0.0000E+00  0.2800E+03
     -0.984  0.1833E-06  0.2807E+03
     -0.889  0.1212E+02  0.2850E+03
     -0.794  0.7663E+01  0.2913E+03
     -0.699  0.1572E+01  0.2962E+03
     -0.604  0.9217E+01  0.3022E+03
     -0.509  0.9319E+01  0.3057E+03
     -0.414  0.5960E+01  0.3086E+03
     -0.319  0.1559E+01  0.3138E+03
     -0.224  0.1559E+01  0.3199E+03
     -0.129  0.4657E+01  0.3272E+03
     -0.034  0.3985E+00  0.3328E+03
      0.061  0.3874E+01  0.3388E+03
      0.156  0.8474E+01  0.3475E+03
      0.251  0.6254E+01  0.3560E+03
      0.346  0.1274E+02  0.3628E+03
      0.441  0.1478E+02  0.3704E+03
      0.536  0.1007E+02  0.3804E+03
      0.631  0.2019E+01  0.3860E+03
      0.726  0.5818E+01  0.3916E+03
      0.821  0.6237E+01  0.3956E+03
      0.916  0.3119E+01  0.3975E+03
      1.011  0.1663E-01  0.3987E+03
      1.106  0.0000E+00  0.3993E+03
      1.201  0.5296E+00  0.3996E+03
      1.296  0.0000E+00  0.3999E+03
      1.391  0.0000E+00  0.3999E+03
      1.486  0.0000E+00  0.4000E+03
      1.581  0.0000E+00  0.4000E+03
      1.676  0.0000E+00  0.4000E+03
      1.771  0.0000E+00  0.4000E+03
      1.867  0.0000E+00  0.4000E+03
      1.962  0.0000E+00  0.4000E+03
      2.057  0.0000E+00  0.4000E+03
      2.152  0.0000E+00  0.4000E+03
      2.247  0.0000E+00  0.4000E+03
      2.342  0.0000E+00  0.4000E+03
      2.437  0.0000E+00  0.4000E+03
      2.532  0.0000E+00  0.4000E+03
      2.627  0.0000E+00  0.4000E+03
      2.722  0.0000E+00  0.4000E+03
      2.817  0.0000E+00  0.4000E+03
      2.912  0.0000E+00  0.4000E+03
      3.007  0.1547E+01  0.4004E+03
      3.102  0.0000E+00  0.4007E+03
      3.197  0.2892E-08  0.4013E+03
      3.292  0.0000E+00  0.4029E+03
      3.387  0.1502E+01  0.4038E+03
      3.482  0.0000E+00  0.4056E+03
      3.577  0.1392E-06  0.4066E+03
      3.672  0.0000E+00  0.4077E+03
      3.767  0.0000E+00  0.4083E+03
      3.862  0.0000E+00  0.4090E+03
      3.957  0.1549E+01  0.4098E+03
      4.052  0.0000E+00  0.4108E+03
      4.147  0.1559E+01  0.4130E+03
      4.242  0.0000E+00  0.4150E+03
      4.337  0.2504E-05  0.4166E+03
      4.432  0.0000E+00  0.4196E+03
      4.527  0.9204E+00  0.4226E+03
      4.622  0.2599E+00  0.4233E+03
      4.717  0.0000E+00  0.4239E+03
      4.812  0.0000E+00  0.4240E+03
      4.907  0.0000E+00  0.4240E+03
      5.002  0.0000E+00  0.4241E+03
      5.097  0.1559E+01  0.4242E+03
      5.192  0.0000E+00  0.4245E+03
      5.287  0.0000E+00  0.4260E+03
      5.382  0.1552E+01  0.4280E+03
      5.477  0.4678E+01  0.4305E+03
      5.572  0.4793E+01  0.4351E+03
      5.667  0.2214E-08  0.4379E+03
      5.762  0.2597E+01  0.4402E+03
      5.857  0.0000E+00  0.4421E+03
      5.952  0.4678E+01  0.4454E+03
      6.047  0.3971E-04  0.4486E+03
      6.142  0.6161E+01  0.4521E+03
      6.237  0.6237E+01  0.4580E+03
      6.332  0.4465E+01  0.4606E+03
      6.427  0.1559E+01  0.4636E+03
      6.522  0.7796E+01  0.4701E+03
      6.617  0.0000E+00  0.4744E+03
      6.712  0.3591E+01  0.4786E+03
      6.807  0.2559E+01  0.4815E+03
      6.902  0.5086E+00  0.4850E+03
      6.997  0.0000E+00  0.4897E+03
      7.092  0.7796E+01  0.4933E+03
      7.187  0.2339E+01  0.4979E+03
      7.282  0.3397E+01  0.5016E+03
      7.377  0.3119E+01  0.5053E+03
      7.472  0.0000E+00  0.5094E+03
      7.567  0.1582E+01  0.5116E+03
      7.662  0.0000E+00  0.5120E+03
      7.757  0.0000E+00  0.5120E+03
      7.852  0.0000E+00  0.5120E+03
      7.947  0.0000E+00  0.5120E+03
      8.042  0.0000E+00  0.5120E+03
      8.137  0.0000E+00  0.5120E+03
      8.232  0.0000E+00  0.5120E+03
      8.327  0.0000E+00  0.5120E+03
      8.422  0.0000E+00  0.5120E+03
      8.517  0.0000E+00  0.5120E+03
      8.612  0.0000E+00  0.5120E+03
      8.707  0.0000E+00  0.5120E+03
      8.802  0.0000E+00  0.5120E+03
      8.897  0.0000E+00  0.5120E+03
