       N       E                     dE             d eps       ncg     rms          rms(c)
DAV:   1     0.360346018563E+04    0.36035E+04   -0.18949E+05  7176   0.170E+03
DAV:   2     0.198235516462E+03   -0.34052E+04   -0.32095E+04  8008   0.355E+02
DAV:   3    -0.398840780619E+03   -0.59708E+03   -0.58822E+03  9472   0.172E+02
DAV:   4    -0.438732598219E+03   -0.39892E+02   -0.39719E+02  9616   0.488E+01
DAV:   5    -0.440231373620E+03   -0.14988E+01   -0.14966E+01  9776   0.918E+00    0.298E+01
DAV:   6    -0.419539651686E+03    0.20692E+02   -0.41936E+01  9440   0.103E+01    0.158E+01
DAV:   7    -0.417053739350E+03    0.24859E+01   -0.14588E+01 10240   0.636E+00    0.783E+00
DAV:   8    -0.416881381462E+03    0.17236E+00   -0.30059E+00  8600   0.315E+00    0.181E+00
DAV:   9    -0.416812025720E+03    0.69356E-01   -0.73613E-01  9400   0.173E+00    0.729E-01
DAV:  10    -0.416823419046E+03   -0.11393E-01   -0.10288E-01  8992   0.567E-01    0.438E-01
DAV:  11    -0.416823603448E+03   -0.18440E-03   -0.12308E-02  9880   0.260E-01    0.194E-01
DAV:  12    -0.416825005547E+03   -0.14021E-02   -0.89031E-03  9736   0.150E-01    0.105E-01
DAV:  13    -0.416825140231E+03   -0.13468E-03   -0.13273E-03  8496   0.752E-02    0.703E-02
DAV:  14    -0.416825180975E+03   -0.40744E-04   -0.27502E-04  8528   0.289E-02    0.291E-02
DAV:  15    -0.416825224371E+03   -0.43396E-04   -0.13729E-04  8096   0.193E-02    0.115E-02
DAV:  16    -0.416825228196E+03   -0.38254E-05   -0.13770E-05 10760   0.714E-03    0.117E-02
DAV:  17    -0.416825228062E+03    0.13362E-06   -0.44455E-06  8128   0.370E-03    0.478E-03
DAV:  18    -0.416825228088E+03   -0.25837E-07   -0.75508E-06 10408   0.428E-03    0.377E-03
DAV:  19    -0.416825228032E+03    0.56167E-07   -0.74047E-07  8232   0.201E-03    0.216E-03
DAV:  20    -0.416825228054E+03   -0.22243E-07   -0.40610E-07  9488   0.985E-04    0.458E-04
DAV:  21    -0.416825228083E+03   -0.28998E-07   -0.35308E-08  8720   0.390E-04    0.359E-04
DAV:  22    -0.416825228077E+03    0.57116E-08   -0.81825E-09  7904   0.214E-04    0.248E-04
DAV:  23    -0.416825228083E+03   -0.52642E-08   -0.15634E-09  9480   0.121E-04    0.254E-04
DAV:  24    -0.416825228082E+03    0.10150E-08    0.83596E-10  7592   0.591E-05    0.225E-04
DAV:  25    -0.416825228078E+03    0.35507E-08    0.18676E-09  6480   0.534E-05    0.222E-04
DAV:  26    -0.416825228079E+03   -0.84401E-09    0.20319E-09  5480   0.321E-05    0.219E-04
DAV:  27    -0.416825228080E+03   -0.10441E-08    0.16724E-09  4576   0.283E-05    0.215E-04
DAV:  28    -0.416825228081E+03   -0.86220E-09    0.18769E-09  4216   0.232E-05    0.215E-04
DAV:  29    -0.416825228081E+03   -0.21828E-10    0.18399E-09  4208   0.169E-05    0.215E-04
DAV:  30    -0.416825228081E+03    0.47294E-10    0.13938E-09  4208   0.837E-06    0.215E-04
DAV:  31    -0.416825228081E+03   -0.30923E-09    0.13876E-09  4208   0.549E-06    0.215E-04
DAV:  32    -0.416825228081E+03    0.65120E-09    0.13434E-09  4208   0.408E-06    0.215E-04
DAV:  33    -0.416825228081E+03   -0.24011E-09    0.88272E-10  4208   0.393E-06    0.215E-04
DAV:  34    -0.416825228081E+03   -0.10550E-09    0.11283E-09  4184   0.241E-06    0.215E-04
DAV:  35    -0.416825228081E+03   -0.65484E-10    0.10650E-09  4144   0.201E-06    0.215E-04
DAV:  36    -0.416825228081E+03    0.26557E-09    0.10174E-09  4096   0.110E-06    0.215E-04
DAV:  37    -0.416825228081E+03   -0.19281E-09    0.10085E-09  4072   0.830E-07    0.215E-04
DAV:  38    -0.416825228081E+03    0.15643E-09    0.10441E-09  4048   0.550E-07    0.215E-04
DAV:  39    -0.416825228081E+03   -0.54570E-10    0.10250E-09  4040   0.453E-07    0.215E-04
DAV:  40    -0.416825228081E+03    0.32742E-10    0.10102E-09  4008   0.123E-06    0.215E-04
DAV:  41    -0.416825228081E+03   -0.11278E-09    0.76770E-10  3976   0.670E-07    0.215E-04
DAV:  42    -0.416825228081E+03   -0.11642E-09    0.80979E-10  3952   0.494E-07    0.215E-04
DAV:  43    -0.416825228081E+03    0.28376E-09    0.80204E-10  3928   0.321E-07    0.215E-04
DAV:  44    -0.416825228081E+03   -0.27285E-09    0.86833E-10  3920   0.897E-07    0.215E-04
DAV:  45    -0.416825228081E+03    0.31650E-09    0.10274E-09  3920   0.503E-07    0.215E-04
DAV:  46    -0.416825228081E+03   -0.28740E-09    0.10604E-09  3920   0.342E-07    0.215E-04
DAV:  47    -0.416825228081E+03    0.83674E-10    0.10780E-09  3920   0.170E-07    0.215E-04
DAV:  48    -0.416825228081E+03    0.27285E-09    0.10761E-09  3920   0.113E-07    0.215E-04
DAV:  49    -0.416825228081E+03   -0.42201E-09    0.10554E-09  3920   0.120E-07    0.215E-04
DAV:  50    -0.416825228081E+03   -0.76398E-10    0.10598E-09  3920   0.117E-06    0.215E-04
DAV:  51    -0.416825228081E+03    0.20373E-09    0.98324E-10  3920   0.381E-07    0.215E-04
DAV:  52    -0.416825228081E+03   -0.72760E-10    0.96293E-10  3920   0.350E-07
   1 F= -.41682523E+03 E0= -.41682523E+03  d E =0.000000E+00
