 vasp.5.4.1 24Jun15 (build Nov 25 2015 16:01:35) complex                        
  
 executed on         CrayXC-Intel date 2016.07.12  03:58:47
 running on   96 total cores
 distrk:  each k-point on   24 cores,    4 groups
 distr:  one band on NCORES_PER_BAND=   3 cores,    8 groups


--------------------------------------------------------------------------------------------------------


 INCAR:
 POTCAR:    PAW_PBE C 08Apr2002                   
 POTCAR:    PAW_PBE N 08Apr2002                   
 POTCAR:    PAW_PBE H 15Jun2001                   
 POTCAR:    PAW_PBE Pb_d 06Sep2000                
 POTCAR:    PAW_PBE I 08Apr2002                   

 ----------------------------------------------------------------------------- 
|                                                                             |
|           W    W    AA    RRRRR   N    N  II  N    N   GGGG   !!!           |
|           W    W   A  A   R    R  NN   N  II  NN   N  G    G  !!!           |
|           W    W  A    A  R    R  N N  N  II  N N  N  G       !!!           |
|           W WW W  AAAAAA  RRRRR   N  N N  II  N  N N  G  GGG   !            |
|           WW  WW  A    A  R   R   N   NN  II  N   NN  G    G                |
|           W    W  A    A  R    R  N    N  II  N    N   GGGG   !!!           |
|                                                                             |
|      For optimal performance we recommend to set                            |
|        NCORE= 4 - approx SQRT( number of cores)                             |
|      NCORE specifies how many cores store one orbital (NPAR=cpu/NCORE).     |
|      This setting can  greatly improve the performance of VASP for DFT.     |
|      The default, NPAR=number of cores might be grossly inefficient         |
|      on modern multi-core architectures or massively parallel machines.     |
|      Do your own testing !!!!                                               |
|      Unfortunately you need to use the default for GW and RPA calculations. |
|      (for HF NCORE is supported but not extensively tested yet)             |
|                                                                             |
 ----------------------------------------------------------------------------- 


 ----------------------------------------------------------------------------- 
|                                                                             |
|           W    W    AA    RRRRR   N    N  II  N    N   GGGG   !!!           |
|           W    W   A  A   R    R  NN   N  II  NN   N  G    G  !!!           |
|           W    W  A    A  R    R  N N  N  II  N N  N  G       !!!           |
|           W WW W  AAAAAA  RRRRR   N  N N  II  N  N N  G  GGG   !            |
|           WW  WW  A    A  R   R   N   NN  II  N   NN  G    G                |
|           W    W  A    A  R    R  N    N  II  N    N   GGGG   !!!           |
|                                                                             |
|      You have enabled k-point parallelism (KPAR>1).                         |
|      This developmental code was originally  written by Paul Kent at ORNL,  |
|      and carefully double checked in Vienna.                                |
|      GW as well as linear response parallelism added by Martijn Marsman     |
|      and Georg Kresse.                                                      |
|      Carefully verify results versus KPAR=1.                                |
|      Report problems to Paul Kent and Vienna.                               |
|                                                                             |
 ----------------------------------------------------------------------------- 

 POTCAR:    PAW_PBE C 08Apr2002                   
   VRHFIN =C: s2p2                                                              
   LEXCH  = PE                                                                  
   EATOM  =   147.1560 eV,   10.8157 Ry                                         
                                                                                
   TITEL  = PAW_PBE C 08Apr2002                                                 
   LULTRA =        F    use ultrasoft PP ?                                      
   IUNSCR =        1    unscreen: 0-lin 1-nonlin 2-no                           
   RPACOR =    1.200    partial core radius                                     
   POMASS =   12.011; ZVAL   =    4.000    mass and valenz                      
   RCORE  =    1.500    outmost cutoff radius                                   
   RWIGS  =    1.630; RWIGS  =    0.863    wigner-seitz radius (au A)           
   ENMAX  =  400.000; ENMIN  =  300.000 eV                                      
   ICORE  =        2    local potential                                         
   LCOR   =        T    correct aug charges                                     
   LPAW   =        T    paw PP                                                  
   EAUG   =  644.873                                                            
   DEXC   =    0.000                                                            
   RMAX   =    1.529    core radius for proj-oper                               
   RAUG   =    1.300    factor for augmentation sphere                          
   RDEP   =    1.501    radius for radial grids                                 
   RDEPT  =    1.300    core radius for aug-charge                              
                                                                                
   Atomic configuration                                                         
    4 entries                                                                   
     n  l   j            E        occ.                                          
     1  0  0.50      -273.3789   2.0000                                         
     2  0  0.50       -13.7508   2.0000                                         
     2  1  0.50        -5.2854   2.0000                                         
     3  2  1.50        -5.4423   0.0000                                         
   Description                                                                  
     l       E           TYP  RCUT    TYP  RCUT                                 
     0    -13.7508458     23  1.200                                             
     0     -8.2022199     23  1.200                                             
     1     -5.2854383     23  1.500                                             
     1     34.0145650     23  1.500                                             
     2     -5.4423304      7  1.500                                             
  local pseudopotential read in
  partial core-charges read in
  partial kinetic energy density read in
  atomic valenz-charges read in
  non local Contribution for L=           0  read in
    real space projection operators read in
  non local Contribution for L=           0  read in
    real space projection operators read in
  non local Contribution for L=           1  read in
    real space projection operators read in
  non local Contribution for L=           1  read in
    real space projection operators read in
    PAW grid and wavefunctions read in
 
   number of l-projection  operators is LMAX  =           4
   number of lm-projection operators is LMMAX =           8
 
 POTCAR:    PAW_PBE N 08Apr2002                   
   VRHFIN =N: s2p3                                                              
   LEXCH  = PE                                                                  
   EATOM  =   264.5486 eV,   19.4438 Ry                                         
                                                                                
   TITEL  = PAW_PBE N 08Apr2002                                                 
   LULTRA =        F    use ultrasoft PP ?                                      
   IUNSCR =        1    unscreen: 0-lin 1-nonlin 2-no                           
   RPACOR =    1.200    partial core radius                                     
   POMASS =   14.001; ZVAL   =    5.000    mass and valenz                      
   RCORE  =    1.500    outmost cutoff radius                                   
   RWIGS  =    1.400; RWIGS  =    0.741    wigner-seitz radius (au A)           
   ENMAX  =  400.000; ENMIN  =  300.000 eV                                      
   ICORE  =        2    local potential                                         
   LCOR   =        T    correct aug charges                                     
   LPAW   =        T    paw PP                                                  
   EAUG   =  627.112                                                            
   DEXC   =    0.000                                                            
   RMAX   =    1.529    core radius for proj-oper                               
   RAUG   =    1.300    factor for augmentation sphere                          
   RDEP   =    1.514    radius for radial grids                                 
   RDEPT  =    1.338    core radius for aug-charge                              
                                                                                
   Atomic configuration                                                         
    4 entries                                                                   
     n  l   j            E        occ.                                          
     1  0  0.50      -384.7179   2.0000                                         
     2  0  0.50       -18.5828   2.0000                                         
     2  1  0.50        -7.0898   3.0000                                         
     3  2  1.50        -6.8029   0.0000                                         
   Description                                                                  
     l       E           TYP  RCUT    TYP  RCUT                                 
     0    -18.5828119     23  1.200                                             
     0    -13.5018863     23  1.200                                             
     1     -7.0897853     23  1.500                                             
     1      9.5240782     23  1.500                                             
     2     -6.8029130      7  1.500                                             
  local pseudopotential read in
  partial core-charges read in
  partial kinetic energy density read in
  atomic valenz-charges read in
  non local Contribution for L=           0  read in
    real space projection operators read in
  non local Contribution for L=           0  read in
    real space projection operators read in
  non local Contribution for L=           1  read in
    real space projection operators read in
  non local Contribution for L=           1  read in
    real space projection operators read in
    PAW grid and wavefunctions read in
 
   number of l-projection  operators is LMAX  =           4
   number of lm-projection operators is LMMAX =           8
 
 POTCAR:    PAW_PBE H 15Jun2001                   
   VRHFIN =H: ultrasoft test                                                    
   LEXCH  = PE                                                                  
   EATOM  =    12.4884 eV,    0.9179 Ry                                         
                                                                                
   TITEL  = PAW_PBE H 15Jun2001                                                 
   LULTRA =        F    use ultrasoft PP ?                                      
   IUNSCR =        0    unscreen: 0-lin 1-nonlin 2-no                           
   RPACOR =    0.000    partial core radius                                     
   POMASS =    1.000; ZVAL   =    1.000    mass and valenz                      
   RCORE  =    1.100    outmost cutoff radius                                   
   RWIGS  =    0.700; RWIGS  =    0.370    wigner-seitz radius (au A)           
   ENMAX  =  250.000; ENMIN  =  200.000 eV                                      
   RCLOC  =    0.701    cutoff for local pot                                    
   LCOR   =        T    correct aug charges                                     
   LPAW   =        T    paw PP                                                  
   EAUG   =  400.000                                                            
   RMAX   =    1.123    core radius for proj-oper                               
   RAUG   =    1.200    factor for augmentation sphere                          
   RDEP   =    1.112    radius for radial grids                                 
   RDEPT  =    0.926    core radius for aug-charge                              
                                                                                
   Atomic configuration                                                         
    2 entries                                                                   
     n  l   j            E        occ.                                          
     1  0  0.50        -6.4927   1.0000                                         
     2  1  0.50        -3.4015   0.0000                                         
   Description                                                                  
     l       E           TYP  RCUT    TYP  RCUT                                 
     0     -6.4927494     23  1.100                                             
     0      6.8029130     23  1.100                                             
     1     -4.0817478     23  1.100                                             
  local pseudopotential read in
  atomic valenz-charges read in
  non local Contribution for L=           0  read in
    real space projection operators read in
  non local Contribution for L=           0  read in
    real space projection operators read in
  non local Contribution for L=           1  read in
    real space projection operators read in
    PAW grid and wavefunctions read in
 
   number of l-projection  operators is LMAX  =           3
   number of lm-projection operators is LMMAX =           5
 
 POTCAR:    PAW_PBE Pb_d 06Sep2000                
   VRHFIN =Pb:                                                                  
   LEXCH  = PE                                                                  
   EATOM  =  1661.6185 eV,  122.1255 Ry                                         
                                                                                
   TITEL  = PAW_PBE Pb_d 06Sep2000                                              
   LULTRA =        F    use ultrasoft PP ?                                      
   IUNSCR =        1    unscreen: 0-lin 1-nonlin 2-no                           
   RPACOR =    2.200    partial core radius                                     
   POMASS =  207.200; ZVAL   =   14.000    mass and valenz                      
   RCORE  =    2.500    outmost cutoff radius                                   
   RWIGS  =    3.260; RWIGS  =    1.725    wigner-seitz radius (au A)           
   ENMAX  =  237.835; ENMIN  =  178.376 eV                                      
   ICORE  =        3    local potential                                         
   LCOR   =        T    correct aug charges                                     
   LPAW   =        T    paw PP                                                  
   EAUG   =  391.914                                                            
   DEXC   =    0.000                                                            
   RMAX   =    2.565    core radius for proj-oper                               
   RAUG   =    1.300    factor for augmentation sphere                          
   RDEP   =    2.643    radius for radial grids                                 
   RDEPT  =    2.092    core radius for aug-charge                              
                                                                                
   Atomic configuration                                                         
   16 entries                                                                   
     n  l   j            E        occ.                                          
     1  0  0.50    -88091.8466   2.0000                                         
     2  0  0.50    -15753.4197   2.0000                                         
     2  1  1.50    -13508.1797   6.0000                                         
     3  0  0.50     -3781.7194   2.0000                                         
     3  1  1.50     -3138.2529   6.0000                                         
     3  2  2.50     -2483.2977  10.0000                                         
     4  0  0.50      -856.2895   2.0000                                         
     4  1  1.50      -645.4942   6.0000                                         
     4  2  2.50      -401.8768  10.0000                                         
     4  3  3.50      -132.9059  14.0000                                         
     5  0  0.50      -144.0950   2.0000                                         
     5  1  1.50       -85.7879   6.0000                                         
     5  2  2.50       -21.1769  10.0000                                         
     6  0  0.50       -12.0372   2.0000                                         
     6  1  1.50        -3.4971   2.0000                                         
     5  3  2.50        -2.7212   0.0000                                         
   Description                                                                  
     l       E           TYP  RCUT    TYP  RCUT                                 
     2    -21.1768523     23  2.500                                             
     2      1.3605826     23  2.500                                             
     0    -12.0371562     23  2.500                                             
     0     13.6058260     23  2.500                                             
     1     -3.4971339     23  2.500                                             
     1     13.6058260     23  2.500                                             
     3     -1.3605826      7  2.500                                             
  local pseudopotential read in
  partial core-charges read in
  partial kinetic energy density read in
  atomic valenz-charges read in
  non local Contribution for L=           2  read in
    real space projection operators read in
  non local Contribution for L=           2  read in
    real space projection operators read in
  non local Contribution for L=           0  read in
    real space projection operators read in
  non local Contribution for L=           0  read in
    real space projection operators read in
  non local Contribution for L=           1  read in
    real space projection operators read in
  non local Contribution for L=           1  read in
    real space projection operators read in
    PAW grid and wavefunctions read in
 
   number of l-projection  operators is LMAX  =           6
   number of lm-projection operators is LMMAX =          18
 
 POTCAR:    PAW_PBE I 08Apr2002                   
   VRHFIN =I : s2p5                                                             
   LEXCH  = PE                                                                  
   EATOM  =   315.8678 eV,   23.2156 Ry                                         
                                                                                
   TITEL  = PAW_PBE I 08Apr2002                                                 
   LULTRA =        F    use ultrasoft PP ?                                      
   IUNSCR =        1    unscreen: 0-lin 1-nonlin 2-no                           
   RPACOR =    2.200    partial core radius                                     
   POMASS =  126.904; ZVAL   =    7.000    mass and valenz                      
   RCORE  =    2.300    outmost cutoff radius                                   
   RWIGS  =    2.810; RWIGS  =    1.487    wigner-seitz radius (au A)           
   ENMAX  =  175.647; ENMIN  =  131.735 eV                                      
   ICORE  =        3    local potential                                         
   LCOR   =        T    correct aug charges                                     
   LPAW   =        T    paw PP                                                  
   EAUG   =  370.139                                                            
   DEXC   =    0.000                                                            
   RMAX   =    2.359    core radius for proj-oper                               
   RAUG   =    1.300    factor for augmentation sphere                          
   RDEP   =    2.392    radius for radial grids                                 
   RDEPT  =    2.170    core radius for aug-charge                              
                                                                                
   Atomic configuration                                                         
   13 entries                                                                   
     n  l   j            E        occ.                                          
     1  0  0.50    -32976.3739   2.0000                                         
     2  0  0.50     -5094.5933   2.0000                                         
     2  1  1.50     -4572.0131   6.0000                                         
     3  0  0.50     -1028.2813   2.0000                                         
     3  1  1.50      -859.0250   6.0000                                         
     3  2  2.50      -605.7620  10.0000                                         
     4  0  0.50      -180.5540   2.0000                                         
     4  1  1.50      -127.5306   6.0000                                         
     4  2  2.50       -50.2720  10.0000                                         
     5  0  0.50       -17.4058   2.0000                                         
     5  1  0.50        -7.0851   5.0000                                         
     5  2  1.50        -7.0750   0.0000                                         
     4  3  2.50        -7.0750   0.0000                                         
   Description                                                                  
     l       E           TYP  RCUT    TYP  RCUT                                 
     0    -17.4058016     23  2.300                                             
     0    -18.7663842     23  2.300                                             
     1     -7.0850686     23  2.300                                             
     1     -4.2150896     23  2.300                                             
     2     -7.0750295     23  2.300                                             
     3     -1.3605826     23  2.300                                             
  local pseudopotential read in
  partial core-charges read in
  partial kinetic energy density read in
  atomic valenz-charges read in
  non local Contribution for L=           0  read in
    real space projection operators read in
  non local Contribution for L=           0  read in
    real space projection operators read in
  non local Contribution for L=           1  read in
    real space projection operators read in
  non local Contribution for L=           1  read in
    real space projection operators read in
  non local Contribution for L=           2  read in
    real space projection operators read in
    PAW grid and wavefunctions read in
 
   number of l-projection  operators is LMAX  =           5
   number of lm-projection operators is LMMAX =          13
 

 ----------------------------------------------------------------------------- 
|                                                                             |
|  ADVICE TO THIS USER RUNNING 'VASP/VAMP'   (HEAR YOUR MASTER'S VOICE ...):  |
|                                                                             |
|      You have a (more or less) 'large supercell' and for larger cells       |
|      it might be more efficient to use real space projection opertators     |
|      So try LREAL= Auto  in the INCAR   file.                               |
|      Mind: At the moment your POTCAR file does not contain real space       |
|       projectors, and has to be modified,  BUT if you                       |
|      want to do an extremely  accurate calculation you might also keep the  |
|      reciprocal projection scheme          (i.e. LREAL=.FALSE.)             |
|                                                                             |
 ----------------------------------------------------------------------------- 


 ----------------------------------------------------------------------------- 
|                                                                             |
|  ADVICE TO THIS USER RUNNING 'VASP/VAMP'   (HEAR YOUR MASTER'S VOICE ...):  |
|                                                                             |
|      You enforced a specific xc-type in the INCAR file,                     |
|      a different type was found on the POTCAR file                          |
|          I HOPE YOU KNOW, WHAT YOU ARE  DOING                               |
|                                                                             |
 ----------------------------------------------------------------------------- 

  PAW_PBE C 08Apr2002                   :
 energy of atom  1       EATOM= -147.1560
 kinetic energy error for atom=    0.0032 (will be added to EATOM!!)
  PAW_PBE N 08Apr2002                   :
 energy of atom  2       EATOM= -264.5486
 kinetic energy error for atom=    0.0061 (will be added to EATOM!!)
  PAW_PBE H 15Jun2001                   :
 energy of atom  3       EATOM=  -12.4884
 kinetic energy error for atom=    0.0002 (will be added to EATOM!!)
  PAW_PBE Pb_d 06Sep2000                :
 energy of atom  4       EATOM=-1661.6185
 kinetic energy error for atom=    0.0012 (will be added to EATOM!!)
  PAW_PBE I 08Apr2002                   :
 energy of atom  5       EATOM= -315.8678
 kinetic energy error for atom=    0.0003 (will be added to EATOM!!)
 
 
 POSCAR: C N H Pb I                              
  positions in direct lattice
  No initial velocities read in
 exchange correlation table for  LEXCH =       14
   RHO(1)=    0.500       N(1)  =     2000
   RHO(2)=  100.500       N(2)  =     4000
 


--------------------------------------------------------------------------------------------------------


 ion  position               nearest neighbor table
   1  0.198  0.250  0.227-  17 1.10  25 1.10  33 1.10   9 1.48
   2  0.696  0.250  0.231-  18 1.10  26 1.10  34 1.10  10 1.48
   3  0.196  0.750  0.231-  19 1.10  27 1.10  35 1.10  11 1.48
   4  0.698  0.750  0.227-  20 1.10  28 1.10  36 1.10  12 1.48
   5  0.198  0.250  0.727-  21 1.10  29 1.10  37 1.10  13 1.48
   6  0.696  0.250  0.731-  22 1.10  30 1.10  38 1.10  14 1.48
   7  0.196  0.750  0.731-  23 1.10  31 1.10  39 1.10  15 1.48
   8  0.698  0.750  0.727-  24 1.10  32 1.10  40 1.10  16 1.48
   9  0.305  0.250  0.274-  57 1.04  41 1.05  49 1.05   1 1.48
  10  0.804  0.250  0.274-  58 1.04  42 1.05  50 1.05   2 1.48
  11  0.304  0.750  0.274-  59 1.04  43 1.05  51 1.05   3 1.48
  12  0.805  0.750  0.274-  60 1.04  44 1.05  52 1.05   4 1.48
  13  0.305  0.250  0.774-  61 1.04  45 1.05  53 1.05   5 1.48
  14  0.804  0.250  0.774-  62 1.04  46 1.05  54 1.05   6 1.48
  15  0.304  0.750  0.774-  63 1.04  47 1.05  55 1.05   7 1.48
  16  0.805  0.750  0.774-  64 1.04  48 1.05  56 1.05   8 1.48
  17  0.208  0.250  0.141-   1 1.10
  18  0.702  0.250  0.145-   2 1.10
  19  0.202  0.750  0.145-   3 1.10
  20  0.708  0.750  0.141-   4 1.10
  21  0.208  0.250  0.641-   5 1.10
  22  0.702  0.250  0.645-   6 1.10
  23  0.202  0.750  0.645-   7 1.10
  24  0.708  0.750  0.641-   8 1.10
  25  0.155  0.322  0.253-   1 1.10
  26  0.654  0.322  0.258-   2 1.10
  27  0.154  0.822  0.258-   3 1.10
  28  0.655  0.822  0.253-   4 1.10
  29  0.155  0.322  0.753-   5 1.10
  30  0.654  0.322  0.758-   6 1.10
  31  0.154  0.822  0.758-   7 1.10
  32  0.655  0.822  0.753-   8 1.10
  33  0.155  0.177  0.253-   1 1.10
  34  0.654  0.177  0.258-   2 1.10
  35  0.154  0.677  0.258-   3 1.10
  36  0.655  0.677  0.253-   4 1.10
  37  0.155  0.177  0.753-   5 1.10
  38  0.654  0.177  0.758-   6 1.10
  39  0.154  0.677  0.758-   7 1.10
  40  0.655  0.677  0.753-   8 1.10
  41  0.349  0.318  0.252-   9 1.05
  42  0.847  0.318  0.250-  10 1.05
  43  0.347  0.818  0.250-  11 1.05
  44  0.849  0.818  0.252-  12 1.05
  45  0.349  0.318  0.752-  13 1.05
  46  0.847  0.318  0.750-  14 1.05
  47  0.347  0.818  0.750-  15 1.05
  48  0.849  0.818  0.752-  16 1.05
  49  0.349  0.182  0.252-   9 1.05
  50  0.848  0.182  0.250-  10 1.05
  51  0.348  0.682  0.250-  11 1.05
  52  0.849  0.682  0.252-  12 1.05
  53  0.349  0.182  0.752-  13 1.05
  54  0.848  0.182  0.750-  14 1.05
  55  0.348  0.682  0.750-  15 1.05
  56  0.849  0.682  0.752-  16 1.05
  57  0.302  0.250  0.356-   9 1.04
  58  0.804  0.250  0.356-  10 1.04
  59  0.304  0.750  0.356-  11 1.04
  60  0.802  0.750  0.356-  12 1.04
  61  0.302  0.250  0.856-  13 1.04
  62  0.804  0.250  0.856-  14 1.04
  63  0.304  0.750  0.856-  15 1.04
  64  0.802  0.750  0.856-  16 1.04
  65  0.472  0.500  0.489-  90 3.08  85 3.14  87 3.14  77 3.17  73 3.22  89 3.25
  66  0.972  0.500  0.489-  89 3.08  88 3.14  86 3.14  78 3.17  74 3.22  90 3.25
  67  0.472  1.000  0.489-  92 3.08  85 3.14  87 3.14  79 3.17  75 3.22  91 3.25
  68  0.972  0.000  0.489-  91 3.08  88 3.14  86 3.14  80 3.17  76 3.22  92 3.25
  69  0.472  0.500  0.989-  94 3.08  81 3.14  83 3.14  73 3.17  77 3.22  93 3.25
  70  0.972  0.500  0.989-  93 3.08  84 3.14  82 3.14  74 3.17  78 3.22  94 3.25
  71  0.472  1.000  0.989-  96 3.08  81 3.14  83 3.14  75 3.17  79 3.22  95 3.25
  72  0.972  0.000  0.989-  95 3.08  84 3.14  82 3.14  76 3.17  80 3.22  96 3.25
  73  0.455  0.500  0.238-  69 3.17  65 3.22
  74  0.955  0.500  0.238-  70 3.17  66 3.22
  75  0.455  1.000  0.238-  71 3.17  67 3.22
  76  0.955  0.000  0.238-  72 3.17  68 3.22
  77  0.455  0.500  0.738-  65 3.17  69 3.22
  78  0.955  0.500  0.738-  66 3.17  70 3.22
  79  0.455  1.000  0.738-  67 3.17  71 3.22
  80  0.955  0.000  0.738-  68 3.17  72 3.22
  81  0.453  0.250  0.011-  71 3.14  69 3.14
  82  0.946  0.250  0.012-  72 3.14  70 3.14
  83  0.446  0.750  0.012-  69 3.14  71 3.14
  84  0.953  0.750  0.011-  70 3.14  72 3.14
  85  0.453  0.250  0.511-  67 3.14  65 3.14
  86  0.946  0.250  0.512-  68 3.14  66 3.14
  87  0.446  0.750  0.512-  65 3.14  67 3.14
  88  0.953  0.750  0.511-  66 3.14  68 3.14
  89  0.216  0.496  0.461-  66 3.08  65 3.25
  90  0.716  0.504  0.461-  65 3.08  66 3.25
  91  0.216  0.004  0.461-  68 3.08  67 3.25
  92  0.716  0.996  0.461-  67 3.08  68 3.25
  93  0.216  0.496  0.961-  70 3.08  69 3.25
  94  0.716  0.504  0.961-  69 3.08  70 3.25
  95  0.216  0.004  0.961-  72 3.08  71 3.25
  96  0.716  0.996  0.961-  71 3.08  72 3.25
 
  LATTYP: Found a triclinic cell.
 ALAT       =    17.8238589327
 B/A-ratio  =     0.6989248630
 C/A-ratio  =     1.0156975818
 COS(alpha) =     0.0001355172
 COS(beta)  =     0.5146378593
 COS(gamma) =     0.6988877578
  
  Lattice vectors:
  
 A1 = (  -0.1406063366, -12.4576271275, -12.7466742118)
 A2 = (  -0.0011956322, -12.4575380825,   0.0007464135)
 A3 = ( -12.7162481321,  -0.0020049566, -12.8856194186)


Analysis of symmetry for initial positions (statically):
=====================================================================
 Subroutine PRICEL returns following result:
 
  LATTYP: Found a triclinic cell.
 ALAT       =     8.8502626515
 B/A-ratio  =     1.4075896561
 C/A-ratio  =     0.7202149489
 COS(alpha) =     0.0000518785
 COS(beta)  =     0.0156138721
 COS(gamma) =     0.7036188608
  
  Lattice vectors:
  
 A1 = (  -6.2878208978,   6.2278110854,  -0.0694726034)
 A2 = (   0.0011956322,  12.4575380825,  -0.0007464135)
 A3 = (  -0.0697053522,  -0.0000445225,  -6.3737103126)
 
   4 primitive cells build up your supercell.
 

 Routine SETGRP: Setting up the symmetry group for a 
 triclinic supercell.


 Subroutine GETGRP returns: Found  1 space group operations
 (whereof  1 operations were pure point group operations)
 out of a pool of  2 trial point group operations.


The static configuration has the point symmetry C_1 .


Analysis of symmetry for dynamics (positions and initial velocities):
=====================================================================
 Subroutine PRICEL returns following result:
 
  LATTYP: Found a triclinic cell.
 ALAT       =     8.8502626515
 B/A-ratio  =     1.4075896561
 C/A-ratio  =     0.7202149489
 COS(alpha) =     0.0000518785
 COS(beta)  =     0.0156138721
 COS(gamma) =     0.7036188608
  
  Lattice vectors:
  
 A1 = (  -6.2878208978,   6.2278110854,  -0.0694726034)
 A2 = (   0.0011956322,  12.4575380825,  -0.0007464135)
 A3 = (  -0.0697053522,  -0.0000445225,  -6.3737103126)
 
   4 primitive cells build up your supercell.
 

 Routine SETGRP: Setting up the symmetry group for a 
 triclinic supercell.


 Subroutine GETGRP returns: Found  1 space group operations
 (whereof  1 operations were pure point group operations)
 out of a pool of  2 trial point group operations.


The dynamic configuration has the point symmetry C_1 .


 Subroutine INISYM returns: Found  1 space group operations
 (whereof  1 operations are pure point group operations),
 and found     4 'primitive' translations

 
 
 KPOINTS: Automatic 3x3x3                         

Automatic generation of k-mesh.
Space group operators:
 irot       det(A)        alpha          n_x          n_y          n_z        tau_x        tau_y        tau_z
    1     1.000000     0.000000     1.000000     0.000000     0.000000     0.000000     0.000000     0.000000
 
 Subroutine IBZKPT returns following result:
 ===========================================
 
 Found     14 irreducible k-points:
 
 Following reciprocal coordinates:
            Coordinates               Weight
  0.000000  0.000000  0.000000      1.000000
  0.333333 -0.000000 -0.000000      2.000000
  0.000000  0.333333 -0.000000      2.000000
  0.333333  0.333333  0.000000      2.000000
 -0.333333  0.333333  0.000000      2.000000
  0.000000  0.000000  0.333333      2.000000
  0.333333  0.000000  0.333333      2.000000
 -0.333333  0.000000  0.333333      2.000000
  0.000000  0.333333  0.333333      2.000000
  0.333333  0.333333  0.333333      2.000000
 -0.333333  0.333333  0.333333      2.000000
  0.000000 -0.333333  0.333333      2.000000
  0.333333 -0.333333  0.333333      2.000000
 -0.333333 -0.333333  0.333333      2.000000
 
 Following cartesian coordinates:
            Coordinates               Weight
  0.000000  0.000000  0.000000      1.000000
  0.026507 -0.000003 -0.000290      2.000000
 -0.000004  0.026758 -0.000000      2.000000
  0.026503  0.026755 -0.000290      2.000000
 -0.026511  0.026760  0.000290      2.000000
 -0.000287  0.000002  0.026152      2.000000
  0.026220 -0.000001  0.025862      2.000000
 -0.026794  0.000004  0.026442      2.000000
 -0.000291  0.026759  0.026152      2.000000
  0.026215  0.026757  0.025862      2.000000
 -0.026798  0.026762  0.026442      2.000000
 -0.000283 -0.026756  0.026152      2.000000
  0.026224 -0.026759  0.025862      2.000000
 -0.026790 -0.026753  0.026442      2.000000
 


--------------------------------------------------------------------------------------------------------




 Dimension of arrays:
   k-points           NKPTS =     14   k-points in BZ     NKDIM =     14   number of bands    NBANDS=    256
   number of dos      NEDOS =    301   number of ions     NIONS =     96
   non local maximal  LDIM  =      6   non local SUM 2l+1 LMDIM =     18
   total plane-waves  NPLWV = ******
   max r-space proj   IRMAX =      1   max aug-charges    IRDMAX= 314103
   dimension x,y,z NGX =   112 NGY =  108 NGZ =  112
   dimension x,y,z NGXF=   224 NGYF=  216 NGZF=  224
   support grid    NGXF=   448 NGYF=  432 NGZF=  448
   ions per type =               8   8  48   8  24
 NGX,Y,Z   is equivalent  to a cutoff of  14.80, 14.41, 14.61 a.u.
 NGXF,Y,Z  is equivalent  to a cutoff of  29.61, 28.83, 29.21 a.u.


 I would recommend the setting:
   dimension x,y,z NGX =   109 NGY =  107 NGZ =  110
 SYSTEM =  MAPbI3-Cubic                            
 POSCAR =  C N H Pb I                              

 Startparameter for this run:
   NWRITE =      2    write-flag & timer
   PREC   = accura    normal or accurate (medium, high low for compatibility)
   ISTART =      0    job   : 0-new  1-cont  2-samecut
   ICHARG =      2    charge: 1-file 2-atom 10-const
   ISPIN  =      1    spin polarized calculation?
   LNONCOLLINEAR =      F non collinear calculations
   LSORBIT =      F    spin-orbit coupling
   INIWAV =      1    electr: 0-lowe 1-rand  2-diag
   LASPH  =      F    aspherical Exc in radial PAW
   METAGGA=      F    non-selfconsistent MetaGGA calc.

 Electronic Relaxation 1
   ENCUT  =  700.0 eV  51.45 Ry    7.17 a.u.  27.13 26.87 27.50*2*pi/ulx,y,z
   ENINI  =  700.0     initial cutoff
   ENAUG  =  644.9 eV  augmentation charge cutoff
   NELM   =     60;   NELMIN=  2; NELMDL= -5     # of ELM steps 
   EDIFF  = 0.1E-09   stopping-criterion for ELM
   LREAL  =      F    real-space projection
   NLSPLINE    = F    spline interpolate recip. space projectors
   LCOMPAT=      F    compatible to vasp.4.4
   GGA_COMPAT  = T    GGA compatible to vasp.4.4-vasp.4.6
   LMAXPAW     = -100 max onsite density
   LMAXMIX     =    2 max onsite mixed and CHGCAR
   VOSKOWN=      0    Vosko Wilk Nusair interpolation
   ROPT   =    0.00000   0.00000   0.00000   0.00000
   ROPT   =    0.00000
 Ionic relaxation
   EDIFFG = 0.1E-08   stopping-criterion for IOM
   NSW    =      0    number of steps for IOM
   NBLOCK =      1;   KBLOCK =      1    inner block; outer block 
   IBRION =     -1    ionic relax: 0-MD 1-quasi-New 2-CG
   NFREE  =      0    steps in history (QN), initial steepest desc. (CG)
   ISIF   =      2    stress and relaxation
   IWAVPR =     10    prediction:  0-non 1-charg 2-wave 3-comb
   ISYM   =      2    0-nonsym 1-usesym 2-fastsym
   LCORR  =      T    Harris-Foulkes like correction to forces

   POTIM  = 0.5000    time-step for ionic-motion
   TEIN   =    0.0    initial temperature
   TEBEG  =    0.0;   TEEND  =   0.0 temperature during run
   SMASS  =  -3.00    Nose mass-parameter (am)
   estimated Nose-frequenzy (Omega)   =  0.10E-29 period in steps =****** mass=  -0.362E-26a.u.
   SCALEE = 1.0000    scale energy and forces
   NPACO  =    256;   APACO  = 16.0  distance and # of slots for P.C.
   PSTRESS=    0.0 pullay stress

  Mass of Ions in am
   POMASS =  12.01 14.00  1.00207.20126.90
  Ionic Valenz
   ZVAL   =   4.00  5.00  1.00 14.00  7.00
  Atomic Wigner-Seitz radii
   RWIGS  =  -1.00 -1.00 -1.00 -1.00 -1.00
  virtual crystal weights 
   VCA    =   1.00  1.00  1.00  1.00  1.00
   NELECT =     400.0000    total number of electrons
   NUPDOWN=      -1.0000    fix difference up-down

 DOS related values:
   EMIN   =  10.00;   EMAX   =-10.00  energy-range for DOS
   EFERMI =   0.00
   ISMEAR =     0;   SIGMA  =   0.00  broadening in eV -4-tet -1-fermi 0-gaus

 Electronic relaxation 2 (details)
   IALGO  =     38    algorithm
   LDIAG  =      T    sub-space diagonalisation (order eigenvalues)
   LSUBROT=      F    optimize rotation matrix (better conditioning)
   TURBO    =      0    0=normal 1=particle mesh
   IRESTART =      0    0=no restart 2=restart with 2 vectors
   NREBOOT  =      0    no. of reboots
   NMIN     =      0    reboot dimension
   EREF     =   0.00    reference energy to select bands
   IMIX   =      4    mixing-type and parameters
     AMIX     =   0.40;   BMIX     =  1.00
     AMIX_MAG =   1.60;   BMIX_MAG =  1.00
     AMIN     =   0.10
     WC   =   100.;   INIMIX=   1;  MIXPRE=   1;  MAXMIX= -45

 Intra band minimization:
   WEIMIN = 0.0000     energy-eigenvalue tresh-hold
   EBREAK =  0.98E-13  absolut break condition
   DEPER  =   0.30     relativ break condition  

   TIME   =   0.40     timestep for ELM

  volume/ion in A,a.u.               =      20.80       140.38
  Fermi-wavevector in a.u.,A,eV,Ry     =   0.957863  1.810099 12.483376  0.917502
  Thomas-Fermi vector in A             =   2.086919
 
 Write flags
   LWAVE  =      F    write WAVECAR
   LCHARG =      F    write CHGCAR
   LVTOT  =      F    write LOCPOT, total local potential
   LVHAR  =      F    write LOCPOT, Hartree potential only
   LELF   =      F    write electronic localiz. function (ELF)
   LORBIT =      0    0 simple, 1 ext, 2 COOP (PROOUT)


 Dipole corrections
   LMONO  =      F    monopole corrections only (constant potential shift)
   LDIPOL =      F    correct potential (dipole corrections)
   IDIPOL =      0    1-x, 2-y, 3-z, 4-all directions 
   EPSILON=  1.0000000 bulk dielectric constant

 Core level calculations are selected ICORELEVEL =  1
 Exchange correlation treatment:
   GGA     =    PS    GGA type
   LEXCH   =    14    internal setting for exchange type
   VOSKOWN=      0    Vosko Wilk Nusair interpolation
   LHFCALC =     F    Hartree Fock is set to
   LHFONE  =     F    Hartree Fock one center treatment
   AEXX    =    0.0000 exact exchange contribution

 Linear response parameters
   LEPSILON=     F    determine dielectric tensor
   LRPA    =     F    only Hartree local field effects (RPA)
   LNABLA  =     F    use nabla operator in PAW spheres
   LVEL    =     F    velocity operator in full k-point grid
   LINTERFAST=   F  fast interpolation
   KINTER  =     0    interpolate to denser k-point grid
   CSHIFT  =0.1000    complex shift for real part using Kramers Kronig
   OMEGAMAX=  -1.0    maximum frequency
   DEG_THRESHOLD= 0.2000000E-02 threshold for treating states as degnerate
   RTIME   =    0.100 relaxation time in fs

 Orbital magnetization related:
   ORBITALMAG=     F  switch on orbital magnetization
   LCHIMAG   =     F  perturbation theory with respect to B field
   DQ        =  0.001000  dq finite difference perturbation B field



--------------------------------------------------------------------------------------------------------


 Static calculation
 charge density and potential will be updated during run
 non-spin polarized calculation
 Variant of blocked Davidson
 Davidson routine will perform the subspace rotation
 perform sub-space diagonalisation
    after iterative eigenvector-optimisation
 modified Broyden-mixing scheme, WC =      100.0
 initial mixing is a Kerker type mixing with AMIX =  0.4000 and BMIX =      1.0000
 Hartree-type preconditioning will be used
 using additional bands           56
 reciprocal scheme for non local part
 use partial core corrections
 calculate Harris-corrections to forces 
   (improved forces if not selfconsistent)
 use gradient corrections 
 use of overlap-Matrix (Vanderbilt PP)
 Gauss-broadening in eV      SIGMA  =   0.00


--------------------------------------------------------------------------------------------------------


  energy-cutoff  :      700.00
  volume of cell :     1996.98
      direct lattice vectors                 reciprocal lattice vectors
    12.576837428  0.001915912  0.138198793     0.079520802 -0.000007684 -0.000869670
     0.001195632 12.457538083 -0.000746413    -0.000012224  0.080272684 -0.000000427
     0.139410704  0.000089045 12.747420625    -0.000862111  0.000004784  0.078456671

  length of vectors
    12.577596840 12.457538162 12.748182927     0.079525558  0.080272685  0.078461408


 
 k-points in units of 2pi/SCALE and weight: Automatic 3x3x3                         
   0.00000000  0.00000000  0.00000000       0.037
   0.02650693 -0.00000256 -0.00028989       0.074
  -0.00000407  0.02675756 -0.00000014       0.074
   0.02650286  0.02675500 -0.00029003       0.074
  -0.02651101  0.02676012  0.00028975       0.074
  -0.00028737  0.00000159  0.02615222       0.074
   0.02621956 -0.00000097  0.02586233       0.074
  -0.02679430  0.00000416  0.02644211       0.074
  -0.00029144  0.02675916  0.02615208       0.074
   0.02621549  0.02675659  0.02586219       0.074
  -0.02679838  0.02676172  0.02644197       0.074
  -0.00028330 -0.02675597  0.02615237       0.074
   0.02622364 -0.02675853  0.02586248       0.074
  -0.02679023 -0.02675341  0.02644226       0.074
 
 k-points in reciprocal lattice and weights: Automatic 3x3x3                         
   0.00000000  0.00000000  0.00000000       0.037
   0.33333333 -0.00000000 -0.00000000       0.074
   0.00000000  0.33333333 -0.00000000       0.074
   0.33333333  0.33333333  0.00000000       0.074
  -0.33333333  0.33333333  0.00000000       0.074
   0.00000000  0.00000000  0.33333333       0.074
   0.33333333  0.00000000  0.33333333       0.074
  -0.33333333  0.00000000  0.33333333       0.074
   0.00000000  0.33333333  0.33333333       0.074
   0.33333333  0.33333333  0.33333333       0.074
  -0.33333333  0.33333333  0.33333333       0.074
   0.00000000 -0.33333333  0.33333333       0.074
   0.33333333 -0.33333333  0.33333333       0.074
  -0.33333333 -0.33333333  0.33333333       0.074
 
 position of ions in fractional coordinates (direct lattice) 
   0.19810925  0.24991292  0.22717858
   0.69587901  0.24990363  0.23065213
   0.19587901  0.74990363  0.23065213
   0.69810925  0.74991292  0.22717858
   0.19810925  0.24991292  0.72717858
   0.69587901  0.24990363  0.73065213
   0.19587901  0.74990363  0.73065213
   0.69810925  0.74991292  0.72717858
   0.30484409  0.25000717  0.27398253
   0.80423035  0.25000011  0.27378606
   0.30423035  0.75000011  0.27378606
   0.80484409  0.75000717  0.27398253
   0.30484409  0.25000717  0.77398253
   0.80423035  0.25000011  0.77378606
   0.30423035  0.75000011  0.77378606
   0.80484409  0.75000717  0.77398253
   0.20769904  0.24982095  0.14125737
   0.70245129  0.24982124  0.14451989
   0.20245129  0.74982124  0.14451989
   0.70769904  0.74982095  0.14125737
   0.20769904  0.24982095  0.64125737
   0.70245129  0.24982124  0.64451989
   0.20245129  0.74982124  0.64451989
   0.70769904  0.74982095  0.64125737
   0.15503480  0.32236953  0.25308191
   0.65364082  0.32233484  0.25794873
   0.15364082  0.82233484  0.25794873
   0.65503480  0.82236953  0.25308191
   0.15503480  0.32236953  0.75308191
   0.65364082  0.32233484  0.75794873
   0.15364082  0.82233484  0.75794873
   0.65503480  0.82236953  0.75308191
   0.15513274  0.17747341  0.25322552
   0.65375292  0.17747874  0.25807590
   0.15375292  0.67747874  0.25807590
   0.65513274  0.67747341  0.25322552
   0.15513274  0.17747341  0.75322552
   0.65375292  0.17747874  0.75807590
   0.15375292  0.67747874  0.75807590
   0.65513274  0.67747341  0.75322552
   0.34879453  0.31791147  0.25158561
   0.84747462  0.31783709  0.24992737
   0.34747462  0.81783709  0.24992737
   0.84879453  0.81791147  0.25158561
   0.34879453  0.31791147  0.75158561
   0.84747462  0.31783709  0.74992737
   0.34747462  0.81783709  0.74992737
   0.84879453  0.81791147  0.75158561
   0.34885838  0.18206930  0.25172860
   0.84755222  0.18214048  0.25005320
   0.34755222  0.68214048  0.25005320
   0.84885838  0.68206930  0.25172860
   0.34885838  0.18206930  0.75172860
   0.84755222  0.18214048  0.75005320
   0.34755222  0.68214048  0.75005320
   0.84885838  0.68206930  0.75172860
   0.30191780  0.25010316  0.35565893
   0.80442235  0.25008388  0.35555956
   0.30442235  0.75008388  0.35555956
   0.80191780  0.75010316  0.35565893
   0.30191780  0.25010316  0.85565893
   0.80442235  0.25008388  0.85555956
   0.30442235  0.75008388  0.85555956
   0.80191780  0.75010316  0.85565893
   0.47244275  0.50017163  0.48881120
   0.97244080  0.49980796  0.48881169
   0.47244080  0.99980796  0.48881169
   0.97244275  0.00017163  0.48881120
   0.47244275  0.50017163  0.98881120
   0.97244080  0.49980796  0.98881169
   0.47244080  0.99980796  0.98881169
   0.97244275  0.00017163  0.98881120
   0.45474638  0.50008787  0.23757217
   0.95474096  0.49989423  0.23757332
   0.45474096  0.99989423  0.23757332
   0.95474638  0.00008787  0.23757217
   0.45474638  0.50008787  0.73757217
   0.95474096  0.49989423  0.73757332
   0.45474096  0.99989423  0.73757332
   0.95474638  0.00008787  0.73757217
   0.45313824  0.24997832  0.01117396
   0.94613264  0.24997970  0.01249048
   0.44613264  0.74997970  0.01249048
   0.95313824  0.74997832  0.01117396
   0.45313824  0.24997832  0.51117396
   0.94613264  0.24997970  0.51249048
   0.44613264  0.74997970  0.51249048
   0.95313824  0.74997832  0.51117396
   0.21617228  0.49581661  0.46123970
   0.71617059  0.50417827  0.46123970
   0.21617059  0.00417827  0.46123970
   0.71617228  0.99581661  0.46123970
   0.21617228  0.49581661  0.96123970
   0.71617059  0.50417827  0.96123970
   0.21617059  0.00417827  0.96123970
   0.71617228  0.99581661  0.96123970
 
 position of ions in cartesian coordinates  (Angst):
   2.52355780  3.11369957  2.92313284
   8.78441136  3.11453771  3.03620281
   2.49659047  9.34234880  2.96673020
   8.81257433  9.34342657  2.99185903
   2.59326315  3.11374409  9.29684315
   8.85411672  3.11458223  9.40991312
   2.56629582  9.34239332  9.34044052
   8.88227968  9.34347109  9.36556934
   3.87246957  3.11508227  3.53451308
  10.15314196  3.11595114  3.60102311
   3.86532106  9.34376223  3.53155051
  10.16148610  9.34480927  3.60323927
   3.94217493  3.11512679  9.90822340
  10.22284731  3.11599566  9.97473343
   3.93502641  9.34380675  9.90526082
  10.23119146  9.34485379  9.97694959
   2.63218859  3.11256449  1.82918435
   8.85506200  3.11351637  1.93914723
   2.56724110  9.34132745  1.86967462
   8.92120512  9.34229149  1.89791054
   2.70189394  3.11260901  8.20289466
   8.92476735  3.11356089  8.31285754
   2.63694645  9.34137197  8.24338494
   8.99091047  9.34233601  8.27162085
   1.98551518  4.01625032  3.24732653
   8.25708051  4.01677382  3.37827275
   1.96925962 10.24458491  3.30880015
   8.27453171 10.24597731  3.31605272
   2.05522053  4.01629484  9.62103684
   8.32678587  4.01681835  9.75198306
   2.03896497 10.24462943  9.68251046
   8.34423706 10.24602184  9.68976303
   1.98659383  2.21120153  3.24927887
   8.25833499  2.21222364  3.38001740
   1.97051409  8.44003472  3.31054479
   8.27561036  8.44092853  3.31800506
   2.05629918  2.21124606  9.62298918
   8.32804034  2.21226816  9.75372771
   2.04021944  8.44007924  9.68425510
   8.34531571  8.44097305  9.69171537
   4.42218597  3.96108494  3.25503333
  10.69377311  3.96111363  3.30281202
   4.40595221 10.18892472  3.23333942
  10.71120250 10.19081194  3.32375952
   4.49189132  3.96112946  9.62874364
  10.76347846  3.96115815  9.67652233
   4.47565756 10.18896924  9.60704973
  10.78090785 10.19085646  9.69746983
   4.42284649  2.26882599  3.25696623
  10.69460435  2.27066805  3.30452808
   4.40678345  8.49847913  3.23505548
  10.71186302  8.49855299  3.32569242
   4.49255184  2.26887052  9.63067654
  10.76430970  2.27071257  9.67823839
   4.47648880  8.49852365  9.60876579
  10.78156837  8.49859751  9.69940273
   3.84705279  3.11627978  4.57527193
  10.16695688  3.11700235  4.64345084
   3.87913598  9.34481343  4.57397824
  10.13606932  9.34600677  4.64399812
   3.91675814  3.11632430 10.94898224
  10.23666223  3.11704687 11.01716115
   3.94884133  9.34485795 10.94768855
  10.20577467  9.34605130 11.01770843
   6.01057924  6.23185586  6.29599972
  12.29897300  6.22828328  6.36510529
   6.01115210 12.45609436  6.29563269
  12.29840014  0.00404478  6.36547232
   6.08028459  6.23190039 12.66971003
  12.36867835  6.22832780 12.73881561
   6.08085745 12.45613889 12.66934300
  12.36810549  0.00408930 12.73918263
   5.75298937  6.23075612  3.09090445
  12.04133985  6.22930172  3.16001794
   5.75351895 12.45711281  3.09054533
  12.04081026  0.00294504  3.16037706
   5.82269472  6.23080064  9.46461477
  12.11104520  6.22934624  9.53372825
   5.82322431 12.45715733  9.46425565
  12.11051562  0.00298956  9.53408737
   5.70090268  3.11498359  0.20487574
  11.90139653  3.11594548  0.28978915
   5.61357563  9.34375657  0.22031655
  11.98991921  9.34471059  0.27360193
   5.77060803  3.11502811  6.57858605
  11.97110188  3.11599000  6.66349946
   5.68328098  9.34380109  6.59402686
  12.05962456  9.34475511  6.64731224
   2.78365824  6.17710948  5.90912115
   9.07206568  6.28223316  5.97821408
   2.78304915  0.05250616  5.90948789
   9.07267477 12.40683648  5.97784734
   2.85336359  6.17715400 12.28283146
   9.14177103  6.28227768 12.35192440
   2.85275450  0.05255068 12.28319821
   9.14238012 12.40688100 12.35155765
 


--------------------------------------------------------------------------------------------------------


 k-point  1 :   0.0000 0.0000 0.0000  plane waves:   84007
 k-point  2 :   0.3333-0.0000-0.0000  plane waves:   84003
 k-point  3 :   0.0000 0.3333-0.0000  plane waves:   83995
 k-point  4 :   0.3333 0.3333 0.0000  plane waves:   84018
 k-point  5 :  -0.3333 0.3333 0.0000  plane waves:   84019
 k-point  6 :   0.0000 0.0000 0.3333  plane waves:   83960
 k-point  7 :   0.3333 0.0000 0.3333  plane waves:   83937
 k-point  8 :  -0.3333 0.0000 0.3333  plane waves:   83982
 k-point  9 :   0.0000 0.3333 0.3333  plane waves:   83984
 k-point 10 :   0.3333 0.3333 0.3333  plane waves:   84012
 k-point 11 :  -0.3333 0.3333 0.3333  plane waves:   83970
 k-point 12 :   0.0000-0.3333 0.3333  plane waves:   83977
 k-point 13 :   0.3333-0.3333 0.3333  plane waves:   84013
 k-point 14 :  -0.3333-0.3333 0.3333  plane waves:   83973

 maximum and minimum number of plane-waves per node :     28039    27934

 maximum number of plane-waves:     84019
 maximum index in each direction: 
   IXMAX=   27   IYMAX=   27   IZMAX=   27
   IXMIN=  -27   IYMIN=  -27   IZMIN=  -27

 NGX is ok and might be reduce to 110
 WARNING: aliasing errors must be expected set NGY to 110 to avoid them
 NGZ is ok and might be reduce to 110
 aliasing errors are usually negligible using standard VASP settings
 and one can safely disregard these warnings

 parallel 3D FFT for wavefunctions:
    minimum data exchange during FFTs selected (reduces bandwidth)
 parallel 3D FFT for charge:
    minimum data exchange during FFTs selected (reduces bandwidth)


 total amount of memory used by VASP on root node   697522. kBytes
========================================================================

   base      :      30000. kBytes
   nonl-proj :     325712. kBytes
   fftplans  :      80881. kBytes
   grid      :      57435. kBytes
   one-center:        497. kBytes
   wavefun   :     202997. kBytes
 
     INWAV:  cpu time    0.0000: real time    0.0000
 Broyden mixing: mesh for mixing (old mesh)
   NGX = 55   NGY = 53   NGZ = 55
  (NGX  =224   NGY  =216   NGZ  =224)
  gives a total of 160325 points

 initial charge density was supplied:
 charge density of overlapping atoms calculated
 number of electron     400.0000000 magnetization 
 keeping initial charge density in first step


--------------------------------------------------------------------------------------------------------


 Maximum index for augmentation-charges        14102 (set IRDMAX)


--------------------------------------------------------------------------------------------------------


 First call to EWALD:  gamma=   0.141
 Maximum number of real-space cells 3x 3x 3
 Maximum number of reciprocal cells 3x 3x 3

 FEWALD executed in parallel
    FEWALD:  cpu time    0.0200: real time    0.0229


----------------------------------------- Iteration    1(   1)  ---------------------------------------


    POTLOK:  cpu time    0.4480: real time    0.4491
    SETDIJ:  cpu time    0.7600: real time    0.7610
     EDDAV:  cpu time   71.7445: real time   71.7933
       DOS:  cpu time    0.0000: real time    0.0009
    --------------------------------------------
      LOOP:  cpu time   72.9566: real time   73.0254

 eigenvalue-minimisations  :  7176
 total energy-change (2. order) : 0.3603460E+04  (-0.1894923E+05)
 number of electron     400.0000000 magnetization 
 augmentation part      400.0000000 magnetization 

 Free energy of the ion-electron system (eV)
  ---------------------------------------------------
  alpha Z        PSCENC =       370.05370877
  Ewald energy   TEWEN  =    -15505.55135322
  -Hartree energ DENC   =     -8138.87333221
  -exchange      EXHF   =         0.00000000
  -V(xc)+E(xc)   XCENC  =       390.15088856
  PAW double counting   =     20601.23165652   -19855.90553853
  entropy T*S    EENTRO =        -0.00000000
  eigenvalues    EBANDS =       993.34747543
  atomic energy  EATOM  =     24749.00668030
  Solvation  Ediel_sol  =         0.00000000
  ---------------------------------------------------
  free energy    TOTEN  =      3603.46018563 eV

  energy without entropy =     3603.46018563  energy(sigma->0) =     3603.46018563


--------------------------------------------------------------------------------------------------------




----------------------------------------- Iteration    1(   2)  ---------------------------------------


     EDDAV:  cpu time   78.7969: real time   78.8464
       DOS:  cpu time    0.0040: real time    0.0015
    --------------------------------------------
      LOOP:  cpu time   78.8049: real time   78.8720

 eigenvalue-minimisations  :  8008
 total energy-change (2. order) :-0.3405225E+04  (-0.3209520E+04)
 number of electron     400.0000000 magnetization 
 augmentation part      400.0000000 magnetization 

 Free energy of the ion-electron system (eV)
  ---------------------------------------------------
  alpha Z        PSCENC =       370.05370877
  Ewald energy   TEWEN  =    -15505.55135322
  -Hartree energ DENC   =     -8138.87333221
  -exchange      EXHF   =         0.00000000
  -V(xc)+E(xc)   XCENC  =       390.15088856
  PAW double counting   =     20601.23165652   -19855.90553853
  entropy T*S    EENTRO =        -0.00004179
  eigenvalues    EBANDS =     -2411.87715194
  atomic energy  EATOM  =     24749.00668030
  Solvation  Ediel_sol  =         0.00000000
  ---------------------------------------------------
  free energy    TOTEN  =       198.23551646 eV

  energy without entropy =      198.23555825  energy(sigma->0) =      198.23553736


--------------------------------------------------------------------------------------------------------




----------------------------------------- Iteration    1(   3)  ---------------------------------------


     EDDAV:  cpu time   89.4616: real time   89.5141
       DOS:  cpu time    0.0000: real time    0.0006
    --------------------------------------------
      LOOP:  cpu time   89.4616: real time   89.5405

 eigenvalue-minimisations  :  9472
 total energy-change (2. order) :-0.5970763E+03  (-0.5882197E+03)
 number of electron     400.0000000 magnetization 
 augmentation part      400.0000000 magnetization 

 Free energy of the ion-electron system (eV)
  ---------------------------------------------------
  alpha Z        PSCENC =       370.05370877
  Ewald energy   TEWEN  =    -15505.55135322
  -Hartree energ DENC   =     -8138.87333221
  -exchange      EXHF   =         0.00000000
  -V(xc)+E(xc)   XCENC  =       390.15088856
  PAW double counting   =     20601.23165652   -19855.90553853
  entropy T*S    EENTRO =         0.00000000
  eigenvalues    EBANDS =     -3008.95349081
  atomic energy  EATOM  =     24749.00668030
  Solvation  Ediel_sol  =         0.00000000
  ---------------------------------------------------
  free energy    TOTEN  =      -398.84078062 eV

  energy without entropy =     -398.84078062  energy(sigma->0) =     -398.84078062


--------------------------------------------------------------------------------------------------------




----------------------------------------- Iteration    1(   4)  ---------------------------------------


     EDDAV:  cpu time   90.7417: real time   90.7967
       DOS:  cpu time    0.0000: real time    0.0007
    --------------------------------------------
      LOOP:  cpu time   90.7417: real time   90.8448

 eigenvalue-minimisations  :  9616
 total energy-change (2. order) :-0.3989182E+02  (-0.3971919E+02)
 number of electron     400.0000000 magnetization 
 augmentation part      400.0000000 magnetization 

 Free energy of the ion-electron system (eV)
  ---------------------------------------------------
  alpha Z        PSCENC =       370.05370877
  Ewald energy   TEWEN  =    -15505.55135322
  -Hartree energ DENC   =     -8138.87333221
  -exchange      EXHF   =         0.00000000
  -V(xc)+E(xc)   XCENC  =       390.15088856
  PAW double counting   =     20601.23165652   -19855.90553853
  entropy T*S    EENTRO =         0.00000000
  eigenvalues    EBANDS =     -3048.84530841
  atomic energy  EATOM  =     24749.00668030
  Solvation  Ediel_sol  =         0.00000000
  ---------------------------------------------------
  free energy    TOTEN  =      -438.73259822 eV

  energy without entropy =     -438.73259822  energy(sigma->0) =     -438.73259822


--------------------------------------------------------------------------------------------------------




----------------------------------------- Iteration    1(   5)  ---------------------------------------


     EDDAV:  cpu time   91.3777: real time   91.4338
       DOS:  cpu time    0.0000: real time    0.0006
    CHARGE:  cpu time    3.3362: real time    3.3364
    MIXING:  cpu time    0.0120: real time    0.0137
    --------------------------------------------
      LOOP:  cpu time   94.7299: real time   95.0116

 eigenvalue-minimisations  :  9776
 total energy-change (2. order) :-0.1498775E+01  (-0.1496584E+01)
 number of electron     400.0000000 magnetization 
 augmentation part        7.5668049 magnetization 

 Broyden mixing:
  rms(total) = 0.29799E+01    rms(broyden)= 0.29799E+01
  rms(prec ) = 0.35313E+01
  weight for this iteration     100.00

 Free energy of the ion-electron system (eV)
  ---------------------------------------------------
  alpha Z        PSCENC =       370.05370877
  Ewald energy   TEWEN  =    -15505.55135322
  -Hartree energ DENC   =     -8138.87333221
  -exchange      EXHF   =         0.00000000
  -V(xc)+E(xc)   XCENC  =       390.15088856
  PAW double counting   =     20601.23165652   -19855.90553853
  entropy T*S    EENTRO =        -0.00000000
  eigenvalues    EBANDS =     -3050.34408381
  atomic energy  EATOM  =     24749.00668030
  Solvation  Ediel_sol  =         0.00000000
  ---------------------------------------------------
  free energy    TOTEN  =      -440.23137362 eV

  energy without entropy =     -440.23137362  energy(sigma->0) =     -440.23137362


--------------------------------------------------------------------------------------------------------




----------------------------------------- Iteration    1(   6)  ---------------------------------------


    POTLOK:  cpu time    0.4480: real time    0.4450
    SETDIJ:  cpu time    0.7640: real time    0.7667
     EDDAV:  cpu time   88.5215: real time   88.5745
       DOS:  cpu time    0.0000: real time    0.0009
    CHARGE:  cpu time    3.3362: real time    3.3370
    MIXING:  cpu time    0.0120: real time    0.0133
    --------------------------------------------
      LOOP:  cpu time   93.0818: real time   93.1629

 eigenvalue-minimisations  :  9440
 total energy-change (2. order) : 0.2069172E+02  (-0.4193574E+01)
 number of electron     400.0000000 magnetization 
 augmentation part        7.8741027 magnetization 

 Broyden mixing:
  rms(total) = 0.15753E+01    rms(broyden)= 0.15752E+01
  rms(prec ) = 0.17528E+01
  weight for this iteration     100.00

 eigenvalues of (default mixing * dielectric matrix)
  average eigenvalue GAMMA=   1.5507
  1.5507

 Free energy of the ion-electron system (eV)
  ---------------------------------------------------
  alpha Z        PSCENC =       370.05370877
  Ewald energy   TEWEN  =    -15505.55135322
  -Hartree energ DENC   =     -8312.61296840
  -exchange      EXHF   =         0.00000000
  -V(xc)+E(xc)   XCENC  =       404.40129360
  PAW double counting   =     23084.58712285   -22337.47379259
  entropy T*S    EENTRO =         0.00000000
  eigenvalues    EBANDS =     -2871.95034300
  atomic energy  EATOM  =     24749.00668030
  Solvation  Ediel_sol  =         0.00000000
  ---------------------------------------------------
  free energy    TOTEN  =      -419.53965169 eV

  energy without entropy =     -419.53965169  energy(sigma->0) =     -419.53965169


--------------------------------------------------------------------------------------------------------




----------------------------------------- Iteration    1(   7)  ---------------------------------------


    POTLOK:  cpu time    0.4440: real time    0.4442
    SETDIJ:  cpu time    0.7640: real time    0.7678
     EDDAV:  cpu time   94.8299: real time   94.8912
       DOS:  cpu time    0.0040: real time    0.0030
    CHARGE:  cpu time    3.3322: real time    3.3343
    MIXING:  cpu time    0.0160: real time    0.0134
    --------------------------------------------
      LOOP:  cpu time   99.3982: real time   99.6862

 eigenvalue-minimisations  : 10240
 total energy-change (2. order) : 0.2485912E+01  (-0.1458812E+01)
 number of electron     400.0000000 magnetization 
 augmentation part        8.0080998 magnetization 

 Broyden mixing:
  rms(total) = 0.78331E+00    rms(broyden)= 0.78329E+00
  rms(prec ) = 0.83544E+00
  weight for this iteration     100.00

 eigenvalues of (default mixing * dielectric matrix)
  average eigenvalue GAMMA=   1.9236
  1.4460  2.4012

 Free energy of the ion-electron system (eV)
  ---------------------------------------------------
  alpha Z        PSCENC =       370.05370877
  Ewald energy   TEWEN  =    -15505.55135322
  -Hartree energ DENC   =     -8402.26344401
  -exchange      EXHF   =         0.00000000
  -V(xc)+E(xc)   XCENC  =       413.97317563
  PAW double counting   =     26201.14353440   -25453.04663102
  entropy T*S    EENTRO =         0.00000000
  eigenvalues    EBANDS =     -2790.36941021
  atomic energy  EATOM  =     24749.00668030
  Solvation  Ediel_sol  =         0.00000000
  ---------------------------------------------------
  free energy    TOTEN  =      -417.05373935 eV

  energy without entropy =     -417.05373935  energy(sigma->0) =     -417.05373935


--------------------------------------------------------------------------------------------------------




----------------------------------------- Iteration    1(   8)  ---------------------------------------


    POTLOK:  cpu time    0.4440: real time    0.4433
    SETDIJ:  cpu time    0.7640: real time    0.7660
     EDDAV:  cpu time   82.3811: real time   82.4327
       DOS:  cpu time    0.0040: real time    0.0010
    CHARGE:  cpu time    3.3362: real time    3.3377
    MIXING:  cpu time    0.0120: real time    0.0136
    --------------------------------------------
      LOOP:  cpu time   86.9414: real time   87.0212

 eigenvalue-minimisations  :  8600
 total energy-change (2. order) : 0.1723579E+00  (-0.3005907E+00)
 number of electron     400.0000000 magnetization 
 augmentation part        7.9445122 magnetization 

 Broyden mixing:
  rms(total) = 0.18110E+00    rms(broyden)= 0.18109E+00
  rms(prec ) = 0.21964E+00
  weight for this iteration     100.00

 eigenvalues of (default mixing * dielectric matrix)
  average eigenvalue GAMMA=   1.6335
  2.3787  1.2609  1.2609

 Free energy of the ion-electron system (eV)
  ---------------------------------------------------
  alpha Z        PSCENC =       370.05370877
  Ewald energy   TEWEN  =    -15505.55135322
  -Hartree energ DENC   =     -8410.80960910
  -exchange      EXHF   =         0.00000000
  -V(xc)+E(xc)   XCENC  =       417.23028622
  PAW double counting   =     28675.21502524   -27928.14835924
  entropy T*S    EENTRO =        -0.00000000
  eigenvalues    EBANDS =     -2783.87776043
  atomic energy  EATOM  =     24749.00668030
  Solvation  Ediel_sol  =         0.00000000
  ---------------------------------------------------
  free energy    TOTEN  =      -416.88138146 eV

  energy without entropy =     -416.88138146  energy(sigma->0) =     -416.88138146


--------------------------------------------------------------------------------------------------------




----------------------------------------- Iteration    1(   9)  ---------------------------------------


    POTLOK:  cpu time    0.4400: real time    0.4431
    SETDIJ:  cpu time    0.7680: real time    0.7675
     EDDAV:  cpu time   88.7655: real time   88.8200
       DOS:  cpu time    0.0040: real time    0.0034
    CHARGE:  cpu time    3.3322: real time    3.3338
    MIXING:  cpu time    0.0120: real time    0.0138
    --------------------------------------------
      LOOP:  cpu time   93.3258: real time   93.4297

 eigenvalue-minimisations  :  9400
 total energy-change (2. order) : 0.6935574E-01  (-0.7361264E-01)
 number of electron     400.0000000 magnetization 
 augmentation part        7.9545683 magnetization 

 Broyden mixing:
  rms(total) = 0.72855E-01    rms(broyden)= 0.72848E-01
  rms(prec ) = 0.81834E-01
  weight for this iteration     100.00

 eigenvalues of (default mixing * dielectric matrix)
  average eigenvalue GAMMA=   1.5520
  2.3323  1.5701  1.1528  1.1528

 Free energy of the ion-electron system (eV)
  ---------------------------------------------------
  alpha Z        PSCENC =       370.05370877
  Ewald energy   TEWEN  =    -15505.55135322
  -Hartree energ DENC   =     -8428.62021842
  -exchange      EXHF   =         0.00000000
  -V(xc)+E(xc)   XCENC  =       418.28778354
  PAW double counting   =     28693.72915039   -27946.74652092
  entropy T*S    EENTRO =         0.00000000
  eigenvalues    EBANDS =     -2766.97125616
  atomic energy  EATOM  =     24749.00668030
  Solvation  Ediel_sol  =         0.00000000
  ---------------------------------------------------
  free energy    TOTEN  =      -416.81202572 eV

  energy without entropy =     -416.81202572  energy(sigma->0) =     -416.81202572


--------------------------------------------------------------------------------------------------------




----------------------------------------- Iteration    1(  10)  ---------------------------------------


    POTLOK:  cpu time    0.4440: real time    0.4438
    SETDIJ:  cpu time    0.7640: real time    0.7666
     EDDAV:  cpu time   85.9894: real time   86.0400
       DOS:  cpu time    0.0000: real time    0.0008
    CHARGE:  cpu time    3.3362: real time    3.3367
    MIXING:  cpu time    0.0120: real time    0.0142
    --------------------------------------------
      LOOP:  cpu time   90.5497: real time   90.6300

 eigenvalue-minimisations  :  8992
 total energy-change (2. order) :-0.1139333E-01  (-0.1028803E-01)
 number of electron     400.0000000 magnetization 
 augmentation part        7.9312942 magnetization 

 Broyden mixing:
  rms(total) = 0.43826E-01    rms(broyden)= 0.43824E-01
  rms(prec ) = 0.50499E-01
  weight for this iteration     100.00

 eigenvalues of (default mixing * dielectric matrix)
  average eigenvalue GAMMA=   1.4650
  2.3936  1.9428  1.0743  1.0743  0.8402

 Free energy of the ion-electron system (eV)
  ---------------------------------------------------
  alpha Z        PSCENC =       370.05370877
  Ewald energy   TEWEN  =    -15505.55135322
  -Hartree energ DENC   =     -8429.41161654
  -exchange      EXHF   =         0.00000000
  -V(xc)+E(xc)   XCENC  =       418.39391595
  PAW double counting   =     28739.88269631   -27993.13427504
  entropy T*S    EENTRO =         0.00000000
  eigenvalues    EBANDS =     -2766.06317556
  atomic energy  EATOM  =     24749.00668030
  Solvation  Ediel_sol  =         0.00000000
  ---------------------------------------------------
  free energy    TOTEN  =      -416.82341905 eV

  energy without entropy =     -416.82341905  energy(sigma->0) =     -416.82341905


--------------------------------------------------------------------------------------------------------




----------------------------------------- Iteration    1(  11)  ---------------------------------------


    POTLOK:  cpu time    0.4400: real time    0.4429
    SETDIJ:  cpu time    0.7720: real time    0.7703
     EDDAV:  cpu time   92.2378: real time   92.2962
       DOS:  cpu time    0.0000: real time    0.0006
    CHARGE:  cpu time    3.3362: real time    3.3364
    MIXING:  cpu time    0.0160: real time    0.0144
    --------------------------------------------
      LOOP:  cpu time   96.8061: real time   96.9287

 eigenvalue-minimisations  :  9880
 total energy-change (2. order) :-0.1844015E-03  (-0.1230808E-02)
 number of electron     400.0000000 magnetization 
 augmentation part        7.9320999 magnetization 

 Broyden mixing:
  rms(total) = 0.19414E-01    rms(broyden)= 0.19413E-01
  rms(prec ) = 0.23095E-01
  weight for this iteration     100.00

 eigenvalues of (default mixing * dielectric matrix)
  average eigenvalue GAMMA=   1.5304
  2.4381  1.9822  1.5712  1.0612  1.0647  1.0647

 Free energy of the ion-electron system (eV)
  ---------------------------------------------------
  alpha Z        PSCENC =       370.05370877
  Ewald energy   TEWEN  =    -15505.55135322
  -Hartree energ DENC   =     -8428.77655284
  -exchange      EXHF   =         0.00000000
  -V(xc)+E(xc)   XCENC  =       418.41565092
  PAW double counting   =     28775.19367548   -28028.51541735
  entropy T*S    EENTRO =        -0.00000000
  eigenvalues    EBANDS =     -2766.64999551
  atomic energy  EATOM  =     24749.00668030
  Solvation  Ediel_sol  =         0.00000000
  ---------------------------------------------------
  free energy    TOTEN  =      -416.82360345 eV

  energy without entropy =     -416.82360345  energy(sigma->0) =     -416.82360345


--------------------------------------------------------------------------------------------------------




----------------------------------------- Iteration    1(  12)  ---------------------------------------


    POTLOK:  cpu time    0.4440: real time    0.4430
    SETDIJ:  cpu time    0.7680: real time    0.7703
     EDDAV:  cpu time   91.6337: real time   91.6878
       DOS:  cpu time    0.0000: real time    0.0011
    CHARGE:  cpu time    3.3362: real time    3.3381
    MIXING:  cpu time    0.0160: real time    0.0147
    --------------------------------------------
      LOOP:  cpu time   96.1980: real time   96.3010

 eigenvalue-minimisations  :  9736
 total energy-change (2. order) :-0.1402099E-02  (-0.8903140E-03)
 number of electron     400.0000000 magnetization 
 augmentation part        7.9430665 magnetization 

 Broyden mixing:
  rms(total) = 0.10535E-01    rms(broyden)= 0.10535E-01
  rms(prec ) = 0.12605E-01
  weight for this iteration     100.00

 eigenvalues of (default mixing * dielectric matrix)
  average eigenvalue GAMMA=   1.4827
  2.6300  2.3084  1.3031  1.3031  0.9361  0.9491  0.9491

 Free energy of the ion-electron system (eV)
  ---------------------------------------------------
  alpha Z        PSCENC =       370.05370877
  Ewald energy   TEWEN  =    -15505.55135322
  -Hartree energ DENC   =     -8429.23304049
  -exchange      EXHF   =         0.00000000
  -V(xc)+E(xc)   XCENC  =       418.47445365
  PAW double counting   =     28766.11085525   -28019.45147461
  entropy T*S    EENTRO =         0.00000000
  eigenvalues    EBANDS =     -2766.23483519
  atomic energy  EATOM  =     24749.00668030
  Solvation  Ediel_sol  =         0.00000000
  ---------------------------------------------------
  free energy    TOTEN  =      -416.82500555 eV

  energy without entropy =     -416.82500555  energy(sigma->0) =     -416.82500555


--------------------------------------------------------------------------------------------------------




----------------------------------------- Iteration    1(  13)  ---------------------------------------


    POTLOK:  cpu time    0.4440: real time    0.4435
    SETDIJ:  cpu time    0.7680: real time    0.7692
     EDDAV:  cpu time   82.2371: real time   82.2871
       DOS:  cpu time    0.0000: real time    0.0009
    CHARGE:  cpu time    3.3402: real time    3.3410
    MIXING:  cpu time    0.0120: real time    0.0149
    --------------------------------------------
      LOOP:  cpu time   86.8014: real time   86.9143

 eigenvalue-minimisations  :  8496
 total energy-change (2. order) :-0.1346840E-03  (-0.1327329E-03)
 number of electron     400.0000000 magnetization 
 augmentation part        7.9415964 magnetization 

 Broyden mixing:
  rms(total) = 0.70309E-02    rms(broyden)= 0.70306E-02
  rms(prec ) = 0.80001E-02
  weight for this iteration     100.00

 eigenvalues of (default mixing * dielectric matrix)
  average eigenvalue GAMMA=   1.4536
  2.5994  2.3774  1.5588  1.1440  0.9823  0.9823  0.9922  0.9922

 Free energy of the ion-electron system (eV)
  ---------------------------------------------------
  alpha Z        PSCENC =       370.05370877
  Ewald energy   TEWEN  =    -15505.55135322
  -Hartree energ DENC   =     -8429.55329368
  -exchange      EXHF   =         0.00000000
  -V(xc)+E(xc)   XCENC  =       418.50146245
  PAW double counting   =     28766.75771467   -28020.11034030
  entropy T*S    EENTRO =         0.00000000
  eigenvalues    EBANDS =     -2765.92971923
  atomic energy  EATOM  =     24749.00668030
  Solvation  Ediel_sol  =         0.00000000
  ---------------------------------------------------
  free energy    TOTEN  =      -416.82514023 eV

  energy without entropy =     -416.82514023  energy(sigma->0) =     -416.82514023


--------------------------------------------------------------------------------------------------------




----------------------------------------- Iteration    1(  14)  ---------------------------------------


    POTLOK:  cpu time    0.4440: real time    0.4445
    SETDIJ:  cpu time    0.7680: real time    0.7694
     EDDAV:  cpu time   82.3371: real time   82.3852
       DOS:  cpu time    0.0000: real time    0.0006
    CHARGE:  cpu time    3.3362: real time    3.3376
    MIXING:  cpu time    0.0160: real time    0.0152
    --------------------------------------------
      LOOP:  cpu time   86.9054: real time   86.9820

 eigenvalue-minimisations  :  8528
 total energy-change (2. order) :-0.4074412E-04  (-0.2750186E-04)
 number of electron     400.0000000 magnetization 
 augmentation part        7.9417563 magnetization 

 Broyden mixing:
  rms(total) = 0.29052E-02    rms(broyden)= 0.29051E-02
  rms(prec ) = 0.34110E-02
  weight for this iteration     100.00

 eigenvalues of (default mixing * dielectric matrix)
  average eigenvalue GAMMA=   1.5364
  2.7350  2.7350  1.9161  1.0531  1.0531  1.2699  0.9453  1.0598  1.0598

 Free energy of the ion-electron system (eV)
  ---------------------------------------------------
  alpha Z        PSCENC =       370.05370877
  Ewald energy   TEWEN  =    -15505.55135322
  -Hartree energ DENC   =     -8429.87174145
  -exchange      EXHF   =         0.00000000
  -V(xc)+E(xc)   XCENC  =       418.52125013
  PAW double counting   =     28761.48136777   -28014.81992703
  entropy T*S    EENTRO =         0.00000000
  eigenvalues    EBANDS =     -2765.64516624
  atomic energy  EATOM  =     24749.00668030
  Solvation  Ediel_sol  =         0.00000000
  ---------------------------------------------------
  free energy    TOTEN  =      -416.82518097 eV

  energy without entropy =     -416.82518097  energy(sigma->0) =     -416.82518097


--------------------------------------------------------------------------------------------------------




----------------------------------------- Iteration    1(  15)  ---------------------------------------


    POTLOK:  cpu time    0.4440: real time    0.4453
    SETDIJ:  cpu time    0.7680: real time    0.7675
     EDDAV:  cpu time   78.4049: real time   78.4519
       DOS:  cpu time    0.0040: real time    0.0033
    CHARGE:  cpu time    3.3322: real time    3.3371
    MIXING:  cpu time    0.0160: real time    0.0156
    --------------------------------------------
[...]
   0.626E+01 0.451E-01 0.524E+02   -.604E+01 -.506E-01 -.581E+02   -.220E+00 0.547E-02 0.572E+01   -.912E-08 -.248E-07 -.693E-08
   0.499E+01 0.496E-01 0.524E+02   -.457E+01 -.557E-01 -.581E+02   -.420E+00 0.606E-02 0.571E+01   -.230E-07 -.259E-07 -.458E-08
   0.309E+02 -.392E+02 -.971E+01   -.338E+02 0.439E+02 0.113E+02   0.290E+01 -.465E+01 -.160E+01   0.511E-08 -.601E-08 0.243E-07
   0.301E+02 -.392E+02 -.107E+02   -.330E+02 0.439E+02 0.124E+02   0.285E+01 -.465E+01 -.170E+01   -.101E-07 -.396E-08 0.292E-07
   0.301E+02 -.392E+02 -.107E+02   -.330E+02 0.439E+02 0.124E+02   0.285E+01 -.465E+01 -.170E+01   0.424E-08 -.411E-07 0.120E-07
   0.309E+02 -.392E+02 -.971E+01   -.338E+02 0.439E+02 0.113E+02   0.290E+01 -.465E+01 -.160E+01   -.180E-08 -.432E-07 0.194E-07
   0.309E+02 -.392E+02 -.971E+01   -.338E+02 0.439E+02 0.113E+02   0.290E+01 -.465E+01 -.160E+01   0.616E-08 -.111E-07 -.559E-07
   0.301E+02 -.392E+02 -.107E+02   -.330E+02 0.439E+02 0.124E+02   0.285E+01 -.465E+01 -.170E+01   -.817E-08 -.952E-08 -.602E-07
   0.301E+02 -.392E+02 -.107E+02   -.330E+02 0.439E+02 0.124E+02   0.285E+01 -.465E+01 -.170E+01   0.392E-08 -.401E-07 -.451E-07
   0.309E+02 -.392E+02 -.971E+01   -.338E+02 0.439E+02 0.113E+02   0.290E+01 -.465E+01 -.160E+01   0.325E-08 -.461E-07 -.522E-07
   0.309E+02 0.392E+02 -.979E+01   -.338E+02 -.439E+02 0.114E+02   0.289E+01 0.465E+01 -.161E+01   0.852E-08 0.435E-07 0.111E-07
   0.301E+02 0.393E+02 -.107E+02   -.329E+02 -.439E+02 0.124E+02   0.284E+01 0.465E+01 -.171E+01   -.891E-08 0.405E-07 0.196E-07
   0.301E+02 0.393E+02 -.107E+02   -.329E+02 -.439E+02 0.124E+02   0.284E+01 0.465E+01 -.171E+01   0.396E-09 0.283E-08 0.249E-07
   0.309E+02 0.392E+02 -.979E+01   -.338E+02 -.439E+02 0.114E+02   0.289E+01 0.465E+01 -.161E+01   -.313E-08 0.699E-08 0.291E-07
   0.309E+02 0.392E+02 -.979E+01   -.338E+02 -.439E+02 0.114E+02   0.289E+01 0.465E+01 -.161E+01   0.840E-08 0.442E-07 -.446E-07
   0.301E+02 0.393E+02 -.107E+02   -.329E+02 -.439E+02 0.124E+02   0.284E+01 0.465E+01 -.171E+01   -.309E-08 0.437E-07 -.521E-07
   0.301E+02 0.393E+02 -.107E+02   -.329E+02 -.439E+02 0.124E+02   0.284E+01 0.465E+01 -.171E+01   0.171E-08 0.768E-08 -.564E-07
   0.309E+02 0.392E+02 -.979E+01   -.338E+02 -.439E+02 0.114E+02   0.289E+01 0.465E+01 -.161E+01   -.169E-08 0.113E-07 -.606E-07
   -.337E+02 -.482E+02 0.168E+02   0.373E+02 0.537E+02 -.186E+02   -.360E+01 -.553E+01 0.182E+01   0.288E-07 0.623E-07 0.326E-07
   -.331E+02 -.484E+02 0.179E+02   0.367E+02 0.539E+02 -.198E+02   -.355E+01 -.553E+01 0.195E+01   0.275E-07 0.730E-07 0.252E-07
   -.331E+02 -.484E+02 0.179E+02   0.367E+02 0.539E+02 -.198E+02   -.355E+01 -.553E+01 0.195E+01   0.255E-07 0.252E-07 0.246E-07
   -.337E+02 -.482E+02 0.168E+02   0.373E+02 0.537E+02 -.186E+02   -.360E+01 -.553E+01 0.182E+01   0.153E-07 0.182E-07 0.162E-07
   -.337E+02 -.482E+02 0.168E+02   0.373E+02 0.537E+02 -.186E+02   -.360E+01 -.553E+01 0.182E+01   0.319E-07 0.657E-07 -.643E-07
   -.331E+02 -.484E+02 0.179E+02   0.367E+02 0.539E+02 -.198E+02   -.355E+01 -.553E+01 0.195E+01   0.312E-07 0.726E-07 -.643E-07
   -.331E+02 -.484E+02 0.179E+02   0.367E+02 0.539E+02 -.198E+02   -.355E+01 -.553E+01 0.195E+01   0.230E-07 0.198E-07 -.603E-07
   -.337E+02 -.482E+02 0.168E+02   0.373E+02 0.537E+02 -.186E+02   -.360E+01 -.553E+01 0.182E+01   0.171E-07 0.177E-07 -.470E-07
   -.337E+02 0.482E+02 0.167E+02   0.374E+02 -.537E+02 -.185E+02   -.360E+01 0.553E+01 0.181E+01   0.243E-07 -.203E-07 0.276E-07
   -.332E+02 0.483E+02 0.178E+02   0.367E+02 -.539E+02 -.197E+02   -.355E+01 0.553E+01 0.194E+01   0.212E-07 -.276E-07 0.103E-07
   -.332E+02 0.483E+02 0.178E+02   0.367E+02 -.539E+02 -.197E+02   -.355E+01 0.553E+01 0.194E+01   0.303E-07 -.668E-07 0.296E-07
   -.337E+02 0.482E+02 0.167E+02   0.374E+02 -.537E+02 -.185E+02   -.360E+01 0.553E+01 0.181E+01   0.215E-07 -.644E-07 0.315E-07
   -.337E+02 0.482E+02 0.167E+02   0.374E+02 -.537E+02 -.185E+02   -.360E+01 0.553E+01 0.181E+01   0.219E-07 -.160E-07 -.585E-07
   -.332E+02 0.483E+02 0.178E+02   0.367E+02 -.539E+02 -.197E+02   -.355E+01 0.553E+01 0.194E+01   0.233E-07 -.283E-07 -.491E-07
   -.332E+02 0.483E+02 0.178E+02   0.367E+02 -.539E+02 -.197E+02   -.355E+01 0.553E+01 0.194E+01   0.331E-07 -.692E-07 -.656E-07
   -.337E+02 0.482E+02 0.167E+02   0.374E+02 -.537E+02 -.185E+02   -.360E+01 0.553E+01 0.181E+01   0.250E-07 -.620E-07 -.622E-07
   0.490E+01 -.768E-01 -.647E+02   -.503E+01 0.849E-01 0.718E+02   0.132E+00 -.814E-02 -.705E+01   0.123E-07 0.257E-07 0.840E-07
   0.265E+01 -.705E-01 -.641E+02   -.252E+01 0.776E-01 0.711E+02   -.131E+00 -.708E-02 -.699E+01   -.662E-08 0.319E-07 0.837E-07
   0.265E+01 -.705E-01 -.641E+02   -.252E+01 0.776E-01 0.711E+02   -.131E+00 -.708E-02 -.699E+01   0.126E-07 -.249E-07 0.884E-07
   0.490E+01 -.768E-01 -.647E+02   -.503E+01 0.849E-01 0.718E+02   0.132E+00 -.814E-02 -.705E+01   -.745E-08 -.323E-07 0.728E-07
   0.490E+01 -.768E-01 -.647E+02   -.503E+01 0.849E-01 0.718E+02   0.132E+00 -.814E-02 -.705E+01   -.111E-07 0.159E-07 0.204E-07
   0.265E+01 -.705E-01 -.641E+02   -.252E+01 0.776E-01 0.711E+02   -.131E+00 -.708E-02 -.699E+01   -.993E-08 0.895E-08 0.281E-07
   0.265E+01 -.705E-01 -.641E+02   -.252E+01 0.776E-01 0.711E+02   -.131E+00 -.708E-02 -.699E+01   -.920E-08 -.159E-07 0.230E-07
   0.490E+01 -.768E-01 -.647E+02   -.503E+01 0.849E-01 0.718E+02   0.132E+00 -.814E-02 -.705E+01   -.134E-07 -.882E-08 0.117E-07
   -.313E+02 -.139E+01 -.117E+02   0.302E+02 0.140E+01 0.114E+02   0.112E+01 -.421E-02 0.279E+00   0.172E-07 -.453E-07 -.209E-08
   -.313E+02 0.153E+01 -.117E+02   0.302E+02 -.155E+01 0.114E+02   0.112E+01 0.143E-01 0.279E+00   -.363E-07 -.139E-07 0.507E-08
   -.313E+02 0.153E+01 -.117E+02   0.302E+02 -.155E+01 0.114E+02   0.112E+01 0.143E-01 0.279E+00   -.350E-07 0.529E-07 -.104E-07
   -.313E+02 -.139E+01 -.117E+02   0.302E+02 0.140E+01 0.114E+02   0.112E+01 -.421E-02 0.279E+00   0.247E-07 -.713E-09 -.290E-08
   -.313E+02 -.139E+01 -.117E+02   0.302E+02 0.140E+01 0.114E+02   0.112E+01 -.421E-02 0.279E+00   -.863E-07 -.700E-07 0.194E-07
   -.313E+02 0.153E+01 -.117E+02   0.302E+02 -.155E+01 0.114E+02   0.112E+01 0.143E-01 0.279E+00   0.118E-06 -.718E-07 -.137E-07
   -.313E+02 0.153E+01 -.117E+02   0.302E+02 -.155E+01 0.114E+02   0.112E+01 0.143E-01 0.279E+00   -.106E-07 0.620E-07 -.319E-07
   -.313E+02 -.139E+01 -.117E+02   0.302E+02 0.140E+01 0.114E+02   0.112E+01 -.421E-02 0.279E+00   0.598E-07 0.585E-07 0.122E-07
   -.173E+02 -.721E+00 0.562E+01   0.175E+02 0.722E+00 -.556E+01   -.164E+00 -.179E-02 -.665E-01   0.650E-08 -.137E-07 0.452E-06
   -.173E+02 0.800E+00 0.563E+01   0.175E+02 -.803E+00 -.556E+01   -.164E+00 0.304E-02 -.665E-01   0.919E-08 -.409E-09 0.496E-06
   -.173E+02 0.800E+00 0.563E+01   0.175E+02 -.803E+00 -.556E+01   -.164E+00 0.304E-02 -.665E-01   0.254E-08 0.144E-07 0.386E-06
   -.173E+02 -.721E+00 0.562E+01   0.175E+02 0.722E+00 -.556E+01   -.164E+00 -.179E-02 -.665E-01   0.553E-08 0.608E-09 0.137E-06
   -.173E+02 -.721E+00 0.562E+01   0.175E+02 0.722E+00 -.556E+01   -.164E+00 -.179E-02 -.665E-01   0.741E-08 -.142E-07 -.464E-06
   -.173E+02 0.800E+00 0.563E+01   0.175E+02 -.803E+00 -.556E+01   -.164E+00 0.304E-02 -.665E-01   0.195E-07 0.210E-08 -.506E-06
   -.173E+02 0.800E+00 0.563E+01   0.175E+02 -.803E+00 -.556E+01   -.164E+00 0.304E-02 -.665E-01   0.336E-08 0.142E-07 -.389E-06
   -.173E+02 -.721E+00 0.562E+01   0.175E+02 0.722E+00 -.556E+01   -.164E+00 -.179E-02 -.665E-01   0.138E-07 -.214E-08 -.149E-06
   -.167E+02 -.532E-01 -.161E+02   0.166E+02 0.545E-01 0.167E+02   0.524E-01 -.967E-03 -.578E+00   -.131E-07 0.128E-06 0.527E-07
   -.118E+02 -.553E-01 -.162E+02   0.117E+02 0.566E-01 0.168E+02   0.906E-01 -.972E-03 -.606E+00   0.184E-07 -.169E-07 0.510E-07
   -.118E+02 -.553E-01 -.162E+02   0.117E+02 0.566E-01 0.168E+02   0.906E-01 -.972E-03 -.606E+00   -.125E-07 -.130E-06 0.574E-07
   -.167E+02 -.532E-01 -.161E+02   0.166E+02 0.545E-01 0.167E+02   0.524E-01 -.967E-03 -.578E+00   0.119E-07 0.183E-07 0.506E-07
   -.167E+02 -.532E-01 -.161E+02   0.166E+02 0.545E-01 0.167E+02   0.524E-01 -.967E-03 -.578E+00   0.311E-07 0.201E-06 -.546E-07
   -.118E+02 -.553E-01 -.162E+02   0.117E+02 0.566E-01 0.168E+02   0.906E-01 -.972E-03 -.606E+00   0.210E-07 0.351E-06 -.301E-07
   -.118E+02 -.553E-01 -.162E+02   0.117E+02 0.566E-01 0.168E+02   0.906E-01 -.972E-03 -.606E+00   0.456E-07 -.201E-06 -.557E-07
   -.167E+02 -.532E-01 -.161E+02   0.166E+02 0.545E-01 0.167E+02   0.524E-01 -.967E-03 -.578E+00   0.734E-08 -.351E-06 -.259E-07
   0.368E+01 0.885E+00 -.252E+01   -.314E+01 -.921E+00 0.211E+01   -.540E+00 0.321E-01 0.411E+00   0.271E-07 -.307E-08 0.806E-07
   0.368E+01 -.863E+00 -.251E+01   -.314E+01 0.900E+00 0.210E+01   -.540E+00 -.333E-01 0.411E+00   -.644E-07 -.812E-08 0.817E-07
   0.368E+01 -.863E+00 -.251E+01   -.314E+01 0.900E+00 0.210E+01   -.540E+00 -.333E-01 0.411E+00   0.187E-06 0.139E-07 0.433E-07
   0.368E+01 0.885E+00 -.252E+01   -.314E+01 -.921E+00 0.211E+01   -.540E+00 0.321E-01 0.411E+00   -.203E-06 -.301E-08 0.413E-07
   0.368E+01 0.885E+00 -.252E+01   -.314E+01 -.921E+00 0.211E+01   -.540E+00 0.321E-01 0.411E+00   0.850E-07 -.140E-07 -.621E-07
   0.368E+01 -.863E+00 -.251E+01   -.314E+01 0.900E+00 0.210E+01   -.540E+00 -.333E-01 0.411E+00   -.756E-07 -.457E-08 -.655E-07
   0.368E+01 -.863E+00 -.251E+01   -.314E+01 0.900E+00 0.210E+01   -.540E+00 -.333E-01 0.411E+00   -.604E-07 0.176E-07 -.299E-07
   0.368E+01 0.885E+00 -.252E+01   -.314E+01 -.921E+00 0.211E+01   -.540E+00 0.321E-01 0.411E+00   0.579E-07 0.243E-08 -.309E-07
 -----------------------------------------------------------------------------------------------
   -.531E+02 -.109E+00 -.239E+02   0.283E-12 -.223E-12 -.688E-13   0.531E+02 0.109E+00 0.239E+02   -.132E-05 -.273E-07 -.696E-06
 
 
 POSITION                                       TOTAL-FORCE (eV/Angst)
 -----------------------------------------------------------------------------------
      2.52356      3.11370      2.92313         0.003693     -0.000029      0.000129
      8.78441      3.11454      3.03620         0.003428     -0.000030      0.000240
      2.49659      9.34235      2.96673         0.003428     -0.000030      0.000240
      8.81257      9.34343      2.99186         0.003693     -0.000029      0.000129
      2.59326      3.11374      9.29684         0.003693     -0.000029      0.000129
      8.85412      3.11458      9.40991         0.003428     -0.000030      0.000240
      2.56630      9.34239      9.34044         0.003428     -0.000030      0.000240
      8.88228      9.34347      9.36557         0.003693     -0.000029      0.000129
      3.87247      3.11508      3.53451        -0.000113     -0.000106      0.001020
     10.15314      3.11595      3.60102        -0.000136     -0.000106      0.001159
      3.86532      9.34376      3.53155        -0.000136     -0.000106      0.001159
     10.16149      9.34481      3.60324        -0.000113     -0.000106      0.001020
      3.94217      3.11513      9.90822        -0.000113     -0.000106      0.001020
     10.22285      3.11600      9.97473        -0.000136     -0.000106      0.001159
      3.93503      9.34381      9.90526        -0.000136     -0.000106      0.001159
     10.23119      9.34485      9.97695        -0.000113     -0.000106      0.001020
      2.63219      3.11256      1.82918        -0.001018     -0.000008      0.005885
      8.85506      3.11352      1.93915        -0.000870     -0.000009      0.005897
      2.56724      9.34133      1.86967        -0.000870     -0.000009      0.005897
      8.92121      9.34229      1.89791        -0.001018     -0.000008      0.005885
      2.70189      3.11261      8.20289        -0.001018     -0.000008      0.005885
      8.92477      3.11356      8.31286        -0.000870     -0.000009      0.005897
      2.63695      9.34137      8.24338        -0.000870     -0.000009      0.005897
      8.99091      9.34234      8.27162        -0.001018     -0.000008      0.005885
      1.98552      4.01625      3.24733         0.001852     -0.000894      0.001225
      8.25708      4.01677      3.37827         0.001813     -0.000908      0.001213
      1.96926     10.24458      3.30880         0.001813     -0.000908      0.001213
      8.27453     10.24598      3.31605         0.001852     -0.000894      0.001225
      2.05522      4.01629      9.62104         0.001852     -0.000894      0.001225
      8.32679      4.01682      9.75198         0.001813     -0.000908      0.001213
      2.03896     10.24463      9.68251         0.001813     -0.000908      0.001213
      8.34424     10.24602      9.68976         0.001852     -0.000894      0.001225
      1.98659      2.21120      3.24928         0.001739      0.001116      0.001148
      8.25833      2.21222      3.38002         0.001698      0.001132      0.001131
      1.97051      8.44003      3.31054         0.001698      0.001132      0.001131
      8.27561      8.44093      3.31801         0.001739      0.001116      0.001148
      2.05630      2.21125      9.62299         0.001739      0.001116      0.001148
      8.32804      2.21227      9.75373         0.001698      0.001132      0.001131
      2.04022      8.44008      9.68426         0.001698      0.001132      0.001131
      8.34532      8.44097      9.69172         0.001739      0.001116      0.001148
      4.42219      3.96108      3.25503        -0.001007     -0.001151      0.000599
     10.69377      3.96111      3.30281        -0.000987     -0.001158      0.000657
      4.40595     10.18892      3.23334        -0.000987     -0.001158      0.000657
     10.71120     10.19081      3.32376        -0.001007     -0.001151      0.000599
      4.49189      3.96113      9.62874        -0.001007     -0.001151      0.000599
     10.76348      3.96116      9.67652        -0.000987     -0.001158      0.000657
      4.47566     10.18897      9.60705        -0.000987     -0.001158      0.000657
     10.78091     10.19086      9.69747        -0.001007     -0.001151      0.000599
      4.42285      2.26883      3.25697        -0.001050      0.001307      0.000348
     10.69460      2.27067      3.30453        -0.001032      0.001314      0.000407
      4.40678      8.49848      3.23506        -0.001032      0.001314      0.000407
     10.71186      8.49855      3.32569        -0.001050      0.001307      0.000348
      4.49255      2.26887      9.63068        -0.001050      0.001307      0.000348
     10.76431      2.27071      9.67824        -0.001032      0.001314      0.000407
      4.47649      8.49852      9.60877        -0.001032      0.001314      0.000407
     10.78157      8.49860      9.69940        -0.001050      0.001307      0.000348
      3.84705      3.11628      4.57527         0.000595     -0.000044     -0.005039
     10.16696      3.11700      4.64345         0.000392     -0.000044     -0.004994
      3.87914      9.34481      4.57398         0.000392     -0.000044     -0.004994
     10.13607      9.34601      4.64400         0.000595     -0.000044     -0.005039
      3.91676      3.11632     10.94898         0.000595     -0.000044     -0.005039
     10.23666      3.11705     11.01716         0.000392     -0.000044     -0.004994
      3.94884      9.34486     10.94769         0.000392     -0.000044     -0.004994
     10.20577      9.34605     11.01771         0.000595     -0.000044     -0.005039
      6.01058      6.23186      6.29600        -0.000925      0.000085      0.002417
     12.29897      6.22828      6.36511        -0.000924     -0.000495      0.002419
      6.01115     12.45609      6.29563        -0.000924     -0.000495      0.002419
     12.29840      0.00404      6.36547        -0.000925      0.000085      0.002417
      6.08028      6.23190     12.66971        -0.000925      0.000085      0.002417
     12.36868      6.22833     12.73882        -0.000924     -0.000495      0.002419
      6.08086     12.45614     12.66934        -0.000924     -0.000495      0.002419
     12.36811      0.00409     12.73918        -0.000925      0.000085      0.002417
      5.75299      6.23076      3.09090        -0.000622     -0.000066     -0.004110
     12.04134      6.22930      3.16002        -0.000627     -0.000262     -0.004109
      5.75352     12.45711      3.09055        -0.000627     -0.000262     -0.004109
     12.04081      0.00295      3.16038        -0.000622     -0.000066     -0.004110
      5.82269      6.23080      9.46461        -0.000622     -0.000066     -0.004110
     12.11105      6.22935      9.53373        -0.000627     -0.000262     -0.004109
      5.82322     12.45716      9.46426        -0.000627     -0.000262     -0.004109
     12.11052      0.00299      9.53409        -0.000622     -0.000066     -0.004110
      5.70090      3.11498      0.20488         0.002063      0.000327     -0.006101
     11.90140      3.11595      0.28979        -0.004839      0.000328     -0.004866
      5.61358      9.34376      0.22032        -0.004839      0.000328     -0.004866
     11.98992      9.34471      0.27360         0.002063      0.000327     -0.006101
      5.77061      3.11503      6.57859         0.002063      0.000327     -0.006101
     11.97110      3.11599      6.66350        -0.004839      0.000328     -0.004866
      5.68328      9.34380      6.59403        -0.004839      0.000328     -0.004866
     12.05962      9.34476      6.64731         0.002063      0.000327     -0.006101
      2.78366      6.17711      5.90912        -0.001561     -0.004188      0.001660
      9.07207      6.28223      5.97821        -0.001564      0.003889      0.001663
      2.78305      0.05251      5.90949        -0.001564      0.003889      0.001663
      9.07267     12.40684      5.97785        -0.001561     -0.004188      0.001660
      2.85336      6.17715     12.28283        -0.001561     -0.004188      0.001660
      9.14177      6.28228     12.35192        -0.001564      0.003889      0.001663
      2.85275      0.05255     12.28320        -0.001564      0.003889      0.001663
      9.14238     12.40688     12.35156        -0.001561     -0.004188      0.001660
 -----------------------------------------------------------------------------------
    total drift:                                0.004441     -0.000033     -0.000956


--------------------------------------------------------------------------------------------------------



  FREE ENERGIE OF THE ION-ELECTRON SYSTEM (eV)
  ---------------------------------------------------
  free  energy   TOTEN  =      -416.82522808 eV

  energy  without entropy=     -416.82522808  energy(sigma->0) =     -416.82522808
 


--------------------------------------------------------------------------------------------------------


    POTLOK:  cpu time    1.2241: real time    1.2281


--------------------------------------------------------------------------------------------------------


     LOOP+:  cpu time 3784.1925: real time 3788.6940
    4ORBIT:  cpu time    0.0000: real time    0.0000

 total amount of memory used by VASP on root node   697522. kBytes
========================================================================

   base      :      30000. kBytes
   nonl-proj :     325712. kBytes
   fftplans  :      80881. kBytes
   grid      :      57435. kBytes
   one-center:        497. kBytes
   wavefun   :     202997. kBytes
 
  
  
 General timing and accounting informations for this job:
 ========================================================
  
                  Total CPU time used (sec):     3813.882
                            User time (sec):     3812.322
                          System time (sec):        1.560
                         Elapsed time (sec):     3820.530
  
                   Maximum memory used (kb):      650032.
                   Average memory used (kb):           0.
  
                          Minor page faults:       293485
                          Major page faults:            0
                 Voluntary context switches:         1294
