       N       E                     dE             d eps       ncg     rms          rms(c)
DAV:   1     0.422729748170E+04    0.42273E+04   -0.19298E+05 32544   0.146E+03
DAV:   2     0.844139715727E+03   -0.33832E+04   -0.31336E+04 35584   0.322E+02
DAV:   3     0.234132625225E+03   -0.61001E+03   -0.58974E+03 44000   0.157E+02
DAV:   4     0.188351363047E+03   -0.45781E+02   -0.44695E+02 44056   0.438E+01
DAV:   5     0.186095081128E+03   -0.22563E+01   -0.22474E+01 50248   0.997E+00    0.980E+01
DAV:   6     0.554942957908E+02   -0.13060E+03   -0.15194E+03 37112   0.505E+01    0.488E+01
DAV:   7    -0.938869488342E+02   -0.14938E+03   -0.15933E+02 39120   0.218E+01    0.284E+01
DAV:   8    -0.202044374734E+03   -0.10816E+03   -0.64687E+01 37528   0.130E+01    0.184E+01
DAV:   9    -0.334344523728E+03   -0.13230E+03   -0.12474E+02 36712   0.162E+01    0.917E+00
DAV:  10    -0.381502417966E+03   -0.47158E+02   -0.46914E+01 37064   0.103E+01    0.662E+00
DAV:  11    -0.410420946283E+03   -0.28919E+02   -0.39690E+01 38088   0.826E+00    0.381E+00
DAV:  12    -0.421190450302E+03   -0.10770E+02   -0.16805E+01 41096   0.542E+00    0.253E+00
DAV:  13    -0.422875347440E+03   -0.16849E+01   -0.25701E+00 39824   0.258E+00    0.208E+00
DAV:  14    -0.423490706501E+03   -0.61536E+00   -0.93188E-01 38904   0.135E+00    0.113E+00
DAV:  15    -0.423547219824E+03   -0.56513E-01   -0.18011E-01 42232   0.713E-01    0.639E-01
DAV:  16    -0.423554127715E+03   -0.69079E-02   -0.27789E-02 41712   0.312E-01    0.408E-01
DAV:  17    -0.423557437728E+03   -0.33100E-02   -0.96977E-03 39032   0.169E-01    0.225E-01
DAV:  18    -0.423559065129E+03   -0.16274E-02   -0.28640E-03 40232   0.936E-02    0.822E-02
DAV:  19    -0.423559481421E+03   -0.41629E-03   -0.70404E-04 40080   0.511E-02    0.453E-02
DAV:  20    -0.423559739626E+03   -0.25820E-03   -0.20907E-04 37768   0.284E-02    0.240E-02
DAV:  21    -0.423559867705E+03   -0.12808E-03   -0.12798E-04 38264   0.192E-02    0.143E-02
DAV:  22    -0.423559876524E+03   -0.88194E-05   -0.18924E-05 44272   0.854E-03    0.997E-03
DAV:  23    -0.423559878228E+03   -0.17034E-05   -0.62971E-06 39728   0.398E-03    0.413E-03
DAV:  24    -0.423559880668E+03   -0.24401E-05   -0.27052E-06 34856   0.303E-03    0.167E-03
DAV:  25    -0.423559880780E+03   -0.11238E-06   -0.67882E-07 41792   0.144E-03    0.143E-03
DAV:  26    -0.423559880783E+03   -0.23501E-08   -0.12161E-07 43896   0.739E-04    0.105E-03
DAV:  27    -0.423559880736E+03    0.46763E-07   -0.34710E-08 34344   0.415E-04    0.371E-04
DAV:  28    -0.423559880631E+03    0.10467E-06   -0.27800E-08 31400   0.331E-04    0.273E-04
DAV:  29    -0.423559880627E+03    0.39581E-08   -0.44685E-09 30304   0.163E-04
   1 F= -.42355988E+03 E0= -.42355988E+03  d E =0.000000E+00  mag=     0.0000     0.0000     0.0000
