 vasp.5.4.1 24Jun15 (build Nov 25 2015 16:39:35) complex                        
  
 executed on         CrayXC-Intel date 2016.06.22  00:47:57
 running on  192 total cores
 distrk:  each k-point on  192 cores,    1 groups
 distr:  one band on NCORES_PER_BAND=  24 cores,    8 groups


--------------------------------------------------------------------------------------------------------


 INCAR:
 POTCAR:    PAW_PBE C 08Apr2002                   
 POTCAR:    PAW_PBE N 08Apr2002                   
 POTCAR:    PAW_PBE H 15Jun2001                   
 POTCAR:    PAW_PBE Pb_d 06Sep2000                
 POTCAR:    PAW_PBE I 08Apr2002                   
 POTCAR:    PAW_PBE C 08Apr2002                   
   VRHFIN =C: s2p2                                                              
   LEXCH  = PE                                                                  
   EATOM  =   147.1560 eV,   10.8157 Ry                                         
                                                                                
   TITEL  = PAW_PBE C 08Apr2002                                                 
   LULTRA =        F    use ultrasoft PP ?                                      
   IUNSCR =        1    unscreen: 0-lin 1-nonlin 2-no                           
   RPACOR =    1.200    partial core radius                                     
   POMASS =   12.011; ZVAL   =    4.000    mass and valenz                      
   RCORE  =    1.500    outmost cutoff radius                                   
   RWIGS  =    1.630; RWIGS  =    0.863    wigner-seitz radius (au A)           
   ENMAX  =  400.000; ENMIN  =  300.000 eV                                      
   ICORE  =        2    local potential                                         
   LCOR   =        T    correct aug charges                                     
   LPAW   =        T    paw PP                                                  
   EAUG   =  644.873                                                            
   DEXC   =    0.000                                                            
   RMAX   =    1.529    core radius for proj-oper                               
   RAUG   =    1.300    factor for augmentation sphere                          
   RDEP   =    1.501    radius for radial grids                                 
   RDEPT  =    1.300    core radius for aug-charge                              
                                                                                
   Atomic configuration                                                         
    4 entries                                                                   
     n  l   j            E        occ.                                          
     1  0  0.50      -273.3789   2.0000                                         
     2  0  0.50       -13.7508   2.0000                                         
     2  1  0.50        -5.2854   2.0000                                         
     3  2  1.50        -5.4423   0.0000                                         
   Description                                                                  
     l       E           TYP  RCUT    TYP  RCUT                                 
     0    -13.7508458     23  1.200                                             
     0     -8.2022199     23  1.200                                             
     1     -5.2854383     23  1.500                                             
     1     34.0145650     23  1.500                                             
     2     -5.4423304      7  1.500                                             
  local pseudopotential read in
  partial core-charges read in
  partial kinetic energy density read in
  atomic valenz-charges read in
  non local Contribution for L=           0  read in
    real space projection operators read in
  non local Contribution for L=           0  read in
    real space projection operators read in
  non local Contribution for L=           1  read in
    real space projection operators read in
  non local Contribution for L=           1  read in
    real space projection operators read in
    PAW grid and wavefunctions read in
 
   number of l-projection  operators is LMAX  =           4
   number of lm-projection operators is LMMAX =           8
 
 POTCAR:    PAW_PBE N 08Apr2002                   
   VRHFIN =N: s2p3                                                              
   LEXCH  = PE                                                                  
   EATOM  =   264.5486 eV,   19.4438 Ry                                         
                                                                                
   TITEL  = PAW_PBE N 08Apr2002                                                 
   LULTRA =        F    use ultrasoft PP ?                                      
   IUNSCR =        1    unscreen: 0-lin 1-nonlin 2-no                           
   RPACOR =    1.200    partial core radius                                     
   POMASS =   14.001; ZVAL   =    5.000    mass and valenz                      
   RCORE  =    1.500    outmost cutoff radius                                   
   RWIGS  =    1.400; RWIGS  =    0.741    wigner-seitz radius (au A)           
   ENMAX  =  400.000; ENMIN  =  300.000 eV                                      
   ICORE  =        2    local potential                                         
   LCOR   =        T    correct aug charges                                     
   LPAW   =        T    paw PP                                                  
   EAUG   =  627.112                                                            
   DEXC   =    0.000                                                            
   RMAX   =    1.529    core radius for proj-oper                               
   RAUG   =    1.300    factor for augmentation sphere                          
   RDEP   =    1.514    radius for radial grids                                 
   RDEPT  =    1.338    core radius for aug-charge                              
                                                                                
   Atomic configuration                                                         
    4 entries                                                                   
     n  l   j            E        occ.                                          
     1  0  0.50      -384.7179   2.0000                                         
     2  0  0.50       -18.5828   2.0000                                         
     2  1  0.50        -7.0898   3.0000                                         
     3  2  1.50        -6.8029   0.0000                                         
   Description                                                                  
     l       E           TYP  RCUT    TYP  RCUT                                 
     0    -18.5828119     23  1.200                                             
     0    -13.5018863     23  1.200                                             
     1     -7.0897853     23  1.500                                             
     1      9.5240782     23  1.500                                             
     2     -6.8029130      7  1.500                                             
  local pseudopotential read in
  partial core-charges read in
  partial kinetic energy density read in
  atomic valenz-charges read in
  non local Contribution for L=           0  read in
    real space projection operators read in
  non local Contribution for L=           0  read in
    real space projection operators read in
  non local Contribution for L=           1  read in
    real space projection operators read in
  non local Contribution for L=           1  read in
    real space projection operators read in
    PAW grid and wavefunctions read in
 
   number of l-projection  operators is LMAX  =           4
   number of lm-projection operators is LMMAX =           8
 
 POTCAR:    PAW_PBE H 15Jun2001                   
   VRHFIN =H: ultrasoft test                                                    
   LEXCH  = PE                                                                  
   EATOM  =    12.4884 eV,    0.9179 Ry                                         
                                                                                
   TITEL  = PAW_PBE H 15Jun2001                                                 
   LULTRA =        F    use ultrasoft PP ?                                      
   IUNSCR =        0    unscreen: 0-lin 1-nonlin 2-no                           
   RPACOR =    0.000    partial core radius                                     
   POMASS =    1.000; ZVAL   =    1.000    mass and valenz                      
   RCORE  =    1.100    outmost cutoff radius                                   
   RWIGS  =    0.700; RWIGS  =    0.370    wigner-seitz radius (au A)           
   ENMAX  =  250.000; ENMIN  =  200.000 eV                                      
   RCLOC  =    0.701    cutoff for local pot                                    
   LCOR   =        T    correct aug charges                                     
   LPAW   =        T    paw PP                                                  
   EAUG   =  400.000                                                            
   RMAX   =    1.123    core radius for proj-oper                               
   RAUG   =    1.200    factor for augmentation sphere                          
   RDEP   =    1.112    radius for radial grids                                 
   RDEPT  =    0.926    core radius for aug-charge                              
                                                                                
   Atomic configuration                                                         
    2 entries                                                                   
     n  l   j            E        occ.                                          
     1  0  0.50        -6.4927   1.0000                                         
     2  1  0.50        -3.4015   0.0000                                         
   Description                                                                  
     l       E           TYP  RCUT    TYP  RCUT                                 
     0     -6.4927494     23  1.100                                             
     0      6.8029130     23  1.100                                             
     1     -4.0817478     23  1.100                                             
  local pseudopotential read in
  atomic valenz-charges read in
  non local Contribution for L=           0  read in
    real space projection operators read in
  non local Contribution for L=           0  read in
    real space projection operators read in
  non local Contribution for L=           1  read in
    real space projection operators read in
    PAW grid and wavefunctions read in
 
   number of l-projection  operators is LMAX  =           3
   number of lm-projection operators is LMMAX =           5
 
 POTCAR:    PAW_PBE Pb_d 06Sep2000                
   VRHFIN =Pb:                                                                  
   LEXCH  = PE                                                                  
   EATOM  =  1661.6185 eV,  122.1255 Ry                                         
                                                                                
   TITEL  = PAW_PBE Pb_d 06Sep2000                                              
   LULTRA =        F    use ultrasoft PP ?                                      
   IUNSCR =        1    unscreen: 0-lin 1-nonlin 2-no                           
   RPACOR =    2.200    partial core radius                                     
   POMASS =  207.200; ZVAL   =   14.000    mass and valenz                      
   RCORE  =    2.500    outmost cutoff radius                                   
   RWIGS  =    3.260; RWIGS  =    1.725    wigner-seitz radius (au A)           
   ENMAX  =  237.835; ENMIN  =  178.376 eV                                      
   ICORE  =        3    local potential                                         
   LCOR   =        T    correct aug charges                                     
   LPAW   =        T    paw PP                                                  
   EAUG   =  391.914                                                            
   DEXC   =    0.000                                                            
   RMAX   =    2.565    core radius for proj-oper                               
   RAUG   =    1.300    factor for augmentation sphere                          
   RDEP   =    2.643    radius for radial grids                                 
   RDEPT  =    2.092    core radius for aug-charge                              
                                                                                
   Atomic configuration                                                         
   16 entries                                                                   
     n  l   j            E        occ.                                          
     1  0  0.50    -88091.8466   2.0000                                         
     2  0  0.50    -15753.4197   2.0000                                         
     2  1  1.50    -13508.1797   6.0000                                         
     3  0  0.50     -3781.7194   2.0000                                         
     3  1  1.50     -3138.2529   6.0000                                         
     3  2  2.50     -2483.2977  10.0000                                         
     4  0  0.50      -856.2895   2.0000                                         
     4  1  1.50      -645.4942   6.0000                                         
     4  2  2.50      -401.8768  10.0000                                         
     4  3  3.50      -132.9059  14.0000                                         
     5  0  0.50      -144.0950   2.0000                                         
     5  1  1.50       -85.7879   6.0000                                         
     5  2  2.50       -21.1769  10.0000                                         
     6  0  0.50       -12.0372   2.0000                                         
     6  1  1.50        -3.4971   2.0000                                         
     5  3  2.50        -2.7212   0.0000                                         
   Description                                                                  
     l       E           TYP  RCUT    TYP  RCUT                                 
     2    -21.1768523     23  2.500                                             
     2      1.3605826     23  2.500                                             
     0    -12.0371562     23  2.500                                             
     0     13.6058260     23  2.500                                             
     1     -3.4971339     23  2.500                                             
     1     13.6058260     23  2.500                                             
     3     -1.3605826      7  2.500                                             
  local pseudopotential read in
  partial core-charges read in
  partial kinetic energy density read in
  atomic valenz-charges read in
  non local Contribution for L=           2  read in
    real space projection operators read in
  non local Contribution for L=           2  read in
    real space projection operators read in
  non local Contribution for L=           0  read in
    real space projection operators read in
  non local Contribution for L=           0  read in
    real space projection operators read in
  non local Contribution for L=           1  read in
    real space projection operators read in
  non local Contribution for L=           1  read in
    real space projection operators read in
    PAW grid and wavefunctions read in
 
   number of l-projection  operators is LMAX  =           6
   number of lm-projection operators is LMMAX =          18
 
 POTCAR:    PAW_PBE I 08Apr2002                   
   VRHFIN =I : s2p5                                                             
   LEXCH  = PE                                                                  
   EATOM  =   315.8678 eV,   23.2156 Ry                                         
                                                                                
   TITEL  = PAW_PBE I 08Apr2002                                                 
   LULTRA =        F    use ultrasoft PP ?                                      
   IUNSCR =        1    unscreen: 0-lin 1-nonlin 2-no                           
   RPACOR =    2.200    partial core radius                                     
   POMASS =  126.904; ZVAL   =    7.000    mass and valenz                      
   RCORE  =    2.300    outmost cutoff radius                                   
   RWIGS  =    2.810; RWIGS  =    1.487    wigner-seitz radius (au A)           
   ENMAX  =  175.647; ENMIN  =  131.735 eV                                      
   ICORE  =        3    local potential                                         
   LCOR   =        T    correct aug charges                                     
   LPAW   =        T    paw PP                                                  
   EAUG   =  370.139                                                            
   DEXC   =    0.000                                                            
   RMAX   =    2.359    core radius for proj-oper                               
   RAUG   =    1.300    factor for augmentation sphere                          
   RDEP   =    2.392    radius for radial grids                                 
   RDEPT  =    2.170    core radius for aug-charge                              
                                                                                
   Atomic configuration                                                         
   13 entries                                                                   
     n  l   j            E        occ.                                          
     1  0  0.50    -32976.3739   2.0000                                         
     2  0  0.50     -5094.5933   2.0000                                         
     2  1  1.50     -4572.0131   6.0000                                         
     3  0  0.50     -1028.2813   2.0000                                         
     3  1  1.50      -859.0250   6.0000                                         
     3  2  2.50      -605.7620  10.0000                                         
     4  0  0.50      -180.5540   2.0000                                         
     4  1  1.50      -127.5306   6.0000                                         
     4  2  2.50       -50.2720  10.0000                                         
     5  0  0.50       -17.4058   2.0000                                         
     5  1  0.50        -7.0851   5.0000                                         
     5  2  1.50        -7.0750   0.0000                                         
     4  3  2.50        -7.0750   0.0000                                         
   Description                                                                  
     l       E           TYP  RCUT    TYP  RCUT                                 
     0    -17.4058016     23  2.300                                             
     0    -18.7663842     23  2.300                                             
     1     -7.0850686     23  2.300                                             
     1     -4.2150896     23  2.300                                             
     2     -7.0750295     23  2.300                                             
     3     -1.3605826     23  2.300                                             
  local pseudopotential read in
  partial core-charges read in
  partial kinetic energy density read in
  atomic valenz-charges read in
  non local Contribution for L=           0  read in
    real space projection operators read in
  non local Contribution for L=           0  read in
    real space projection operators read in
  non local Contribution for L=           1  read in
    real space projection operators read in
  non local Contribution for L=           1  read in
    real space projection operators read in
  non local Contribution for L=           2  read in
    real space projection operators read in
    PAW grid and wavefunctions read in
 
   number of l-projection  operators is LMAX  =           5
   number of lm-projection operators is LMMAX =          13
 

 ----------------------------------------------------------------------------- 
|                                                                             |
|  ADVICE TO THIS USER RUNNING 'VASP/VAMP'   (HEAR YOUR MASTER'S VOICE ...):  |
|                                                                             |
|      You have a (more or less) 'large supercell' and for larger cells       |
|      it might be more efficient to use real space projection opertators     |
|      So try LREAL= Auto  in the INCAR   file.                               |
|      Mind: At the moment your POTCAR file does not contain real space       |
|       projectors, and has to be modified,  BUT if you                       |
|      want to do an extremely  accurate calculation you might also keep the  |
|      reciprocal projection scheme          (i.e. LREAL=.FALSE.)             |
|                                                                             |
 ----------------------------------------------------------------------------- 


 ----------------------------------------------------------------------------- 
|                                                                             |
|  ADVICE TO THIS USER RUNNING 'VASP/VAMP'   (HEAR YOUR MASTER'S VOICE ...):  |
|                                                                             |
|      You enforced a specific xc-type in the INCAR file,                     |
|      a different type was found on the POTCAR file                          |
|          I HOPE YOU KNOW, WHAT YOU ARE  DOING                               |
|                                                                             |
 ----------------------------------------------------------------------------- 

  PAW_PBE C 08Apr2002                   :
 energy of atom  1       EATOM= -147.1560
 kinetic energy error for atom=    0.0032 (will be added to EATOM!!)
  PAW_PBE N 08Apr2002                   :
 energy of atom  2       EATOM= -264.5486
 kinetic energy error for atom=    0.0061 (will be added to EATOM!!)
  PAW_PBE H 15Jun2001                   :
 energy of atom  3       EATOM=  -12.4884
 kinetic energy error for atom=    0.0002 (will be added to EATOM!!)
  PAW_PBE Pb_d 06Sep2000                :
 energy of atom  4       EATOM=-1661.6185
 kinetic energy error for atom=    0.0012 (will be added to EATOM!!)
  PAW_PBE I 08Apr2002                   :
 energy of atom  5       EATOM= -315.8678
 kinetic energy error for atom=    0.0003 (will be added to EATOM!!)
 
 
 POSCAR: C N H Pb I                              
  positions in direct lattice
  No initial velocities read in
 exchange correlation table for  LEXCH =       14
   RHO(1)=    0.500       N(1)  =     2000
   RHO(2)=  100.500       N(2)  =     4000
 


--------------------------------------------------------------------------------------------------------


 ion  position               nearest neighbor table
   1  0.198  0.250  0.229-  25 1.10  33 1.10  17 1.10   9 1.49
   2  0.696  0.250  0.229-  26 1.10  34 1.10  18 1.10  10 1.49
   3  0.196  0.750  0.229-  27 1.10  35 1.10  19 1.10  11 1.49
   4  0.698  0.750  0.229-  28 1.10  36 1.10  20 1.10  12 1.49
   5  0.196  0.250  0.729-  29 1.10  37 1.10  21 1.10  13 1.49
   6  0.698  0.250  0.729-  30 1.10  38 1.10  22 1.10  14 1.49
   7  0.198  0.750  0.729-  31 1.10  39 1.10  23 1.10  15 1.49
   8  0.696  0.750  0.729-  32 1.10  40 1.10  24 1.10  16 1.49
   9  0.309  0.250  0.264-  41 1.05  49 1.05  57 1.05   1 1.49
  10  0.800  0.250  0.284-  58 1.04  42 1.05  50 1.05   2 1.49
  11  0.300  0.750  0.284-  59 1.04  43 1.05  51 1.05   3 1.49
  12  0.809  0.750  0.264-  44 1.05  52 1.05  60 1.05   4 1.49
  13  0.300  0.250  0.784-  61 1.04  45 1.05  53 1.05   5 1.49
  14  0.809  0.250  0.764-  46 1.05  54 1.05  62 1.05   6 1.49
  15  0.309  0.750  0.764-  47 1.05  55 1.05  63 1.05   7 1.49
  16  0.800  0.750  0.784-  64 1.04  48 1.05  56 1.05   8 1.49
  17  0.197  0.250  0.142-   1 1.10
  18  0.713  0.250  0.144-   2 1.10
  19  0.213  0.750  0.144-   3 1.10
  20  0.697  0.750  0.142-   4 1.10
  21  0.213  0.250  0.644-   5 1.10
  22  0.697  0.250  0.642-   6 1.10
  23  0.197  0.750  0.642-   7 1.10
  24  0.713  0.750  0.644-   8 1.10
  25  0.157  0.322  0.259-   1 1.10
  26  0.652  0.322  0.252-   2 1.10
  27  0.152  0.822  0.252-   3 1.10
  28  0.657  0.822  0.259-   4 1.10
  29  0.152  0.322  0.752-   5 1.10
  30  0.657  0.322  0.759-   6 1.10
  31  0.157  0.822  0.759-   7 1.10
  32  0.652  0.822  0.752-   8 1.10
  33  0.157  0.177  0.259-   1 1.10
  34  0.652  0.177  0.252-   2 1.10
  35  0.152  0.677  0.252-   3 1.10
  36  0.657  0.677  0.259-   4 1.10
  37  0.152  0.177  0.752-   5 1.10
  38  0.657  0.177  0.759-   6 1.10
  39  0.157  0.677  0.759-   7 1.10
  40  0.652  0.677  0.752-   8 1.10
  41  0.351  0.318  0.237-   9 1.05
  42  0.845  0.318  0.265-  10 1.05
  43  0.345  0.818  0.265-  11 1.05
  44  0.851  0.818  0.237-  12 1.05
  45  0.345  0.318  0.765-  13 1.05
  46  0.851  0.318  0.737-  14 1.05
  47  0.351  0.818  0.737-  15 1.05
  48  0.845  0.818  0.765-  16 1.05
  49  0.351  0.182  0.237-   9 1.05
  50  0.845  0.182  0.265-  10 1.05
  51  0.345  0.682  0.265-  11 1.05
  52  0.851  0.682  0.237-  12 1.05
  53  0.345  0.182  0.765-  13 1.05
  54  0.851  0.182  0.737-  14 1.05
  55  0.351  0.682  0.737-  15 1.05
  56  0.845  0.682  0.765-  16 1.05
  57  0.317  0.250  0.346-   9 1.05
  58  0.790  0.250  0.365-  10 1.04
  59  0.290  0.750  0.365-  11 1.04
  60  0.817  0.750  0.346-  12 1.05
  61  0.290  0.250  0.865-  13 1.04
  62  0.817  0.250  0.846-  14 1.05
  63  0.317  0.750  0.846-  15 1.05
  64  0.790  0.750  0.865-  16 1.04
  65  0.472  0.499  0.489-  90 3.09  87 3.14  85 3.16  77 3.17  73 3.22  89 3.26
  66  0.972  0.501  0.489-  89 3.09  86 3.14  88 3.16  78 3.17  74 3.22  90 3.26
  67  0.472  0.001  0.489-  92 3.09  87 3.14  85 3.16  79 3.17  75 3.22  91 3.26
  68  0.972  0.999  0.489-  91 3.09  86 3.14  88 3.16  80 3.17  76 3.22  92 3.26
  69  0.472  0.501  0.989-  94 3.09  81 3.14  83 3.16  73 3.17  77 3.22  93 3.26
  70  0.972  0.499  0.989-  93 3.09  84 3.14  82 3.16  74 3.17  78 3.22  94 3.26
  71  0.472  0.999  0.989-  96 3.09  81 3.14  83 3.16  75 3.17  79 3.22  95 3.26
  72  0.972  0.001  0.989-  95 3.09  84 3.14  82 3.16  76 3.17  80 3.22  96 3.26
  73  0.455  0.503  0.238-  69 3.17  65 3.22
  74  0.955  0.497  0.238-  70 3.17  66 3.22
  75  0.455  0.997  0.238-  71 3.17  67 3.22
  76  0.955  0.003  0.238-  72 3.17  68 3.22
  77  0.455  0.497  0.738-  65 3.17  69 3.22
  78  0.955  0.503  0.738-  66 3.17  70 3.22
  79  0.455  0.003  0.738-  67 3.17  71 3.22
  80  0.955  0.997  0.738-  68 3.17  72 3.22
  81  0.470  0.250  0.011-  71 3.14  69 3.14
  82  0.929  0.250  0.013-  72 3.16  70 3.16
  83  0.429  0.750  0.013-  69 3.16  71 3.16
  84  0.970  0.750  0.011-  70 3.14  72 3.14
  85  0.429  0.250  0.513-  67 3.16  65 3.16
  86  0.970  0.250  0.511-  68 3.14  66 3.14
  87  0.470  0.750  0.511-  65 3.14  67 3.14
  88  0.929  0.750  0.513-  66 3.16  68 3.16
  89  0.216  0.523  0.461-  66 3.09  65 3.26
  90  0.716  0.477  0.461-  65 3.09  66 3.26
  91  0.216  0.977  0.461-  68 3.09  67 3.26
  92  0.716  0.023  0.461-  67 3.09  68 3.26
  93  0.216  0.477  0.961-  70 3.09  69 3.26
  94  0.716  0.523  0.961-  69 3.09  70 3.26
  95  0.216  0.023  0.961-  72 3.09  71 3.26
  96  0.716  0.977  0.961-  71 3.09  72 3.26
 
  LATTYP: Found a triclinic cell.
 ALAT       =    17.8238589327
 B/A-ratio  =     0.6989248630
 C/A-ratio  =     1.0156975818
 COS(alpha) =     0.0001355172
 COS(beta)  =     0.5146378593
 COS(gamma) =     0.6988877578
  
  Lattice vectors:
  
 A1 = (  -0.1406063366, -12.4576271275, -12.7466742118)
 A2 = (  -0.0011956322, -12.4575380825,   0.0007464135)
 A3 = ( -12.7162481321,  -0.0020049566, -12.8856194186)


Analysis of symmetry for initial positions (statically):
=====================================================================
 Subroutine PRICEL returns following result:
 
  LATTYP: Found a triclinic cell.
 ALAT       =     8.8524544993
 B/A-ratio  =     1.4072411401
 C/A-ratio  =     1.0225215175
 COS(alpha) =     0.0001355172
 COS(beta)  =     0.5046167836
 COS(gamma) =     0.7037964938
  
  Lattice vectors:
  
 A1 = (   6.2890165300,   6.2297269971,   0.0687261899)
 A2 = (   0.0011956322,  12.4575380825,  -0.0007464135)
 A3 = (   6.3581240661,   0.0010024783,   6.4428097093)
 
   4 primitive cells build up your supercell.
 

 Routine SETGRP: Setting up the symmetry group for a 
 triclinic supercell.


 Subroutine GETGRP returns: Found  1 space group operations
 (whereof  1 operations were pure point group operations)
 out of a pool of  2 trial point group operations.


The static configuration has the point symmetry C_1 .


Analysis of symmetry for dynamics (positions and initial velocities):
=====================================================================
 Subroutine PRICEL returns following result:
 
  LATTYP: Found a triclinic cell.
 ALAT       =     8.8524544993
 B/A-ratio  =     1.4072411401
 C/A-ratio  =     1.0225215175
 COS(alpha) =     0.0001355172
 COS(beta)  =     0.5046167836
 COS(gamma) =     0.7037964938
  
  Lattice vectors:
  
 A1 = (   6.2890165300,   6.2297269971,   0.0687261899)
 A2 = (   0.0011956322,  12.4575380825,  -0.0007464135)
 A3 = (   6.3581240661,   0.0010024783,   6.4428097093)
 
   4 primitive cells build up your supercell.
 

 Routine SETGRP: Setting up the symmetry group for a 
 triclinic supercell.


 Subroutine GETGRP returns: Found  1 space group operations
 (whereof  1 operations were pure point group operations)
 out of a pool of  2 trial point group operations.


The dynamic configuration has the point symmetry C_1 .


Analysis of structural, dynamic, and magnetic symmetry:
=====================================================================
 Subroutine PRICEL returns following result:
 
  LATTYP: Found a triclinic cell.
 ALAT       =     8.8524544993
 B/A-ratio  =     1.4072411401
 C/A-ratio  =     1.0225215175
 COS(alpha) =     0.0001355172
 COS(beta)  =     0.5046167836
 COS(gamma) =     0.7037964938
  
  Lattice vectors:
  
 A1 = (   6.2890165300,   6.2297269971,   0.0687261899)
 A2 = (   0.0011956322,  12.4575380825,  -0.0007464135)
 A3 = (   6.3581240661,   0.0010024783,   6.4428097093)
 
   4 primitive cells build up your supercell.
 

 Routine SETGRP: Setting up the symmetry group for a 
 triclinic supercell.


 Subroutine GETGRP returns: Found  1 space group operations
 (whereof  1 operations were pure point group operations)
 out of a pool of  2 trial point group operations.


The (compounded) configuration has the point symmetry C_1 .


 Subroutine INISYM returns: Found  1 space group operations
 (whereof  1 operations are pure point group operations),
 and found     4 'primitive' translations

 
 
 KPOINTS: Automatic 3x3x3                         

Automatic generation of k-mesh.
Space group operators:
 irot       det(A)        alpha          n_x          n_y          n_z        tau_x        tau_y        tau_z
    1     1.000000     0.000000     1.000000     0.000000     0.000000     0.000000     0.000000     0.000000
 
 Subroutine IBZKPT returns following result:
 ===========================================
 
 Found     27 irreducible k-points:
 
 Following reciprocal coordinates:
            Coordinates               Weight
  0.000000  0.000000  0.000000      1.000000
  0.333333 -0.000000 -0.000000      1.000000
 -0.333333  0.000000  0.000000      1.000000
  0.000000  0.333333 -0.000000      1.000000
  0.333333  0.333333  0.000000      1.000000
 -0.333333  0.333333  0.000000      1.000000
 -0.000000 -0.333333  0.000000      1.000000
  0.333333 -0.333333 -0.000000      1.000000
 -0.333333 -0.333333 -0.000000      1.000000
  0.000000  0.000000  0.333333      1.000000
  0.333333  0.000000  0.333333      1.000000
 -0.333333  0.000000  0.333333      1.000000
  0.000000  0.333333  0.333333      1.000000
  0.333333  0.333333  0.333333      1.000000
 -0.333333  0.333333  0.333333      1.000000
  0.000000 -0.333333  0.333333      1.000000
  0.333333 -0.333333  0.333333      1.000000
 -0.333333 -0.333333  0.333333      1.000000
  0.000000  0.000000 -0.333333      1.000000
  0.333333 -0.000000 -0.333333      1.000000
 -0.333333 -0.000000 -0.333333      1.000000
 -0.000000  0.333333 -0.333333      1.000000
  0.333333  0.333333 -0.333333      1.000000
 -0.333333  0.333333 -0.333333      1.000000
 -0.000000 -0.333333 -0.333333      1.000000
  0.333333 -0.333333 -0.333333      1.000000
 -0.333333 -0.333333 -0.333333      1.000000
 
 Following cartesian coordinates:
            Coordinates               Weight
  0.000000  0.000000  0.000000      1.000000
  0.026507 -0.000003 -0.000290      1.000000
 -0.026507  0.000003  0.000290      1.000000
 -0.000004  0.026758 -0.000000      1.000000
  0.026503  0.026755 -0.000290      1.000000
 -0.026511  0.026760  0.000290      1.000000
  0.000004 -0.026758  0.000000      1.000000
  0.026511 -0.026760 -0.000290      1.000000
 -0.026503 -0.026755  0.000290      1.000000
 -0.000287  0.000002  0.026152      1.000000
  0.026220 -0.000001  0.025862      1.000000
 -0.026794  0.000004  0.026442      1.000000
 -0.000291  0.026759  0.026152      1.000000
  0.026215  0.026757  0.025862      1.000000
 -0.026798  0.026762  0.026442      1.000000
 -0.000283 -0.026756  0.026152      1.000000
  0.026224 -0.026759  0.025862      1.000000
 -0.026790 -0.026753  0.026442      1.000000
  0.000287 -0.000002 -0.026152      1.000000
  0.026794 -0.000004 -0.026442      1.000000
 -0.026220  0.000001 -0.025862      1.000000
  0.000283  0.026756 -0.026152      1.000000
  0.026790  0.026753 -0.026442      1.000000
 -0.026224  0.026759 -0.025862      1.000000
  0.000291 -0.026759 -0.026152      1.000000
  0.026798 -0.026762 -0.026442      1.000000
 -0.026215 -0.026757 -0.025862      1.000000
 


--------------------------------------------------------------------------------------------------------




 Dimension of arrays:
   k-points           NKPTS =     27   k-points in BZ     NKDIM =     27   number of bands    NBANDS=    600
   number of dos      NEDOS =    301   number of ions     NIONS =     96
   non local maximal  LDIM  =      6   non local SUM 2l+1 LMDIM =     18
   total plane-waves  NPLWV = ******
   max r-space proj   IRMAX =      1   max aug-charges    IRDMAX= 314103
   dimension x,y,z NGX =   112 NGY =  108 NGZ =  112
   dimension x,y,z NGXF=   224 NGYF=  216 NGZF=  224
   support grid    NGXF=   448 NGYF=  432 NGZF=  448
   ions per type =               8   8  48   8  24
 NGX,Y,Z   is equivalent  to a cutoff of  14.80, 14.41, 14.61 a.u.
 NGXF,Y,Z  is equivalent  to a cutoff of  29.61, 28.83, 29.21 a.u.


 I would recommend the setting:
   dimension x,y,z NGX =   109 NGY =  107 NGZ =  110
 SYSTEM =  MAPbI3-Cubic                            
 POSCAR =  C N H Pb I                              

 Startparameter for this run:
   NWRITE =      2    write-flag & timer
   PREC   = accura    normal or accurate (medium, high low for compatibility)
   ISTART =      0    job   : 0-new  1-cont  2-samecut
   ICHARG =      2    charge: 1-file 2-atom 10-const
   ISPIN  =      1    spin polarized calculation?
   LNONCOLLINEAR =      T non collinear calculations
   LSORBIT =      T    spin-orbit coupling
   INIWAV =      1    electr: 0-lowe 1-rand  2-diag
   LASPH  =      F    aspherical Exc in radial PAW
   METAGGA=      F    non-selfconsistent MetaGGA calc.

 Electronic Relaxation 1
   ENCUT  =  700.0 eV  51.45 Ry    7.17 a.u.  27.13 26.87 27.50*2*pi/ulx,y,z
   ENINI  =  700.0     initial cutoff
   ENAUG  =  644.9 eV  augmentation charge cutoff
   NELM   =     60;   NELMIN=  2; NELMDL= -5     # of ELM steps 
   EDIFF  = 0.1E-07   stopping-criterion for ELM
   LREAL  =      F    real-space projection
   NLSPLINE    = F    spline interpolate recip. space projectors
   LCOMPAT=      F    compatible to vasp.4.4
   GGA_COMPAT  = T    GGA compatible to vasp.4.4-vasp.4.6
   LMAXPAW     = -100 max onsite density
   LMAXMIX     =    2 max onsite mixed and CHGCAR
   VOSKOWN=      0    Vosko Wilk Nusair interpolation
   ROPT   =    0.00000   0.00000   0.00000   0.00000
   ROPT   =    0.00000
 Ionic relaxation
   EDIFFG = 0.1E-06   stopping-criterion for IOM
   NSW    =      0    number of steps for IOM
   NBLOCK =      1;   KBLOCK =      1    inner block; outer block 
   IBRION =     -1    ionic relax: 0-MD 1-quasi-New 2-CG
   NFREE  =      0    steps in history (QN), initial steepest desc. (CG)
   ISIF   =      2    stress and relaxation
   IWAVPR =     10    prediction:  0-non 1-charg 2-wave 3-comb
   ISYM   =      2    0-nonsym 1-usesym 2-fastsym
   LCORR  =      T    Harris-Foulkes like correction to forces

   POTIM  = 0.5000    time-step for ionic-motion
   TEIN   =    0.0    initial temperature
   TEBEG  =    0.0;   TEEND  =   0.0 temperature during run
   SMASS  =  -3.00    Nose mass-parameter (am)
   estimated Nose-frequenzy (Omega)   =  0.10E-29 period in steps =****** mass=  -0.362E-26a.u.
   SCALEE = 1.0000    scale energy and forces
   NPACO  =    256;   APACO  = 16.0  distance and # of slots for P.C.
   PSTRESS=    0.0 pullay stress

  Mass of Ions in am
   POMASS =  12.01 14.00  1.00207.20126.90
  Ionic Valenz
   ZVAL   =   4.00  5.00  1.00 14.00  7.00
  Atomic Wigner-Seitz radii
   RWIGS  =  -1.00 -1.00 -1.00 -1.00 -1.00
  virtual crystal weights 
   VCA    =   1.00  1.00  1.00  1.00  1.00
   NELECT =     400.0000    total number of electrons
   NUPDOWN=      -1.0000    fix difference up-down

 DOS related values:
   EMIN   =  10.00;   EMAX   =-10.00  energy-range for DOS
   EFERMI =   0.00
   ISMEAR =     0;   SIGMA  =   0.00  broadening in eV -4-tet -1-fermi 0-gaus

 Electronic relaxation 2 (details)
   IALGO  =     38    algorithm
   LDIAG  =      T    sub-space diagonalisation (order eigenvalues)
   LSUBROT=      F    optimize rotation matrix (better conditioning)
   TURBO    =      0    0=normal 1=particle mesh
   IRESTART =      0    0=no restart 2=restart with 2 vectors
   NREBOOT  =      0    no. of reboots
   NMIN     =      0    reboot dimension
   EREF     =   0.00    reference energy to select bands
   IMIX   =      4    mixing-type and parameters
     AMIX     =   0.40;   BMIX     =  1.00
     AMIX_MAG =   1.60;   BMIX_MAG =  1.00
     AMIN     =   0.10
     WC   =   100.;   INIMIX=   1;  MIXPRE=   1;  MAXMIX= -45

 Intra band minimization:
   WEIMIN = 0.0000     energy-eigenvalue tresh-hold
   EBREAK =  0.42E-11  absolut break condition
   DEPER  =   0.30     relativ break condition  

   TIME   =   0.40     timestep for ELM

  volume/ion in A,a.u.               =      20.80       140.38
  Fermi-wavevector in a.u.,A,eV,Ry     =   0.957863  1.810099 12.483376  0.917502
  Thomas-Fermi vector in A             =   2.086919
 
 Write flags
   LWAVE  =      F    write WAVECAR
   LCHARG =      F    write CHGCAR
   LVTOT  =      F    write LOCPOT, total local potential
   LVHAR  =      F    write LOCPOT, Hartree potential only
   LELF   =      F    write electronic localiz. function (ELF)
   LORBIT =      0    0 simple, 1 ext, 2 COOP (PROOUT)


 Dipole corrections
   LMONO  =      F    monopole corrections only (constant potential shift)
   LDIPOL =      F    correct potential (dipole corrections)
   IDIPOL =      0    1-x, 2-y, 3-z, 4-all directions 
   EPSILON=  1.0000000 bulk dielectric constant

 Core level calculations are selected ICORELEVEL =  1
 Exchange correlation treatment:
   GGA     =    PS    GGA type
   LEXCH   =    14    internal setting for exchange type
   VOSKOWN=      0    Vosko Wilk Nusair interpolation
   LHFCALC =     F    Hartree Fock is set to
   LHFONE  =     F    Hartree Fock one center treatment
   AEXX    =    0.0000 exact exchange contribution

 Linear response parameters
   LEPSILON=     F    determine dielectric tensor
   LRPA    =     F    only Hartree local field effects (RPA)
   LNABLA  =     F    use nabla operator in PAW spheres
   LVEL    =     F    velocity operator in full k-point grid
   LINTERFAST=   F  fast interpolation
   KINTER  =     0    interpolate to denser k-point grid
   CSHIFT  =0.1000    complex shift for real part using Kramers Kronig
   OMEGAMAX=  -1.0    maximum frequency
   DEG_THRESHOLD= 0.2000000E-02 threshold for treating states as degnerate
   RTIME   =    0.100 relaxation time in fs

 Orbital magnetization related:
   ORBITALMAG=     F  switch on orbital magnetization
   LCHIMAG   =     F  perturbation theory with respect to B field
   DQ        =  0.001000  dq finite difference perturbation B field



--------------------------------------------------------------------------------------------------------


 Static calculation
 charge density and potential will be updated during run
 non collinear spin polarized calculation
 Variant of blocked Davidson
 Davidson routine will perform the subspace rotation
 perform sub-space diagonalisation
    after iterative eigenvector-optimisation
 modified Broyden-mixing scheme, WC =      100.0
 initial mixing is a Kerker type mixing with AMIX =  0.4000 and BMIX =      1.0000
 Hartree-type preconditioning will be used
 using additional bands          400
 reciprocal scheme for non local part
 use partial core corrections
 calculate Harris-corrections to forces 
   (improved forces if not selfconsistent)
 use gradient corrections 
 use of overlap-Matrix (Vanderbilt PP)
 Gauss-broadening in eV      SIGMA  =   0.00


--------------------------------------------------------------------------------------------------------


  energy-cutoff  :      700.00
  volume of cell :     1996.98
      direct lattice vectors                 reciprocal lattice vectors
    12.576837428  0.001915912  0.138198793     0.079520802 -0.000007684 -0.000869670
     0.001195632 12.457538083 -0.000746413    -0.000012224  0.080272684 -0.000000427
     0.139410704  0.000089045 12.747420625    -0.000862111  0.000004784  0.078456671

  length of vectors
    12.577596840 12.457538162 12.748182927     0.079525558  0.080272685  0.078461408


 
 k-points in units of 2pi/SCALE and weight: Automatic 3x3x3                         
   0.00000000  0.00000000  0.00000000       0.037
   0.02650693 -0.00000256 -0.00028989       0.037
  -0.02650693  0.00000256  0.00028989       0.037
  -0.00000407  0.02675756 -0.00000014       0.037
   0.02650286  0.02675500 -0.00029003       0.037
  -0.02651101  0.02676012  0.00028975       0.037
   0.00000407 -0.02675756  0.00000014       0.037
   0.02651101 -0.02676012 -0.00028975       0.037
  -0.02650286 -0.02675500  0.00029003       0.037
  -0.00028737  0.00000159  0.02615222       0.037
   0.02621956 -0.00000097  0.02586233       0.037
  -0.02679430  0.00000416  0.02644211       0.037
  -0.00029144  0.02675916  0.02615208       0.037
   0.02621549  0.02675659  0.02586219       0.037
  -0.02679838  0.02676172  0.02644197       0.037
  -0.00028330 -0.02675597  0.02615237       0.037
   0.02622364 -0.02675853  0.02586248       0.037
  -0.02679023 -0.02675341  0.02644226       0.037
   0.00028737 -0.00000159 -0.02615222       0.037
   0.02679430 -0.00000416 -0.02644211       0.037
  -0.02621956  0.00000097 -0.02586233       0.037
   0.00028330  0.02675597 -0.02615237       0.037
   0.02679023  0.02675341 -0.02644226       0.037
  -0.02622364  0.02675853 -0.02586248       0.037
   0.00029144 -0.02675916 -0.02615208       0.037
   0.02679838 -0.02676172 -0.02644197       0.037
  -0.02621549 -0.02675659 -0.02586219       0.037
 
 k-points in reciprocal lattice and weights: Automatic 3x3x3                         
   0.00000000  0.00000000  0.00000000       0.037
   0.33333333 -0.00000000 -0.00000000       0.037
  -0.33333333  0.00000000  0.00000000       0.037
   0.00000000  0.33333333 -0.00000000       0.037
   0.33333333  0.33333333  0.00000000       0.037
  -0.33333333  0.33333333  0.00000000       0.037
  -0.00000000 -0.33333333  0.00000000       0.037
   0.33333333 -0.33333333 -0.00000000       0.037
  -0.33333333 -0.33333333 -0.00000000       0.037
   0.00000000  0.00000000  0.33333333       0.037
   0.33333333  0.00000000  0.33333333       0.037
  -0.33333333  0.00000000  0.33333333       0.037
   0.00000000  0.33333333  0.33333333       0.037
   0.33333333  0.33333333  0.33333333       0.037
  -0.33333333  0.33333333  0.33333333       0.037
   0.00000000 -0.33333333  0.33333333       0.037
   0.33333333 -0.33333333  0.33333333       0.037
  -0.33333333 -0.33333333  0.33333333       0.037
   0.00000000  0.00000000 -0.33333333       0.037
   0.33333333 -0.00000000 -0.33333333       0.037
  -0.33333333 -0.00000000 -0.33333333       0.037
  -0.00000000  0.33333333 -0.33333333       0.037
   0.33333333  0.33333333 -0.33333333       0.037
  -0.33333333  0.33333333 -0.33333333       0.037
  -0.00000000 -0.33333333 -0.33333333       0.037
   0.33333333 -0.33333333 -0.33333333       0.037
  -0.33333333 -0.33333333 -0.33333333       0.037
 
 position of ions in fractional coordinates (direct lattice) 
   0.19753026  0.24986605  0.22867303
   0.69645800  0.24995050  0.22915768
   0.19645800  0.74995050  0.22915768
   0.69753026  0.74986605  0.22867303
   0.19645800  0.24995050  0.72915768
   0.69753026  0.24986605  0.72867303
   0.19753026  0.74986605  0.72867303
   0.69645800  0.74995050  0.72915768
   0.30949437  0.24997651  0.26370093
   0.79958007  0.25003077  0.28406766
   0.29958007  0.75003077  0.28406766
   0.80949437  0.74997651  0.26370093
   0.29958007  0.25003077  0.78406766
   0.80949437  0.24997651  0.76370093
   0.30949437  0.74997651  0.76370093
   0.79958007  0.75003077  0.78406766
   0.19738504  0.24977908  0.14206154
   0.71276529  0.24986311  0.14371571
   0.21276529  0.74986311  0.14371571
   0.69738504  0.74977908  0.14206154
   0.21276529  0.24986311  0.64371571
   0.69738504  0.24977908  0.64206154
   0.19738504  0.74977908  0.64206154
   0.71276529  0.74986311  0.64371571
   0.15714247  0.32224920  0.25901400
   0.65153315  0.32245517  0.25201664
   0.15153315  0.82245517  0.25201664
   0.65714247  0.82224920  0.25901400
   0.15153315  0.32245517  0.75201664
   0.65714247  0.32224920  0.75901400
   0.15714247  0.82224920  0.75901400
   0.65153315  0.82245517  0.75201664
   0.15728309  0.17748036  0.25914092
   0.65160258  0.17747178  0.25216049
   0.15160258  0.67747178  0.25216049
   0.65728309  0.67748036  0.25914092
   0.15160258  0.17747178  0.75216049
   0.65728309  0.17748036  0.75914092
   0.15728309  0.67748036  0.75914092
   0.65160258  0.67747178  0.75216049
   0.35112941  0.31779428  0.23685491
   0.84513974  0.31795429  0.26465807
   0.34513974  0.81795429  0.26465807
   0.85112941  0.81779428  0.23685491
   0.34513974  0.31795429  0.76465807
   0.85112941  0.31779428  0.73685491
   0.35112941  0.81779428  0.73685491
   0.84513974  0.81795429  0.76465807
   0.35124255  0.18216038  0.23695209
   0.84516805  0.18204940  0.26482971
   0.34516805  0.68204940  0.26482971
   0.85124255  0.68216038  0.23695209
   0.34516805  0.18204940  0.76482971
   0.85124255  0.18216038  0.73695209
   0.35124255  0.68216038  0.73695209
   0.84516805  0.68204940  0.76482971
   0.31658400  0.25003768  0.34573571
   0.78975615  0.25014937  0.36548278
   0.28975615  0.75014937  0.36548278
   0.81658400  0.75003768  0.34573571
   0.28975615  0.25014937  0.86548278
   0.81658400  0.25003768  0.84573571
   0.31658400  0.75003768  0.84573571
   0.78975615  0.75014937  0.86548278
   0.47243920  0.49866510  0.48880792
   0.97244435  0.50131449  0.48881497
   0.47244435  0.00131449  0.48881497
   0.97243920  0.99866510  0.48880792
   0.47244435  0.50131449  0.98881497
   0.97243920  0.49866510  0.98880792
   0.47243920  0.99866510  0.98880792
   0.97244435  0.00131449  0.98881497
   0.45471275  0.50273324  0.23757431
   0.95477460  0.49724886  0.23757117
   0.45477460  0.99724886  0.23757117
   0.95471275  0.00273324  0.23757431
   0.45477460  0.49724886  0.73757117
   0.95471275  0.50273324  0.73757431
   0.45471275  0.00273324  0.73757431
   0.95477460  0.99724886  0.73757117
   0.46996762  0.24997413  0.01092386
   0.92930326  0.24998389  0.01274058
   0.42930326  0.74998389  0.01274058
   0.96996762  0.74997413  0.01092386
   0.42930326  0.24998389  0.51274058
   0.96996762  0.24997413  0.51092386
   0.46996762  0.74997413  0.51092386
   0.92930326  0.74998389  0.51274058
   0.21616640  0.52332060  0.46126405
   0.71617648  0.47667427  0.46121535
   0.21617648  0.97667427  0.46121535
   0.71616640  0.02332060  0.46126405
   0.21617648  0.47667427  0.96121535
   0.71616640  0.52332060  0.96126405
   0.21616640  0.02332060  0.96126405
   0.71617648  0.97667427  0.96121535
 
 position of ions in cartesian coordinates  (Angst):
   2.51648423  3.11311461  2.94210322
   8.79148494  3.11512267  3.01723242
   2.50366404  9.34293375  2.94775982
   8.80550076  9.34284161  3.01082941
   2.57277158  3.11420923  9.32184334
   8.87460830  3.11411709  9.38491293
   2.58678740  9.34192818  9.31544033
   8.86178811  9.34393623  9.39056953
   3.92952200  3.11470839  3.40409182
  10.09608953  3.11632503  3.73144438
   3.80826863  9.34413611  3.66197178
  10.21853853  9.34443538  3.47281801
   3.87737617  3.11541159 10.03605530
  10.28764607  3.11571087  9.84690152
   3.99982517  9.34352195  9.77742892
  10.16639270  9.34513859 10.10478149
   2.50258311  3.11202323  1.83801013
   8.98466748  3.11405762  1.93032145
   2.69684658  9.34186871  1.86084884
   8.79159964  9.34175023  1.90673632
   2.76595412  3.11314419  8.23493236
   8.86070717  3.11302571  8.28081984
   2.57288628  9.34083680  8.21134723
   9.05497065  9.34287119  8.30365855
   2.01284987  4.01475582  3.32323680
   8.22974582  4.01826832  3.30236248
   1.94192492 10.24607941  3.23288988
   8.30186640 10.24448281  3.39196299
   2.01103246  4.01735489  9.60697339
   8.37097394  4.01575829  9.76604651
   2.08315304 10.24356938  9.69657391
   8.30004899 10.24708189  9.67569958
   2.01446309  2.21129279  3.32498217
   8.23046573  2.21213238  3.30431409
   1.94264483  8.43994347  3.23484149
   8.30347962  8.44101978  3.39370836
   2.01175237  2.21121895  9.60892501
   8.37258715  2.21229526  9.76779188
   2.08476625  8.44010635  9.69831928
   8.30076890  8.44094595  9.67765120
   4.44949759  3.95962818  3.06757765
  10.66646149  3.96257040  3.49026770
   4.37864059 10.19038148  3.42079510
  10.73851412 10.18935517  3.13630384
   4.44774813  3.96165696  9.79487862
  10.80762165  3.96063065  9.51038736
   4.51980076 10.18844174  9.44091476
  10.73676466 10.19138396  9.86360481
   4.45077187  2.26996390  3.06893331
  10.66667896  2.26953014  3.49256100
   4.37885807  8.49734123  3.42308840
  10.73978840  8.49969089  3.13765950
   4.44796560  2.26861671  9.79717192
  10.80889594  2.27096637  9.51174302
   4.52107504  8.49877746  9.44227042
  10.73698213  8.49834371  9.86589811
   4.03012370  3.11549120  4.45080344
   9.98388596  3.11779093  4.76791933
   3.69606507  9.34560201  4.69844673
  10.31914023  9.34521819  4.51952963
   3.76517260  3.11687749 11.07253025
  10.38824777  3.11649367 10.89361315
   4.10042687  9.34430476 10.82414054
  10.05418913  9.34660449 11.14125644
   6.01053233  6.21308816  6.29595853
  12.29901990  6.24705098  6.36514648
   6.01000337  0.01732398  6.29642029
  12.29954886 12.44281516  6.36468472
   6.08030654  6.24613755 12.66975740
  12.36865640  6.21409064 12.73876824
   6.08083550 12.44190173 12.66929563
  12.36812744  0.01832646 12.73923000
   5.75256977  6.26371084  3.09092515
  12.04175945  6.19634701  3.15999724
   5.75393855 12.42415809  3.09052464
  12.04039067  0.03589975  3.16039776
   5.82304609  6.19543357  9.46460815
  12.11069383  6.26471331  9.53373486
   5.82167730  0.03498632  9.46500867
  12.11206262 12.42516057  9.53333434
   5.91252809  3.11496359  0.20401339
  11.68977112  3.11596548  0.29065149
   5.40195022  9.34377657  0.22117889
  12.20154462  9.34469059  0.27273958
   5.47105776  3.11505205  6.59526241
  12.27065215  3.11596607  6.64682310
   5.98283125  9.34377715  6.57735050
  11.76007429  9.34477905  6.66398860
   2.78362051  6.51974152  5.90941021
   9.07210341  5.93960112  5.97792501
   2.78428251 12.16741221  5.90845241
   9.07144141  0.29193043  5.97888282
   2.85339005  5.93868769 12.28253593
   9.14174458  6.52074400 12.35221992
   2.85272805  0.29101700 12.28349373
   9.14240658 12.16841468 12.35126212
 
 Euler angles ALPHA=     0.0000000  BETA=     0.0000000

 transformation matrix from SAXIS to cartesian coordinates
 ---------------------------------------------------------
     1.0000000 m_x     0.0000000 m_y     0.0000000 m_z
     0.0000000 m_x     1.0000000 m_y     0.0000000 m_z
     0.0000000 m_x     0.0000000 m_y     1.0000000 m_z

 transformation matrix from cartesian coordinates to SAXIS
 ---------------------------------------------------------
     1.0000000 m_x     0.0000000 m_y     0.0000000 m_z
     0.0000000 m_x     1.0000000 m_y     0.0000000 m_z
     0.0000000 m_x     0.0000000 m_y     1.0000000 m_z




--------------------------------------------------------------------------------------------------------


 k-point  1 :   0.0000 0.0000 0.0000  plane waves:  168014
 k-point  2 :   0.3333-0.0000-0.0000  plane waves:  168006
 k-point  3 :  -0.3333 0.0000 0.0000  plane waves:  168006
 k-point  4 :   0.0000 0.3333-0.0000  plane waves:  167990
 k-point  5 :   0.3333 0.3333 0.0000  plane waves:  168036
 k-point  6 :  -0.3333 0.3333 0.0000  plane waves:  168038
 k-point  7 :  -0.0000-0.3333 0.0000  plane waves:  167990
 k-point  8 :   0.3333-0.3333-0.0000  plane waves:  168038
 k-point  9 :  -0.3333-0.3333-0.0000  plane waves:  168036
 k-point 10 :   0.0000 0.0000 0.3333  plane waves:  167920
 k-point 11 :   0.3333 0.0000 0.3333  plane waves:  167874
 k-point 12 :  -0.3333 0.0000 0.3333  plane waves:  167964
 k-point 13 :   0.0000 0.3333 0.3333  plane waves:  167968
 k-point 14 :   0.3333 0.3333 0.3333  plane waves:  168024
 k-point 15 :  -0.3333 0.3333 0.3333  plane waves:  167940
 k-point 16 :   0.0000-0.3333 0.3333  plane waves:  167954
 k-point 17 :   0.3333-0.3333 0.3333  plane waves:  168026
 k-point 18 :  -0.3333-0.3333 0.3333  plane waves:  167946
 k-point 19 :   0.0000 0.0000-0.3333  plane waves:  167920
 k-point 20 :   0.3333-0.0000-0.3333  plane waves:  167964
 k-point 21 :  -0.3333-0.0000-0.3333  plane waves:  167874
 k-point 22 :  -0.0000 0.3333-0.3333  plane waves:  167954
 k-point 23 :   0.3333 0.3333-0.3333  plane waves:  167946
 k-point 24 :  -0.3333 0.3333-0.3333  plane waves:  168026
 k-point 25 :  -0.0000-0.3333-0.3333  plane waves:  167968
 k-point 26 :   0.3333-0.3333-0.3333  plane waves:  167940
 k-point 27 :  -0.3333-0.3333-0.3333  plane waves:  168024

 maximum and minimum number of plane-waves per node :      7122     6820

 maximum number of plane-waves:    168038
 maximum index in each direction: 
   IXMAX=   27   IYMAX=   27   IZMAX=   27
   IXMIN=  -27   IYMIN=  -27   IZMIN=  -27

 NGX is ok and might be reduce to 110
 WARNING: aliasing errors must be expected set NGY to 110 to avoid them
 NGZ is ok and might be reduce to 110
 aliasing errors are usually negligible using standard VASP settings
 and one can safely disregard these warnings

 parallel 3D FFT for wavefunctions:
    minimum data exchange during FFTs selected (reduces bandwidth)
 parallel 3D FFT for charge:
    minimum data exchange during FFTs selected (reduces bandwidth)


 total amount of memory used by VASP on root node   392927. kBytes
========================================================================

   base      :      30000. kBytes
   nonl-proj :      73667. kBytes
   fftplans  :      22714. kBytes
   grid      :      35610. kBytes
   one-center:        248. kBytes
   wavefun   :     230688. kBytes
 
     INWAV:  cpu time    0.0000: real time    0.0000
 Broyden mixing: mesh for mixing (old mesh)
   NGX = 55   NGY = 53   NGZ = 55
  (NGX  =224   NGY  =216   NGZ  =224)
  gives a total of 160325 points

 initial charge density was supplied:
 charge density of overlapping atoms calculated
 number of electron     400.0000000 magnetization      96.0000000     96.0000000     96.0000000
 keeping initial charge density in first step


--------------------------------------------------------------------------------------------------------


 Maximum index for augmentation-charges         5400 (set IRDMAX)


--------------------------------------------------------------------------------------------------------


 First call to EWALD:  gamma=   0.141
 Maximum number of real-space cells 3x 3x 3
 Maximum number of reciprocal cells 3x 3x 3

 FEWALD executed in parallel
    FEWALD:  cpu time    0.0040: real time    0.0039


----------------------------------------- Iteration    1(   1)  ---------------------------------------


    POTLOK:  cpu time    0.5880: real time    0.5864
    SETDIJ:  cpu time    2.1401: real time    2.1433
     EDDAV:  cpu time  237.0588: real time  237.2188
       DOS:  cpu time    0.0080: real time    0.0072
    --------------------------------------------
      LOOP:  cpu time  239.7950: real time  240.0405

 eigenvalue-minimisations  : 32544
 total energy-change (2. order) : 0.4227297E+04  (-0.1929756E+05)
 number of electron     400.0000000 magnetization      96.0000000     96.0000000     96.0000000
 augmentation part      400.0000000 magnetization      96.0000000     96.0000000     96.0000000

 Free energy of the ion-electron system (eV)
  ---------------------------------------------------
  alpha Z        PSCENC =       370.05370877
  Ewald energy   TEWEN  =    -15534.46532026
  -Hartree energ DENC   =     -8117.06397647
  -exchange      EXHF   =         0.00000000
  -V(xc)+E(xc)   XCENC  =       673.21013020
  PAW double counting   =     20172.90621935   -19413.33347658
  entropy T*S    EENTRO =        -0.00002221
  eigenvalues    EBANDS =      1326.98353860
  atomic energy  EATOM  =     24749.00668030
  Solvation  Ediel_sol  =         0.00000000
  ---------------------------------------------------
  free energy    TOTEN  =      4227.29748170 eV

  energy without entropy =     4227.29750391  energy(sigma->0) =     4227.29749280


--------------------------------------------------------------------------------------------------------




----------------------------------------- Iteration    1(   2)  ---------------------------------------


     EDDAV:  cpu time  253.0318: real time  253.2019
       DOS:  cpu time    0.0080: real time    0.0071
    --------------------------------------------
      LOOP:  cpu time  253.0438: real time  253.2502

 eigenvalue-minimisations  : 35584
 total energy-change (2. order) :-0.3383158E+04  (-0.3133645E+04)
 number of electron     400.0000000 magnetization      96.0000000     96.0000000     96.0000000
 augmentation part      400.0000000 magnetization      96.0000000     96.0000000     96.0000000

 Free energy of the ion-electron system (eV)
  ---------------------------------------------------
  alpha Z        PSCENC =       370.05370877
  Ewald energy   TEWEN  =    -15534.46532026
  -Hartree energ DENC   =     -8117.06397647
  -exchange      EXHF   =         0.00000000
  -V(xc)+E(xc)   XCENC  =       673.21013020
  PAW double counting   =     20172.90621935   -19413.33347658
  entropy T*S    EENTRO =        -0.00001240
  eigenvalues    EBANDS =     -2056.17423718
  atomic energy  EATOM  =     24749.00668030
  Solvation  Ediel_sol  =         0.00000000
  ---------------------------------------------------
  free energy    TOTEN  =       844.13971573 eV

  energy without entropy =      844.13972812  energy(sigma->0) =      844.13972193


--------------------------------------------------------------------------------------------------------




----------------------------------------- Iteration    1(   3)  ---------------------------------------


     EDDAV:  cpu time  298.1626: real time  298.3633
       DOS:  cpu time    0.0080: real time    0.0073
    --------------------------------------------
      LOOP:  cpu time  298.1706: real time  298.4066

 eigenvalue-minimisations  : 44000
 total energy-change (2. order) :-0.6100071E+03  (-0.5897376E+03)
 number of electron     400.0000000 magnetization      96.0000000     96.0000000     96.0000000
 augmentation part      400.0000000 magnetization      96.0000000     96.0000000     96.0000000

 Free energy of the ion-electron system (eV)
  ---------------------------------------------------
  alpha Z        PSCENC =       370.05370877
  Ewald energy   TEWEN  =    -15534.46532026
  -Hartree energ DENC   =     -8117.06397647
  -exchange      EXHF   =         0.00000000
  -V(xc)+E(xc)   XCENC  =       673.21013020
  PAW double counting   =     20172.90621935   -19413.33347658
  entropy T*S    EENTRO =        -0.00002115
  eigenvalues    EBANDS =     -2666.18131893
  atomic energy  EATOM  =     24749.00668030
  Solvation  Ediel_sol  =         0.00000000
  ---------------------------------------------------
  free energy    TOTEN  =       234.13262522 eV

  energy without entropy =      234.13264638  energy(sigma->0) =      234.13263580


--------------------------------------------------------------------------------------------------------




----------------------------------------- Iteration    1(   4)  ---------------------------------------


     EDDAV:  cpu time  298.4307: real time  298.6301
       DOS:  cpu time    0.0080: real time    0.0074
    --------------------------------------------
      LOOP:  cpu time  298.4387: real time  298.6749

 eigenvalue-minimisations  : 44056
 total energy-change (2. order) :-0.4578126E+02  (-0.4469483E+02)
 number of electron     400.0000000 magnetization      96.0000000     96.0000000     96.0000000
 augmentation part      400.0000000 magnetization      96.0000000     96.0000000     96.0000000

 Free energy of the ion-electron system (eV)
  ---------------------------------------------------
  alpha Z        PSCENC =       370.05370877
  Ewald energy   TEWEN  =    -15534.46532026
  -Hartree energ DENC   =     -8117.06397647
  -exchange      EXHF   =         0.00000000
  -V(xc)+E(xc)   XCENC  =       673.21013020
  PAW double counting   =     20172.90621935   -19413.33347658
  entropy T*S    EENTRO =        -0.00004324
  eigenvalues    EBANDS =     -2711.96255902
  atomic energy  EATOM  =     24749.00668030
  Solvation  Ediel_sol  =         0.00000000
  ---------------------------------------------------
  free energy    TOTEN  =       188.35136305 eV

  energy without entropy =      188.35140629  energy(sigma->0) =      188.35138467


--------------------------------------------------------------------------------------------------------




----------------------------------------- Iteration    1(   5)  ---------------------------------------


     EDDAV:  cpu time  331.7247: real time  331.9452
       DOS:  cpu time    0.0040: real time    0.0068
    CHARGE:  cpu time   11.6527: real time   11.6575
    MIXING:  cpu time    0.0160: real time    0.0154
    --------------------------------------------
      LOOP:  cpu time  343.3975: real time  343.7414

 eigenvalue-minimisations  : 50248
 total energy-change (2. order) :-0.2256282E+01  (-0.2247424E+01)
 number of electron     400.0000000 magnetization      67.1455277     67.1522720     67.1497144
 augmentation part        6.9631172 magnetization      63.3651723     63.3472022     63.3542993

 Broyden mixing:
  rms(total) = 0.97992E+01    rms(broyden)= 0.97990E+01
  rms(prec ) = 0.10298E+02
  weight for this iteration     100.00

 Free energy of the ion-electron system (eV)
  ---------------------------------------------------
  alpha Z        PSCENC =       370.05370877
  Ewald energy   TEWEN  =    -15534.46532026
  -Hartree energ DENC   =     -8117.06397647
  -exchange      EXHF   =         0.00000000
  -V(xc)+E(xc)   XCENC  =       673.21013020
  PAW double counting   =     20172.90621935   -19413.33347658
  entropy T*S    EENTRO =        -0.00016184
  eigenvalues    EBANDS =     -2714.21872234
  atomic energy  EATOM  =     24749.00668030
  Solvation  Ediel_sol  =         0.00000000
  ---------------------------------------------------
  free energy    TOTEN  =       186.09508113 eV

  energy without entropy =      186.09524297  energy(sigma->0) =      186.09516205


--------------------------------------------------------------------------------------------------------




----------------------------------------- Iteration    1(   6)  ---------------------------------------


    POTLOK:  cpu time    0.5800: real time    0.5817
    SETDIJ:  cpu time    2.1401: real time    2.1401
     EDDAV:  cpu time  261.4163: real time  261.5963
       DOS:  cpu time    0.0080: real time    0.0072
    CHARGE:  cpu time   11.8087: real time   11.8164
    MIXING:  cpu time    0.0120: real time    0.0153
    --------------------------------------------
      LOOP:  cpu time  275.9652: real time  276.1948

 eigenvalue-minimisations  : 37112
 total energy-change (2. order) :-0.1306008E+03  (-0.1519433E+03)
 number of electron     400.0000000 magnetization      50.3206688     50.3234750     50.3238376
 augmentation part        5.9564163 magnetization      51.1398140     51.1514328     51.1419401

 Broyden mixing:
  rms(total) = 0.48751E+01    rms(broyden)= 0.48750E+01
  rms(prec ) = 0.50592E+01
  weight for this iteration     100.00

 eigenvalues of (default mixing * dielectric matrix)
  average eigenvalue GAMMA=   0.7573
  0.7573

 Free energy of the ion-electron system (eV)
  ---------------------------------------------------
  alpha Z        PSCENC =       370.05370877
  Ewald energy   TEWEN  =    -15534.46532026
  -Hartree energ DENC   =     -8473.64022862
  -exchange      EXHF   =         0.00000000
  -V(xc)+E(xc)   XCENC  =       690.23449227
  PAW double counting   =     24187.13171255   -23450.24555962
  entropy T*S    EENTRO =        -0.00000707
  eigenvalues    EBANDS =     -2482.58118251
  atomic energy  EATOM  =     24749.00668030
  Solvation  Ediel_sol  =         0.00000000
  ---------------------------------------------------
  free energy    TOTEN  =        55.49429579 eV

  energy without entropy =       55.49430286  energy(sigma->0) =       55.49429932


--------------------------------------------------------------------------------------------------------




----------------------------------------- Iteration    1(   7)  ---------------------------------------


    POTLOK:  cpu time    0.5800: real time    0.5822
    SETDIJ:  cpu time    2.1201: real time    2.1195
     EDDAV:  cpu time  272.8691: real time  273.0524
       DOS:  cpu time    0.0040: real time    0.0065
    CHARGE:  cpu time   11.8407: real time   11.8476
    MIXING:  cpu time    0.0160: real time    0.0161
    --------------------------------------------
      LOOP:  cpu time  287.4340: real time  287.6480

 eigenvalue-minimisations  : 39120
 total energy-change (2. order) :-0.1493812E+03  (-0.1593273E+02)
 number of electron     400.0000000 magnetization      34.3270855     34.3254093     34.3319189
 augmentation part        5.6086423 magnetization      35.3807647     35.3930358     35.3752405

 Broyden mixing:
  rms(total) = 0.28352E+01    rms(broyden)= 0.28352E+01
  rms(prec ) = 0.29901E+01
  weight for this iteration     100.00

 eigenvalues of (default mixing * dielectric matrix)
  average eigenvalue GAMMA=   0.8412
  0.8412  0.8412

 Free energy of the ion-electron system (eV)
  ---------------------------------------------------
  alpha Z        PSCENC =       370.05370877
  Ewald energy   TEWEN  =    -15534.46532026
  -Hartree energ DENC   =     -8522.24389497
  -exchange      EXHF   =         0.00000000
  -V(xc)+E(xc)   XCENC  =       592.15565723
  PAW double counting   =     26625.92318631   -25889.10580715
  entropy T*S    EENTRO =        -0.00000153
  eigenvalues    EBANDS =     -2485.21115753
  atomic energy  EATOM  =     24749.00668030
  Solvation  Ediel_sol  =         0.00000000
  ---------------------------------------------------
  free energy    TOTEN  =       -93.88694883 eV

  energy without entropy =      -93.88694731  energy(sigma->0) =      -93.88694807


--------------------------------------------------------------------------------------------------------




----------------------------------------- Iteration    1(   8)  ---------------------------------------


    POTLOK:  cpu time    0.5760: real time    0.5759
    SETDIJ:  cpu time    2.1321: real time    2.1371
     EDDAV:  cpu time  264.4605: real time  264.6424
       DOS:  cpu time    0.0040: real time    0.0038
    CHARGE:  cpu time   11.8807: real time   11.8891
    MIXING:  cpu time    0.0120: real time    0.0146
    --------------------------------------------
      LOOP:  cpu time  279.0734: real time  279.3320

 eigenvalue-minimisations  : 37528
 total energy-change (2. order) :-0.1081574E+03  (-0.6468730E+01)
 number of electron     400.0000000 magnetization      15.8280395     15.8195571     15.8299973
 augmentation part        6.6642369 magnetization      17.0047322     17.0124300     17.0104394

 Broyden mixing:
  rms(total) = 0.18355E+01    rms(broyden)= 0.18355E+01
  rms(prec ) = 0.18908E+01
  weight for this iteration     100.00

 eigenvalues of (default mixing * dielectric matrix)
  average eigenvalue GAMMA=   1.0083
  1.4184  0.9747  0.6319

 Free energy of the ion-electron system (eV)
  ---------------------------------------------------
  alpha Z        PSCENC =       370.05370877
  Ewald energy   TEWEN  =    -15534.46532026
  -Hartree energ DENC   =     -8556.14924288
  -exchange      EXHF   =         0.00000000
  -V(xc)+E(xc)   XCENC  =       529.24329385
  PAW double counting   =     28618.60177397   -27883.74300234
  entropy T*S    EENTRO =        -0.00000000
  eigenvalues    EBANDS =     -2494.59226614
  atomic energy  EATOM  =     24749.00668030
  Solvation  Ediel_sol  =         0.00000000
  ---------------------------------------------------
  free energy    TOTEN  =      -202.04437473 eV

  energy without entropy =     -202.04437473  energy(sigma->0) =     -202.04437473


--------------------------------------------------------------------------------------------------------




----------------------------------------- Iteration    1(   9)  ---------------------------------------


    POTLOK:  cpu time    0.5920: real time    0.5915
    SETDIJ:  cpu time    2.1481: real time    2.1526
     EDDAV:  cpu time  259.9722: real time  260.1535
       DOS:  cpu time    0.0040: real time    0.0045
    CHARGE:  cpu time   11.8847: real time   11.8939
    MIXING:  cpu time    0.0160: real time    0.0165
    --------------------------------------------
      LOOP:  cpu time  274.6252: real time  274.8472

 eigenvalue-minimisations  : 36712
 total energy-change (2. order) :-0.1323001E+03  (-0.1247350E+02)
 number of electron     400.0000000 magnetization      10.3611732     10.3503815     10.3595521
 augmentation part        7.9363342 magnetization      11.1711754     11.1801491     11.1840948

 Broyden mixing:
  rms(total) = 0.91742E+00    rms(broyden)= 0.91741E+00
  rms(prec ) = 0.97067E+00
  weight for this iteration     100.00

 eigenvalues of (default mixing * dielectric matrix)
  average eigenvalue GAMMA=   1.0794
  1.8150  1.1111  0.6957  0.6957

 Free energy of the ion-electron system (eV)
  ---------------------------------------------------
  alpha Z        PSCENC =       370.05370877
  Ewald energy   TEWEN  =    -15534.46532026
  -Hartree energ DENC   =     -8587.34526476
  -exchange      EXHF   =         0.00000000
  -V(xc)+E(xc)   XCENC  =       463.63649836
  PAW double counting   =     30677.97707762   -29944.13006000
  entropy T*S    EENTRO =         0.00000000
  eigenvalues    EBANDS =     -2529.07784375
  atomic energy  EATOM  =     24749.00668030
  Solvation  Ediel_sol  =         0.00000000
  ---------------------------------------------------
  free energy    TOTEN  =      -334.34452373 eV

  energy without entropy =     -334.34452373  energy(sigma->0) =     -334.34452373


--------------------------------------------------------------------------------------------------------




----------------------------------------- Iteration    1(  10)  ---------------------------------------


    POTLOK:  cpu time    0.5800: real time    0.5812
    SETDIJ:  cpu time    2.1561: real time    2.1571
     EDDAV:  cpu time  262.3724: real time  262.5538
       DOS:  cpu time    0.0040: real time    0.0043
    CHARGE:  cpu time   11.8887: real time   11.8962
    MIXING:  cpu time    0.0160: real time    0.0161
    --------------------------------------------
      LOOP:  cpu time  277.0213: real time  277.2394

 eigenvalue-minimisations  : 37064
 total energy-change (2. order) :-0.4715789E+02  (-0.4691443E+01)
 number of electron     400.0000000 magnetization       6.1565300      6.1480653      6.1534968
 augmentation part        8.2203681 magnetization       6.6860559      6.6850283      6.6892383

 Broyden mixing:
  rms(total) = 0.66171E+00    rms(broyden)= 0.66170E+00
  rms(prec ) = 0.73463E+00
  weight for this iteration     100.00

 eigenvalues of (default mixing * dielectric matrix)
  average eigenvalue GAMMA=   1.1357
  1.6982  1.6982  0.8331  0.8331  0.6158

 Free energy of the ion-electron system (eV)
  ---------------------------------------------------
  alpha Z        PSCENC =       370.05370877
  Ewald energy   TEWEN  =    -15534.46532026
  -Hartree energ DENC   =     -8573.25889755
  -exchange      EXHF   =         0.00000000
  -V(xc)+E(xc)   XCENC  =       442.84741120
  PAW double counting   =     31021.07214205   -30285.64759255
  entropy T*S    EENTRO =         0.00000000
  eigenvalues    EBANDS =     -2571.11054992
  atomic energy  EATOM  =     24749.00668030
  Solvation  Ediel_sol  =         0.00000000
  ---------------------------------------------------
  free energy    TOTEN  =      -381.50241797 eV

  energy without entropy =     -381.50241797  energy(sigma->0) =     -381.50241797


--------------------------------------------------------------------------------------------------------




----------------------------------------- Iteration    1(  11)  ---------------------------------------


    POTLOK:  cpu time    0.5800: real time    0.5794
    SETDIJ:  cpu time    2.1361: real time    2.1376
     EDDAV:  cpu time  267.5367: real time  267.7212
       DOS:  cpu time    0.0040: real time    0.0038
    CHARGE:  cpu time   11.9407: real time   11.9497
    MIXING:  cpu time    0.0200: real time    0.0173
    --------------------------------------------
      LOOP:  cpu time  282.2216: real time  282.4486

 eigenvalue-minimisations  : 38088
 total energy-change (2. order) :-0.2891853E+02  (-0.3968979E+01)
 number of electron     400.0000000 magnetization       3.1345035      3.1290544      3.1320727
 augmentation part        8.0933401 magnetization       3.3558834      3.3522374      3.3540160

 Broyden mixing:
  rms(total) = 0.38144E+00    rms(broyden)= 0.38144E+00
  rms(prec ) = 0.43508E+00
  weight for this iteration     100.00

 eigenvalues of (default mixing * dielectric matrix)
  average eigenvalue GAMMA=   1.2110
  2.0763  2.0763  0.9388  0.9388  0.6593  0.5764

 Free energy of the ion-electron system (eV)
  ---------------------------------------------------
  alpha Z        PSCENC =       370.05370877
  Ewald energy   TEWEN  =    -15534.46532026
  -Hartree energ DENC   =     -8521.02778173
  -exchange      EXHF   =         0.00000000
  -V(xc)+E(xc)   XCENC  =       428.38956664
  PAW double counting   =     30986.11449361   -30247.32878342
  entropy T*S    EENTRO =         0.00000000
  eigenvalues    EBANDS =     -2641.16351020
  atomic energy  EATOM  =     24749.00668030
  Solvation  Ediel_sol  =         0.00000000
  ---------------------------------------------------
  free energy    TOTEN  =      -410.42094628 eV

  energy without entropy =     -410.42094628  energy(sigma->0) =     -410.42094628


--------------------------------------------------------------------------------------------------------




----------------------------------------- Iteration    1(  12)  ---------------------------------------


    POTLOK:  cpu time    0.5840: real time    0.5816
    SETDIJ:  cpu time    2.1201: real time    2.1223
     EDDAV:  cpu time  283.1697: real time  283.3607
       DOS:  cpu time    0.0040: real time    0.0037
    CHARGE:  cpu time   11.9007: real time   11.9080
    MIXING:  cpu time    0.0160: real time    0.0171
    --------------------------------------------
      LOOP:  cpu time  297.7946: real time  298.0427

 eigenvalue-minimisations  : 41096
 total energy-change (2. order) :-0.1076950E+02  (-0.1680522E+01)
 number of electron     400.0000000 magnetization       2.5263432      2.5219851      2.5246017
 augmentation part        7.8990368 magnetization       2.5896869      2.5852264      2.5871814

 Broyden mixing:
  rms(total) = 0.25330E+00    rms(broyden)= 0.25330E+00
  rms(prec ) = 0.29374E+00
  weight for this iteration     100.00

 eigenvalues of (default mixing * dielectric matrix)
  average eigenvalue GAMMA=   1.1605
  2.0827  2.0827  0.9926  0.9926  0.6866  0.6866  0.5999

 Free energy of the ion-electron system (eV)
  ---------------------------------------------------
  alpha Z        PSCENC =       370.05370877
  Ewald energy   TEWEN  =    -15534.46532026
  -Hartree energ DENC   =     -8475.08239044
  -exchange      EXHF   =         0.00000000
  -V(xc)+E(xc)   XCENC  =       422.21509956
  PAW double counting   =     30818.80401939   -30077.38132280
  entropy T*S    EENTRO =         0.00000000
  eigenvalues    EBANDS =     -2694.34092482
  atomic energy  EATOM  =     24749.00668030
  Solvation  Ediel_sol  =         0.00000000
  ---------------------------------------------------
  free energy    TOTEN  =      -421.19045030 eV

  energy without entropy =     -421.19045030  energy(sigma->0) =     -421.19045030


--------------------------------------------------------------------------------------------------------




----------------------------------------- Iteration    1(  13)  ---------------------------------------


    POTLOK:  cpu time    0.5920: real time    0.5898
    SETDIJ:  cpu time    2.1361: real time    2.1369
     EDDAV:  cpu time  276.3373: real time  276.5299
       DOS:  cpu time    0.0040: real time    0.0038
    CHARGE:  cpu time   11.9247: real time   11.9331
    MIXING:  cpu time    0.0160: real time    0.0181
    --------------------------------------------
      LOOP:  cpu time  291.0142: real time  291.2609

 eigenvalue-minimisations  : 39824
 total energy-change (2. order) :-0.1684897E+01  (-0.2570134E+00)
 number of electron     400.0000000 magnetization       1.6619919      1.6596073      1.6611615
 augmentation part        7.9093859 magnetization       1.7117842      1.7104408      1.7111817

 Broyden mixing:
  rms(total) = 0.20788E+00    rms(broyden)= 0.20788E+00
  rms(prec ) = 0.24586E+00
  weight for this iteration     100.00

 eigenvalues of (default mixing * dielectric matrix)
  average eigenvalue GAMMA=   1.1897
  2.2089  2.2089  1.0905  1.0905  0.8620  0.8620  0.6225  0.5720

 Free energy of the ion-electron system (eV)
  ---------------------------------------------------
  alpha Z        PSCENC =       370.05370877
  Ewald energy   TEWEN  =    -15534.46532026
  -Hartree energ DENC   =     -8462.98149480
[...]
     0.0000000     0.0000000     0.0000000     0.0000000     0.0000000     0.0000000     0.0000000
     0.0000000     0.0000000     0.0000000     0.0000000     0.0000000     0.0000000     0.0000000
     0.0000000     0.0000000     0.0000000     0.0000000     0.0000000     0.0000000     0.0000000
     0.0000000     0.0000000     0.0000000     0.0000000     0.0000000     0.0000000     0.0000000

 Ion:   82  E_soc:     -0.2790460
 l=   1
     0.0000000    -0.0479709    -0.0484523
    -0.0479709     0.0000000    -0.0431187
    -0.0484523    -0.0431187     0.0000000
 l=   2
     0.0000000    -0.0000091     0.0000000    -0.0000029     0.0000222
    -0.0000091     0.0000000     0.0000048    -0.0000025     0.0000114
     0.0000000     0.0000048     0.0000000    -0.0000034     0.0000000
    -0.0000029    -0.0000025    -0.0000034     0.0000000    -0.0000017
     0.0000222     0.0000114     0.0000000    -0.0000017     0.0000000
 l=   3
     0.0000000     0.0000000     0.0000000     0.0000000     0.0000000     0.0000000     0.0000000
     0.0000000     0.0000000     0.0000000     0.0000000     0.0000000     0.0000000     0.0000000
     0.0000000     0.0000000     0.0000000     0.0000000     0.0000000     0.0000000     0.0000000
     0.0000000     0.0000000     0.0000000     0.0000000     0.0000000     0.0000000     0.0000000
     0.0000000     0.0000000     0.0000000     0.0000000     0.0000000     0.0000000     0.0000000
     0.0000000     0.0000000     0.0000000     0.0000000     0.0000000     0.0000000     0.0000000
     0.0000000     0.0000000     0.0000000     0.0000000     0.0000000     0.0000000     0.0000000

 Ion:   83  E_soc:     -0.2790460
 l=   1
     0.0000000    -0.0479709    -0.0484523
    -0.0479709     0.0000000    -0.0431187
    -0.0484523    -0.0431187     0.0000000
 l=   2
     0.0000000    -0.0000091     0.0000000    -0.0000029     0.0000222
    -0.0000091     0.0000000     0.0000048    -0.0000025     0.0000114
     0.0000000     0.0000048     0.0000000    -0.0000034     0.0000000
    -0.0000029    -0.0000025    -0.0000034     0.0000000    -0.0000017
     0.0000222     0.0000114     0.0000000    -0.0000017     0.0000000
 l=   3
     0.0000000     0.0000000     0.0000000     0.0000000     0.0000000     0.0000000     0.0000000
     0.0000000     0.0000000     0.0000000     0.0000000     0.0000000     0.0000000     0.0000000
     0.0000000     0.0000000     0.0000000     0.0000000     0.0000000     0.0000000     0.0000000
     0.0000000     0.0000000     0.0000000     0.0000000     0.0000000     0.0000000     0.0000000
     0.0000000     0.0000000     0.0000000     0.0000000     0.0000000     0.0000000     0.0000000
     0.0000000     0.0000000     0.0000000     0.0000000     0.0000000     0.0000000     0.0000000
     0.0000000     0.0000000     0.0000000     0.0000000     0.0000000     0.0000000     0.0000000

 Ion:   84  E_soc:     -0.2807980
 l=   1
     0.0000000    -0.0487173    -0.0487919
    -0.0487173     0.0000000    -0.0429139
    -0.0487919    -0.0429139     0.0000000
 l=   2
     0.0000000    -0.0000104     0.0000000    -0.0000029     0.0000238
    -0.0000104     0.0000000     0.0000057    -0.0000023     0.0000142
     0.0000000     0.0000057     0.0000000    -0.0000031     0.0000000
    -0.0000029    -0.0000023    -0.0000031     0.0000000    -0.0000009
     0.0000238     0.0000142     0.0000000    -0.0000009     0.0000000
 l=   3
     0.0000000     0.0000000     0.0000000     0.0000000     0.0000000     0.0000000     0.0000000
     0.0000000     0.0000000     0.0000000     0.0000000     0.0000000     0.0000000     0.0000000
     0.0000000     0.0000000     0.0000000     0.0000000     0.0000000     0.0000000     0.0000000
     0.0000000     0.0000000     0.0000000     0.0000000     0.0000000     0.0000000     0.0000000
     0.0000000     0.0000000     0.0000000     0.0000000     0.0000000     0.0000000     0.0000000
     0.0000000     0.0000000     0.0000000     0.0000000     0.0000000     0.0000000     0.0000000
     0.0000000     0.0000000     0.0000000     0.0000000     0.0000000     0.0000000     0.0000000

 Ion:   85  E_soc:     -0.2790460
 l=   1
     0.0000000    -0.0479709    -0.0484523
    -0.0479709     0.0000000    -0.0431187
    -0.0484523    -0.0431187     0.0000000
 l=   2
     0.0000000    -0.0000091     0.0000000    -0.0000029     0.0000222
    -0.0000091     0.0000000     0.0000048    -0.0000025     0.0000114
     0.0000000     0.0000048     0.0000000    -0.0000034     0.0000000
    -0.0000029    -0.0000025    -0.0000034     0.0000000    -0.0000017
     0.0000222     0.0000114     0.0000000    -0.0000017     0.0000000
 l=   3
     0.0000000     0.0000000     0.0000000     0.0000000     0.0000000     0.0000000     0.0000000
     0.0000000     0.0000000     0.0000000     0.0000000     0.0000000     0.0000000     0.0000000
     0.0000000     0.0000000     0.0000000     0.0000000     0.0000000     0.0000000     0.0000000
     0.0000000     0.0000000     0.0000000     0.0000000     0.0000000     0.0000000     0.0000000
     0.0000000     0.0000000     0.0000000     0.0000000     0.0000000     0.0000000     0.0000000
     0.0000000     0.0000000     0.0000000     0.0000000     0.0000000     0.0000000     0.0000000
     0.0000000     0.0000000     0.0000000     0.0000000     0.0000000     0.0000000     0.0000000

 Ion:   86  E_soc:     -0.2807980
 l=   1
     0.0000000    -0.0487173    -0.0487919
    -0.0487173     0.0000000    -0.0429139
    -0.0487919    -0.0429139     0.0000000
 l=   2
     0.0000000    -0.0000104     0.0000000    -0.0000029     0.0000238
    -0.0000104     0.0000000     0.0000057    -0.0000023     0.0000142
     0.0000000     0.0000057     0.0000000    -0.0000031     0.0000000
    -0.0000029    -0.0000023    -0.0000031     0.0000000    -0.0000009
     0.0000238     0.0000142     0.0000000    -0.0000009     0.0000000
 l=   3
     0.0000000     0.0000000     0.0000000     0.0000000     0.0000000     0.0000000     0.0000000
     0.0000000     0.0000000     0.0000000     0.0000000     0.0000000     0.0000000     0.0000000
     0.0000000     0.0000000     0.0000000     0.0000000     0.0000000     0.0000000     0.0000000
     0.0000000     0.0000000     0.0000000     0.0000000     0.0000000     0.0000000     0.0000000
     0.0000000     0.0000000     0.0000000     0.0000000     0.0000000     0.0000000     0.0000000
     0.0000000     0.0000000     0.0000000     0.0000000     0.0000000     0.0000000     0.0000000
     0.0000000     0.0000000     0.0000000     0.0000000     0.0000000     0.0000000     0.0000000

 Ion:   87  E_soc:     -0.2807980
 l=   1
     0.0000000    -0.0487173    -0.0487919
    -0.0487173     0.0000000    -0.0429139
    -0.0487919    -0.0429139     0.0000000
 l=   2
     0.0000000    -0.0000104     0.0000000    -0.0000029     0.0000238
    -0.0000104     0.0000000     0.0000057    -0.0000023     0.0000142
     0.0000000     0.0000057     0.0000000    -0.0000031     0.0000000
    -0.0000029    -0.0000023    -0.0000031     0.0000000    -0.0000009
     0.0000238     0.0000142     0.0000000    -0.0000009     0.0000000
 l=   3
     0.0000000     0.0000000     0.0000000     0.0000000     0.0000000     0.0000000     0.0000000
     0.0000000     0.0000000     0.0000000     0.0000000     0.0000000     0.0000000     0.0000000
     0.0000000     0.0000000     0.0000000     0.0000000     0.0000000     0.0000000     0.0000000
     0.0000000     0.0000000     0.0000000     0.0000000     0.0000000     0.0000000     0.0000000
     0.0000000     0.0000000     0.0000000     0.0000000     0.0000000     0.0000000     0.0000000
     0.0000000     0.0000000     0.0000000     0.0000000     0.0000000     0.0000000     0.0000000
     0.0000000     0.0000000     0.0000000     0.0000000     0.0000000     0.0000000     0.0000000

 Ion:   88  E_soc:     -0.2790460
 l=   1
     0.0000000    -0.0479709    -0.0484523
    -0.0479709     0.0000000    -0.0431187
    -0.0484523    -0.0431187     0.0000000
 l=   2
     0.0000000    -0.0000091     0.0000000    -0.0000029     0.0000222
    -0.0000091     0.0000000     0.0000048    -0.0000025     0.0000114
     0.0000000     0.0000048     0.0000000    -0.0000034     0.0000000
    -0.0000029    -0.0000025    -0.0000034     0.0000000    -0.0000017
     0.0000222     0.0000114     0.0000000    -0.0000017     0.0000000
 l=   3
     0.0000000     0.0000000     0.0000000     0.0000000     0.0000000     0.0000000     0.0000000
     0.0000000     0.0000000     0.0000000     0.0000000     0.0000000     0.0000000     0.0000000
     0.0000000     0.0000000     0.0000000     0.0000000     0.0000000     0.0000000     0.0000000
     0.0000000     0.0000000     0.0000000     0.0000000     0.0000000     0.0000000     0.0000000
     0.0000000     0.0000000     0.0000000     0.0000000     0.0000000     0.0000000     0.0000000
     0.0000000     0.0000000     0.0000000     0.0000000     0.0000000     0.0000000     0.0000000
     0.0000000     0.0000000     0.0000000     0.0000000     0.0000000     0.0000000     0.0000000

 Ion:   89  E_soc:     -0.2855358
 l=   1
     0.0000000    -0.0430129    -0.0494389
    -0.0430129     0.0000000    -0.0503368
    -0.0494389    -0.0503368     0.0000000
 l=   2
     0.0000000    -0.0000021     0.0000000    -0.0000079     0.0000193
    -0.0000021     0.0000000    -0.0000023    -0.0000024    -0.0000015
     0.0000000    -0.0000023     0.0000000     0.0000050     0.0000000
    -0.0000079    -0.0000024     0.0000050     0.0000000     0.0000126
     0.0000193    -0.0000015     0.0000000     0.0000126     0.0000000
 l=   3
     0.0000000     0.0000000     0.0000000     0.0000000     0.0000000     0.0000000     0.0000000
     0.0000000     0.0000000     0.0000000     0.0000000     0.0000000     0.0000000     0.0000000
     0.0000000     0.0000000     0.0000000     0.0000000     0.0000000     0.0000000     0.0000000
     0.0000000     0.0000000     0.0000000     0.0000000     0.0000000     0.0000000     0.0000000
     0.0000000     0.0000000     0.0000000     0.0000000     0.0000000     0.0000000     0.0000000
     0.0000000     0.0000000     0.0000000     0.0000000     0.0000000     0.0000000     0.0000000
     0.0000000     0.0000000     0.0000000     0.0000000     0.0000000     0.0000000     0.0000000

 Ion:   90  E_soc:     -0.2855223
 l=   1
     0.0000000    -0.0430129    -0.0494347
    -0.0430129     0.0000000    -0.0503343
    -0.0494347    -0.0503343     0.0000000
 l=   2
     0.0000000    -0.0000021     0.0000000    -0.0000079     0.0000193
    -0.0000021     0.0000000    -0.0000023    -0.0000024    -0.0000015
     0.0000000    -0.0000023     0.0000000     0.0000050     0.0000000
    -0.0000079    -0.0000024     0.0000050     0.0000000     0.0000126
     0.0000193    -0.0000015     0.0000000     0.0000126     0.0000000
 l=   3
     0.0000000     0.0000000     0.0000000     0.0000000     0.0000000     0.0000000     0.0000000
     0.0000000     0.0000000     0.0000000     0.0000000     0.0000000     0.0000000     0.0000000
     0.0000000     0.0000000     0.0000000     0.0000000     0.0000000     0.0000000     0.0000000
     0.0000000     0.0000000     0.0000000     0.0000000     0.0000000     0.0000000     0.0000000
     0.0000000     0.0000000     0.0000000     0.0000000     0.0000000     0.0000000     0.0000000
     0.0000000     0.0000000     0.0000000     0.0000000     0.0000000     0.0000000     0.0000000
     0.0000000     0.0000000     0.0000000     0.0000000     0.0000000     0.0000000     0.0000000

 Ion:   91  E_soc:     -0.2855223
 l=   1
     0.0000000    -0.0430129    -0.0494347
    -0.0430129     0.0000000    -0.0503343
    -0.0494347    -0.0503343     0.0000000
 l=   2
     0.0000000    -0.0000021     0.0000000    -0.0000079     0.0000193
    -0.0000021     0.0000000    -0.0000023    -0.0000024    -0.0000015
     0.0000000    -0.0000023     0.0000000     0.0000050     0.0000000
    -0.0000079    -0.0000024     0.0000050     0.0000000     0.0000126
     0.0000193    -0.0000015     0.0000000     0.0000126     0.0000000
 l=   3
     0.0000000     0.0000000     0.0000000     0.0000000     0.0000000     0.0000000     0.0000000
     0.0000000     0.0000000     0.0000000     0.0000000     0.0000000     0.0000000     0.0000000
     0.0000000     0.0000000     0.0000000     0.0000000     0.0000000     0.0000000     0.0000000
     0.0000000     0.0000000     0.0000000     0.0000000     0.0000000     0.0000000     0.0000000
     0.0000000     0.0000000     0.0000000     0.0000000     0.0000000     0.0000000     0.0000000
     0.0000000     0.0000000     0.0000000     0.0000000     0.0000000     0.0000000     0.0000000
     0.0000000     0.0000000     0.0000000     0.0000000     0.0000000     0.0000000     0.0000000

 Ion:   92  E_soc:     -0.2855358
 l=   1
     0.0000000    -0.0430129    -0.0494389
    -0.0430129     0.0000000    -0.0503368
    -0.0494389    -0.0503368     0.0000000
 l=   2
     0.0000000    -0.0000021     0.0000000    -0.0000079     0.0000193
    -0.0000021     0.0000000    -0.0000023    -0.0000024    -0.0000015
     0.0000000    -0.0000023     0.0000000     0.0000050     0.0000000
    -0.0000079    -0.0000024     0.0000050     0.0000000     0.0000126
     0.0000193    -0.0000015     0.0000000     0.0000126     0.0000000
 l=   3
     0.0000000     0.0000000     0.0000000     0.0000000     0.0000000     0.0000000     0.0000000
     0.0000000     0.0000000     0.0000000     0.0000000     0.0000000     0.0000000     0.0000000
     0.0000000     0.0000000     0.0000000     0.0000000     0.0000000     0.0000000     0.0000000
     0.0000000     0.0000000     0.0000000     0.0000000     0.0000000     0.0000000     0.0000000
     0.0000000     0.0000000     0.0000000     0.0000000     0.0000000     0.0000000     0.0000000
     0.0000000     0.0000000     0.0000000     0.0000000     0.0000000     0.0000000     0.0000000
     0.0000000     0.0000000     0.0000000     0.0000000     0.0000000     0.0000000     0.0000000

 Ion:   93  E_soc:     -0.2855223
 l=   1
     0.0000000    -0.0430129    -0.0494347
    -0.0430129     0.0000000    -0.0503343
    -0.0494347    -0.0503343     0.0000000
 l=   2
     0.0000000    -0.0000021     0.0000000    -0.0000079     0.0000193
    -0.0000021     0.0000000    -0.0000023    -0.0000024    -0.0000015
     0.0000000    -0.0000023     0.0000000     0.0000050     0.0000000
    -0.0000079    -0.0000024     0.0000050     0.0000000     0.0000126
     0.0000193    -0.0000015     0.0000000     0.0000126     0.0000000
 l=   3
     0.0000000     0.0000000     0.0000000     0.0000000     0.0000000     0.0000000     0.0000000
     0.0000000     0.0000000     0.0000000     0.0000000     0.0000000     0.0000000     0.0000000
     0.0000000     0.0000000     0.0000000     0.0000000     0.0000000     0.0000000     0.0000000
     0.0000000     0.0000000     0.0000000     0.0000000     0.0000000     0.0000000     0.0000000
     0.0000000     0.0000000     0.0000000     0.0000000     0.0000000     0.0000000     0.0000000
     0.0000000     0.0000000     0.0000000     0.0000000     0.0000000     0.0000000     0.0000000
     0.0000000     0.0000000     0.0000000     0.0000000     0.0000000     0.0000000     0.0000000

 Ion:   94  E_soc:     -0.2855358
 l=   1
     0.0000000    -0.0430129    -0.0494389
    -0.0430129     0.0000000    -0.0503368
    -0.0494389    -0.0503368     0.0000000
 l=   2
     0.0000000    -0.0000021     0.0000000    -0.0000079     0.0000193
    -0.0000021     0.0000000    -0.0000023    -0.0000024    -0.0000015
     0.0000000    -0.0000023     0.0000000     0.0000050     0.0000000
    -0.0000079    -0.0000024     0.0000050     0.0000000     0.0000126
     0.0000193    -0.0000015     0.0000000     0.0000126     0.0000000
 l=   3
     0.0000000     0.0000000     0.0000000     0.0000000     0.0000000     0.0000000     0.0000000
     0.0000000     0.0000000     0.0000000     0.0000000     0.0000000     0.0000000     0.0000000
     0.0000000     0.0000000     0.0000000     0.0000000     0.0000000     0.0000000     0.0000000
     0.0000000     0.0000000     0.0000000     0.0000000     0.0000000     0.0000000     0.0000000
     0.0000000     0.0000000     0.0000000     0.0000000     0.0000000     0.0000000     0.0000000
     0.0000000     0.0000000     0.0000000     0.0000000     0.0000000     0.0000000     0.0000000
     0.0000000     0.0000000     0.0000000     0.0000000     0.0000000     0.0000000     0.0000000

 Ion:   95  E_soc:     -0.2855358
 l=   1
     0.0000000    -0.0430129    -0.0494389
    -0.0430129     0.0000000    -0.0503368
    -0.0494389    -0.0503368     0.0000000
 l=   2
     0.0000000    -0.0000021     0.0000000    -0.0000079     0.0000193
    -0.0000021     0.0000000    -0.0000023    -0.0000024    -0.0000015
     0.0000000    -0.0000023     0.0000000     0.0000050     0.0000000
    -0.0000079    -0.0000024     0.0000050     0.0000000     0.0000126
     0.0000193    -0.0000015     0.0000000     0.0000126     0.0000000
 l=   3
     0.0000000     0.0000000     0.0000000     0.0000000     0.0000000     0.0000000     0.0000000
     0.0000000     0.0000000     0.0000000     0.0000000     0.0000000     0.0000000     0.0000000
     0.0000000     0.0000000     0.0000000     0.0000000     0.0000000     0.0000000     0.0000000
     0.0000000     0.0000000     0.0000000     0.0000000     0.0000000     0.0000000     0.0000000
     0.0000000     0.0000000     0.0000000     0.0000000     0.0000000     0.0000000     0.0000000
     0.0000000     0.0000000     0.0000000     0.0000000     0.0000000     0.0000000     0.0000000
     0.0000000     0.0000000     0.0000000     0.0000000     0.0000000     0.0000000     0.0000000

 Ion:   96  E_soc:     -0.2855223
 l=   1
     0.0000000    -0.0430129    -0.0494347
    -0.0430129     0.0000000    -0.0503343
    -0.0494347    -0.0503343     0.0000000
 l=   2
     0.0000000    -0.0000021     0.0000000    -0.0000079     0.0000193
    -0.0000021     0.0000000    -0.0000023    -0.0000024    -0.0000015
     0.0000000    -0.0000023     0.0000000     0.0000050     0.0000000
    -0.0000079    -0.0000024     0.0000050     0.0000000     0.0000126
     0.0000193    -0.0000015     0.0000000     0.0000126     0.0000000
 l=   3
     0.0000000     0.0000000     0.0000000     0.0000000     0.0000000     0.0000000     0.0000000
     0.0000000     0.0000000     0.0000000     0.0000000     0.0000000     0.0000000     0.0000000
     0.0000000     0.0000000     0.0000000     0.0000000     0.0000000     0.0000000     0.0000000
     0.0000000     0.0000000     0.0000000     0.0000000     0.0000000     0.0000000     0.0000000
     0.0000000     0.0000000     0.0000000     0.0000000     0.0000000     0.0000000     0.0000000
     0.0000000     0.0000000     0.0000000     0.0000000     0.0000000     0.0000000     0.0000000
     0.0000000     0.0000000     0.0000000     0.0000000     0.0000000     0.0000000     0.0000000

 total amount of memory used by VASP on root node   392927. kBytes
========================================================================

   base      :      30000. kBytes
   nonl-proj :      73667. kBytes
   fftplans  :      22714. kBytes
   grid      :      35610. kBytes
   one-center:        248. kBytes
   wavefun   :     230688. kBytes
 
  
  
 General timing and accounting informations for this job:
 ========================================================
  
                  Total CPU time used (sec):     8735.718
                            User time (sec):     8721.633
                          System time (sec):       14.085
                         Elapsed time (sec):     8754.683
  
                   Maximum memory used (kb):      412552.
                   Average memory used (kb):           0.
  
                          Minor page faults:       599499
                          Major page faults:            0
                 Voluntary context switches:        18029
