   2   2   1   0
  0.2002393E+02  0.3840297E-09  0.3840297E-09  0.3840297E-09  0.5000000E-15
  1.000000000000000E-004
  CAR 
 Name                                    
     16.84769258     -7.27841924  301      5.85020661      1.00000000
     -7.278  0.0000E+00  0.0000E+00
     -7.198  0.0000E+00  0.0000E+00
     -7.118  0.0000E+00  0.0000E+00
     -7.037  0.0000E+00  0.0000E+00
     -6.957  0.0000E+00  0.0000E+00
     -6.876  0.0000E+00  0.0000E+00
     -6.796  0.0000E+00  0.0000E+00
     -6.715  0.0000E+00  0.0000E+00
     -6.635  0.0000E+00  0.0000E+00
     -6.555  0.0000E+00  0.0000E+00
     -6.474  0.0000E+00  0.0000E+00
     -6.394  0.0000E+00  0.0000E+00
     -6.313  0.0000E+00  0.0000E+00
     -6.233  0.2632E-13  0.2117E-14
     -6.153  0.1151E+00  0.9259E-02
     -6.072  0.0000E+00  0.9259E-02
     -5.992  0.0000E+00  0.9259E-02
     -5.911  0.0000E+00  0.9259E-02
     -5.831  0.6465E-01  0.1446E-01
     -5.750  0.8564E+00  0.8333E-01
     -5.670  0.6908E+00  0.1389E+00
     -5.590  0.0000E+00  0.1389E+00
     -5.509  0.0000E+00  0.1389E+00
     -5.429  0.0000E+00  0.1389E+00
     -5.348  0.0000E+00  0.1389E+00
     -5.268  0.2200E-06  0.1389E+00
     -5.187  0.1382E+01  0.2500E+00
     -5.107  0.0000E+00  0.2500E+00
     -5.027  0.0000E+00  0.2500E+00
     -4.946  0.0000E+00  0.2500E+00
     -4.866  0.2728E+01  0.4694E+00
     -4.785  0.9159E+00  0.5459E+00
     -4.705  0.0000E+00  0.5463E+00
     -4.625  0.0000E+00  0.5463E+00
     -4.544  0.0000E+00  0.5463E+00
     -4.464  0.0000E+00  0.5463E+00
     -4.383  0.0000E+00  0.5463E+00
     -4.303  0.9855E-04  0.5463E+00
     -4.222  0.6907E+00  0.6019E+00
     -4.142  0.0000E+00  0.6019E+00
     -4.062  0.2605E+01  0.8114E+00
     -3.981  0.0000E+00  0.8241E+00
     -3.901  0.2049E+00  0.8406E+00
     -3.820  0.3019E+01  0.1083E+01
     -3.740  0.2546E-13  0.1083E+01
     -3.660  0.2763E+01  0.1306E+01
     -3.579  0.0000E+00  0.1306E+01
     -3.499  0.0000E+00  0.1306E+01
     -3.418  0.0000E+00  0.1306E+01
     -3.338  0.0000E+00  0.1306E+01
     -3.257  0.0000E+00  0.1306E+01
     -3.177  0.0000E+00  0.1306E+01
     -3.097  0.2723E+01  0.1525E+01
     -3.016  0.0000E+00  0.1528E+01
     -2.936  0.6389E-03  0.1528E+01
     -2.855  0.4144E+01  0.1861E+01
     -2.775  0.0000E+00  0.1861E+01
     -2.694  0.0000E+00  0.1861E+01
     -2.614  0.0000E+00  0.1861E+01
     -2.534  0.0000E+00  0.1861E+01
     -2.453  0.0000E+00  0.1861E+01
     -2.373  0.0000E+00  0.1861E+01
     -2.292  0.0000E+00  0.1861E+01
     -2.212  0.0000E+00  0.1861E+01
     -2.132  0.0000E+00  0.1861E+01
     -2.051  0.2220E-01  0.1863E+01
     -1.971  0.6686E+00  0.1917E+01
     -1.890  0.2763E+01  0.2139E+01
     -1.810  0.0000E+00  0.2139E+01
     -1.729  0.0000E+00  0.2139E+01
     -1.649  0.0000E+00  0.2139E+01
     -1.569  0.0000E+00  0.2139E+01
     -1.488  0.0000E+00  0.2139E+01
     -1.408  0.0000E+00  0.2139E+01
     -1.327  0.0000E+00  0.2139E+01
     -1.247  0.2500E-05  0.2139E+01
     -1.166  0.4605E+00  0.2176E+01
     -1.086  0.4532E-01  0.2180E+01
     -1.006  0.2817E+01  0.2406E+01
     -0.925  0.1282E+01  0.2509E+01
     -0.845  0.1364E+01  0.2619E+01
     -0.764  0.2762E+01  0.2954E+01
     -0.684  0.0000E+00  0.2954E+01
     -0.604  0.0000E+00  0.2954E+01
     -0.523  0.0000E+00  0.2954E+01
     -0.443  0.0000E+00  0.2954E+01
     -0.362  0.0000E+00  0.2954E+01
     -0.282  0.6624E-07  0.2954E+01
     -0.201  0.2763E+01  0.3176E+01
     -0.121  0.0000E+00  0.3176E+01
     -0.041  0.0000E+00  0.3176E+01
      0.040  0.0000E+00  0.3176E+01
      0.120  0.2161E+00  0.3193E+01
      0.201  0.2547E+01  0.3398E+01
      0.281  0.0000E+00  0.3398E+01
      0.362  0.0000E+00  0.3398E+01
      0.442  0.9142E+00  0.3472E+01
      0.522  0.0000E+00  0.3472E+01
      0.603  0.0000E+00  0.3472E+01
      0.683  0.0000E+00  0.3472E+01
      0.764  0.3992E+00  0.3504E+01
      0.844  0.0000E+00  0.3528E+01
      0.924  0.0000E+00  0.3528E+01
      1.005  0.0000E+00  0.3528E+01
      1.085  0.0000E+00  0.3528E+01
      1.166  0.0000E+00  0.3528E+01
      1.246  0.0000E+00  0.3528E+01
      1.327  0.1543E+01  0.3652E+01
      1.407  0.2602E+01  0.3861E+01
      1.487  0.0000E+00  0.3861E+01
      1.568  0.0000E+00  0.3861E+01
      1.648  0.0000E+00  0.3861E+01
      1.729  0.2640E+00  0.3882E+01
      1.809  0.2499E+01  0.4083E+01
      1.890  0.0000E+00  0.4083E+01
      1.970  0.0000E+00  0.4083E+01
      2.050  0.8376E+00  0.4151E+01
      2.131  0.5371E+01  0.4626E+01
      2.211  0.2763E+01  0.4861E+01
      2.292  0.0000E+00  0.4861E+01
      2.372  0.0000E+00  0.4861E+01
      2.452  0.0000E+00  0.4861E+01
      2.533  0.0000E+00  0.4861E+01
      2.613  0.0000E+00  0.4861E+01
      2.694  0.6695E-01  0.4866E+01
      2.774  0.2696E+01  0.5083E+01
      2.855  0.0000E+00  0.5083E+01
      2.935  0.6675E+00  0.5137E+01
      3.015  0.5507E+01  0.5582E+01
      3.096  0.0000E+00  0.5583E+01
      3.176  0.6008E-09  0.5583E+01
      3.257  0.2763E+01  0.5806E+01
      3.337  0.2777E+00  0.5828E+01
      3.417  0.3407E+01  0.6102E+01
      3.498  0.2763E+01  0.6324E+01
      3.578  0.0000E+00  0.6324E+01
      3.659  0.3314E+00  0.6351E+01
      3.739  0.1729E+01  0.6490E+01
      3.820  0.2763E+01  0.6713E+01
      3.900  0.0000E+00  0.6713E+01
      3.980  0.8350E-02  0.6714E+01
      4.061  0.5518E+01  0.7157E+01
      4.141  0.0000E+00  0.7157E+01
      4.222  0.0000E+00  0.7157E+01
      4.302  0.0000E+00  0.7157E+01
      4.383  0.0000E+00  0.7157E+01
      4.463  0.1725E-01  0.7159E+01
      4.543  0.2746E+01  0.7380E+01
      4.624  0.2303E+01  0.7565E+01
      4.704  0.0000E+00  0.7565E+01
      4.785  0.1544E+01  0.7689E+01
      4.865  0.0000E+00  0.7713E+01
      4.945  0.0000E+00  0.7713E+01
      5.026  0.0000E+00  0.7713E+01
      5.106  0.0000E+00  0.7713E+01
      5.187  0.7649E-04  0.7713E+01
      5.267  0.1382E+01  0.7824E+01
      5.348  0.1841E+01  0.7972E+01
      5.428  0.0000E+00  0.7972E+01
      5.508  0.0000E+00  0.7972E+01
      5.589  0.0000E+00  0.7972E+01
      5.669  0.0000E+00  0.7972E+01
      5.750  0.2296E-04  0.7972E+01
      5.830  0.3454E+00  0.8000E+01
      5.911  0.0000E+00  0.8000E+01
      5.991  0.0000E+00  0.8000E+01
      6.071  0.0000E+00  0.8000E+01
      6.152  0.0000E+00  0.8000E+01
      6.232  0.0000E+00  0.8000E+01
      6.313  0.0000E+00  0.8000E+01
      6.393  0.7605E+00  0.8061E+01
      6.473  0.6171E+00  0.8111E+01
      6.554  0.0000E+00  0.8111E+01
      6.634  0.0000E+00  0.8111E+01
      6.715  0.1015E-01  0.8112E+01
      6.795  0.2753E+01  0.8333E+01
      6.876  0.0000E+00  0.8333E+01
      6.956  0.0000E+00  0.8333E+01
      7.036  0.0000E+00  0.8333E+01
      7.117  0.0000E+00  0.8333E+01
      7.197  0.1094E+00  0.8342E+01
      7.278  0.1733E+01  0.8481E+01
      7.358  0.4291E-10  0.8481E+01
      7.439  0.1496E+01  0.8602E+01
      7.519  0.0000E+00  0.8611E+01
      7.599  0.4602E-15  0.8611E+01
      7.680  0.3451E+01  0.8889E+01
      7.760  0.2763E+01  0.9111E+01
      7.841  0.0000E+00  0.9111E+01
      7.921  0.0000E+00  0.9111E+01
      8.001  0.1355E-05  0.9111E+01
      8.082  0.9211E+00  0.9185E+01
      8.162  0.2761E+01  0.9407E+01
      8.243  0.3892E-14  0.9407E+01
      8.323  0.3454E+00  0.9435E+01
      8.404  0.1913E+01  0.9589E+01
      8.484  0.2763E+01  0.9880E+01
      8.564  0.2727E+01  0.1010E+02
      8.645  0.0000E+00  0.1010E+02
      8.725  0.1963E-01  0.1010E+02
      8.806  0.1362E+01  0.1021E+02
      8.886  0.6136E-15  0.1021E+02
      8.966  0.1842E+01  0.1036E+02
      9.047  0.2249E+01  0.1054E+02
      9.127  0.9132E+00  0.1067E+02
      9.208  0.2568E-03  0.1067E+02
      9.288  0.5368E+01  0.1110E+02
      9.369  0.6496E-03  0.1115E+02
      9.449  0.2763E+01  0.1137E+02
      9.529  0.7376E-01  0.1138E+02
      9.610  0.1308E+01  0.1148E+02
      9.690  0.0000E+00  0.1148E+02
      9.771  0.2757E+01  0.1170E+02
      9.851  0.5527E+01  0.1215E+02
      9.932  0.1024E+01  0.1223E+02
     10.012  0.5193E+01  0.1265E+02
     10.092  0.1375E+01  0.1276E+02
     10.173  0.4549E-11  0.1276E+02
     10.253  0.2763E+01  0.1298E+02
     10.334  0.1313E+00  0.1299E+02
     10.414  0.2632E+01  0.1320E+02
     10.494  0.0000E+00  0.1320E+02
     10.575  0.0000E+00  0.1320E+02
     10.655  0.0000E+00  0.1320E+02
     10.736  0.0000E+00  0.1320E+02
     10.816  0.2742E+01  0.1342E+02
     10.897  0.0000E+00  0.1343E+02
     10.977  0.0000E+00  0.1343E+02
     11.057  0.2790E-06  0.1343E+02
     11.138  0.9211E+00  0.1350E+02
     11.218  0.0000E+00  0.1350E+02
     11.299  0.3064E-03  0.1350E+02
     11.379  0.1381E+01  0.1361E+02
     11.460  0.1639E-02  0.1361E+02
     11.540  0.1380E+01  0.1372E+02
     11.620  0.0000E+00  0.1372E+02
     11.701  0.0000E+00  0.1372E+02
     11.781  0.9533E+00  0.1380E+02
     11.862  0.1810E+01  0.1394E+02
     11.942  0.0000E+00  0.1394E+02
     12.022  0.0000E+00  0.1394E+02
     12.103  0.1564E+01  0.1407E+02
     12.183  0.3518E+00  0.1419E+02
     12.264  0.3793E+01  0.1450E+02
     12.344  0.0000E+00  0.1450E+02
     12.425  0.2170E-03  0.1450E+02
     12.505  0.2763E+01  0.1472E+02
     12.585  0.0000E+00  0.1472E+02
     12.666  0.0000E+00  0.1472E+02
     12.746  0.2498E+00  0.1474E+02
     12.827  0.3895E+01  0.1506E+02
     12.907  0.6510E-05  0.1506E+02
     12.988  0.4143E+01  0.1539E+02
     13.068  0.0000E+00  0.1539E+02
     13.148  0.6593E+00  0.1544E+02
     13.229  0.4867E+01  0.1583E+02
     13.309  0.4605E+00  0.1587E+02
     13.390  0.0000E+00  0.1587E+02
     13.470  0.9194E+00  0.1594E+02
     13.550  0.0000E+00  0.1594E+02
     13.631  0.0000E+00  0.1594E+02
     13.711  0.0000E+00  0.1594E+02
     13.792  0.0000E+00  0.1594E+02
     13.872  0.0000E+00  0.1594E+02
     13.953  0.0000E+00  0.1594E+02
     14.033  0.0000E+00  0.1594E+02
     14.113  0.0000E+00  0.1594E+02
     14.194  0.0000E+00  0.1594E+02
     14.274  0.0000E+00  0.1594E+02
     14.355  0.0000E+00  0.1594E+02
     14.435  0.0000E+00  0.1594E+02
     14.516  0.0000E+00  0.1594E+02
     14.596  0.0000E+00  0.1594E+02
     14.676  0.0000E+00  0.1594E+02
     14.757  0.0000E+00  0.1594E+02
     14.837  0.0000E+00  0.1594E+02
     14.918  0.0000E+00  0.1594E+02
     14.998  0.0000E+00  0.1594E+02
     15.078  0.0000E+00  0.1594E+02
     15.159  0.0000E+00  0.1594E+02
     15.239  0.0000E+00  0.1594E+02
     15.320  0.0000E+00  0.1594E+02
     15.400  0.0000E+00  0.1594E+02
     15.481  0.0000E+00  0.1594E+02
     15.561  0.0000E+00  0.1594E+02
     15.641  0.0000E+00  0.1594E+02
     15.722  0.1222E-04  0.1594E+02
     15.802  0.6908E+00  0.1600E+02
     15.883  0.0000E+00  0.1600E+02
     15.963  0.0000E+00  0.1600E+02
     16.043  0.0000E+00  0.1600E+02
     16.124  0.0000E+00  0.1600E+02
     16.204  0.0000E+00  0.1600E+02
     16.285  0.0000E+00  0.1600E+02
     16.365  0.0000E+00  0.1600E+02
     16.446  0.0000E+00  0.1600E+02
     16.526  0.0000E+00  0.1600E+02
     16.606  0.0000E+00  0.1600E+02
     16.687  0.0000E+00  0.1600E+02
     16.767  0.0000E+00  0.1600E+02
     16.848  0.0000E+00  0.1600E+02
     16.84769258     -7.27841924  301      5.85020661      1.00000000
     -7.278  0.0000E+00  0.0000E+00  0.0000E+00
     -7.198  0.0000E+00  0.0000E+00  0.0000E+00
     -7.118  0.0000E+00  0.0000E+00  0.0000E+00
     -7.037  0.0000E+00  0.0000E+00  0.0000E+00
     -6.957  0.0000E+00  0.0000E+00  0.0000E+00
     -6.876  0.0000E+00  0.0000E+00  0.0000E+00
     -6.796  0.0000E+00  0.0000E+00  0.0000E+00
     -6.715  0.0000E+00  0.0000E+00  0.0000E+00
     -6.635  0.0000E+00  0.0000E+00  0.0000E+00
     -6.555  0.0000E+00  0.0000E+00  0.0000E+00
     -6.474  0.0000E+00  0.0000E+00  0.0000E+00
     -6.394  0.0000E+00  0.0000E+00  0.0000E+00
     -6.313  0.0000E+00  0.0000E+00  0.0000E+00
     -6.233  0.5634E-14  0.1399E-30  0.0000E+00
     -6.153  0.2465E-01  0.6119E-18  0.0000E+00
     -6.072  0.0000E+00  0.0000E+00  0.0000E+00
     -5.992  0.0000E+00  0.0000E+00  0.0000E+00
     -5.911  0.0000E+00  0.0000E+00  0.0000E+00
     -5.831  0.1373E-01  0.2503E-03  0.0000E+00
     -5.750  0.1819E+00  0.3315E-02  0.0000E+00
     -5.670  0.1462E+00  0.3689E-02  0.0000E+00
     -5.590  0.0000E+00  0.0000E+00  0.0000E+00
     -5.509  0.0000E+00  0.0000E+00  0.0000E+00
     -5.429  0.0000E+00  0.0000E+00  0.0000E+00
     -5.348  0.0000E+00  0.0000E+00  0.0000E+00
     -5.268  0.4630E-07  0.2167E-08  0.0000E+00
     -5.187  0.2907E+00  0.1361E-01  0.0000E+00
     -5.107  0.0000E+00  0.0000E+00  0.0000E+00
     -5.027  0.0000E+00  0.0000E+00  0.0000E+00
     -4.946  0.0000E+00  0.0000E+00  0.0000E+00
     -4.866  0.5706E+00  0.3679E-01  0.0000E+00
     -4.785  0.1940E+00  0.1165E-01  0.0000E+00
     -4.705  0.0000E+00  0.0000E+00  0.0000E+00
     -4.625  0.0000E+00  0.0000E+00  0.0000E+00
     -4.544  0.0000E+00  0.0000E+00  0.0000E+00
     -4.464  0.0000E+00  0.0000E+00  0.0000E+00
     -4.383  0.0000E+00  0.0000E+00  0.0000E+00
     -4.303  0.2019E-04  0.2059E-05  0.0000E+00
     -4.222  0.1415E+00  0.1443E-01  0.0000E+00
     -4.142  0.0000E+00  0.0000E+00  0.0000E+00
     -4.062  0.5552E+00  0.4812E-01  0.0000E+00
     -3.981  0.0000E+00  0.0000E+00  0.0000E+00
     -3.901  0.4262E-01  0.4650E-02  0.0000E+00
     -3.820  0.6365E+00  0.6434E-01  0.0000E+00
     -3.740  0.5563E-14  0.4911E-15  0.0000E+00
     -3.660  0.6036E+00  0.5329E-01  0.0000E+00
     -3.579  0.0000E+00  0.0000E+00  0.0000E+00
     -3.499  0.0000E+00  0.0000E+00  0.0000E+00
     -3.418  0.0000E+00  0.0000E+00  0.0000E+00
     -3.338  0.0000E+00  0.0000E+00  0.0000E+00
     -3.257  0.0000E+00  0.0000E+00  0.0000E+00
     -3.177  0.0000E+00  0.0000E+00  0.0000E+00
     -3.097  0.5572E+00  0.8537E-01  0.0000E+00
     -3.016  0.0000E+00  0.0000E+00  0.0000E+00
     -2.936  0.1380E-03  0.1786E-04  0.0000E+00
     -2.855  0.8989E+00  0.1142E+00  0.0000E+00
     -2.775  0.0000E+00  0.0000E+00  0.0000E+00
     -2.694  0.0000E+00  0.0000E+00  0.0000E+00
     -2.614  0.0000E+00  0.0000E+00  0.0000E+00
     -2.534  0.0000E+00  0.0000E+00  0.0000E+00
     -2.453  0.0000E+00  0.0000E+00  0.0000E+00
     -2.373  0.0000E+00  0.0000E+00  0.0000E+00
     -2.292  0.0000E+00  0.0000E+00  0.0000E+00
     -2.212  0.0000E+00  0.0000E+00  0.0000E+00
     -2.132  0.0000E+00  0.0000E+00  0.0000E+00
     -2.051  0.4322E-02  0.1012E-02  0.0000E+00
     -1.971  0.1302E+00  0.3047E-01  0.0000E+00
     -1.890  0.5614E+00  0.1196E+00  0.0000E+00
     -1.810  0.0000E+00  0.0000E+00  0.0000E+00
     -1.729  0.0000E+00  0.0000E+00  0.0000E+00
     -1.649  0.0000E+00  0.0000E+00  0.0000E+00
     -1.569  0.0000E+00  0.0000E+00  0.0000E+00
     -1.488  0.0000E+00  0.0000E+00  0.0000E+00
     -1.408  0.0000E+00  0.0000E+00  0.0000E+00
     -1.327  0.0000E+00  0.0000E+00  0.0000E+00
     -1.247  0.2457E-06  0.2361E-06  0.0000E+00
     -1.166  0.4526E-01  0.4349E-01  0.0000E+00
     -1.086  0.7550E-02  0.3038E-02  0.0000E+00
     -1.006  0.4704E+00  0.1885E+00  0.0000E+00
     -0.925  0.2276E+00  0.8079E-01  0.0000E+00
     -0.845  0.1660E+00  0.1194E+00  0.0000E+00
     -0.764  0.5166E+00  0.1680E+00  0.0000E+00
     -0.684  0.0000E+00  0.0000E+00  0.0000E+00
     -0.604  0.0000E+00  0.0000E+00  0.0000E+00
     -0.523  0.0000E+00  0.0000E+00  0.0000E+00
     -0.443  0.0000E+00  0.0000E+00  0.0000E+00
     -0.362  0.0000E+00  0.0000E+00  0.0000E+00
     -0.282  0.8389E-08  0.5991E-08  0.0000E+00
     -0.201  0.3500E+00  0.2499E+00  0.0000E+00
     -0.121  0.0000E+00  0.0000E+00  0.0000E+00
     -0.041  0.0000E+00  0.0000E+00  0.0000E+00
      0.040  0.0000E+00  0.0000E+00  0.0000E+00
      0.120  0.3712E-01  0.1647E-01  0.0000E+00
      0.201  0.4375E+00  0.1942E+00  0.0000E+00
      0.281  0.0000E+00  0.0000E+00  0.0000E+00
      0.362  0.0000E+00  0.0000E+00  0.0000E+00
      0.442  0.9692E-01  0.9494E-01  0.0000E+00
      0.522  0.0000E+00  0.0000E+00  0.0000E+00
      0.603  0.0000E+00  0.0000E+00  0.0000E+00
      0.683  0.0000E+00  0.0000E+00  0.0000E+00
      0.764  0.7046E-01  0.3151E-01  0.0000E+00
      0.844  0.0000E+00  0.0000E+00  0.0000E+00
      0.924  0.0000E+00  0.0000E+00  0.0000E+00
      1.005  0.0000E+00  0.0000E+00  0.0000E+00
      1.085  0.0000E+00  0.0000E+00  0.0000E+00
      1.166  0.0000E+00  0.0000E+00  0.0000E+00
      1.246  0.0000E+00  0.0000E+00  0.0000E+00
      1.327  0.1334E+00  0.1854E+00  0.0000E+00
      1.407  0.2269E+00  0.3119E+00  0.0000E+00
      1.487  0.0000E+00  0.0000E+00  0.0000E+00
      1.568  0.0000E+00  0.0000E+00  0.0000E+00
      1.648  0.0000E+00  0.0000E+00  0.0000E+00
      1.729  0.5410E-02  0.3967E-01  0.0000E+00
      1.809  0.5122E-01  0.3755E+00  0.0000E+00
      1.890  0.0000E+00  0.0000E+00  0.0000E+00
      1.970  0.0000E+00  0.0000E+00  0.0000E+00
      2.050  0.1043E+00  0.9466E-01  0.0000E+00
      2.131  0.2043E-01  0.8859E+00  0.0000E+00
      2.211  0.3315E-01  0.4411E+00  0.0000E+00
      2.292  0.0000E+00  0.0000E+00  0.0000E+00
      2.372  0.0000E+00  0.0000E+00  0.0000E+00
      2.452  0.0000E+00  0.0000E+00  0.0000E+00
      2.533  0.0000E+00  0.0000E+00  0.0000E+00
      2.613  0.0000E+00  0.0000E+00  0.0000E+00
      2.694  0.2378E-02  0.1043E-01  0.0000E+00
      2.774  0.9578E-01  0.4201E+00  0.0000E+00
      2.855  0.0000E+00  0.0000E+00  0.0000E+00
      2.935  0.9699E-11  0.1329E+00  0.0000E+00
      3.015  0.1232E+00  0.9238E+00  0.0000E+00
      3.096  0.0000E+00  0.0000E+00  0.0000E+00
      3.176  0.2226E-25  0.1206E-09  0.0000E+00
      3.257  0.1024E-15  0.5546E+00  0.0000E+00
      3.337  0.3288E-02  0.4742E-01  0.0000E+00
      3.417  0.8502E-01  0.5953E+00  0.0000E+00
      3.498  0.1242E-01  0.5130E+00  0.0000E+00
      3.578  0.0000E+00  0.0000E+00  0.0000E+00
      3.659  0.1506E-17  0.6800E-01  0.0000E+00
      3.739  0.8493E-01  0.3025E+00  0.0000E+00
      3.820  0.9501E-01  0.4694E+00  0.0000E+00
      3.900  0.0000E+00  0.0000E+00  0.0000E+00
      3.980  0.2750E-19  0.1741E-02  0.0000E+00
      4.061  0.1846E-15  0.1136E+01  0.0000E+00
      4.141  0.0000E+00  0.0000E+00  0.0000E+00
      4.222  0.0000E+00  0.0000E+00  0.0000E+00
      4.302  0.0000E+00  0.0000E+00  0.0000E+00
      4.383  0.0000E+00  0.0000E+00  0.0000E+00
      4.463  0.3073E-17  0.3716E-02  0.0000E+00
      4.543  0.4891E-15  0.5915E+00  0.0000E+00
      4.624  0.7894E-16  0.4838E+00  0.0000E+00
      4.704  0.0000E+00  0.0000E+00  0.0000E+00
      4.785  0.2699E-14  0.3366E+00  0.0000E+00
      4.865  0.0000E+00  0.0000E+00  0.0000E+00
      4.945  0.0000E+00  0.0000E+00  0.0000E+00
      5.026  0.0000E+00  0.0000E+00  0.0000E+00
      5.106  0.0000E+00  0.0000E+00  0.0000E+00
      5.187  0.4546E-20  0.1703E-04  0.0000E+00
      5.267  0.8211E-16  0.3076E+00  0.0000E+00
      5.348  0.7138E-15  0.3960E+00  0.0000E+00
      5.428  0.0000E+00  0.0000E+00  0.0000E+00
      5.508  0.0000E+00  0.0000E+00  0.0000E+00
      5.589  0.0000E+00  0.0000E+00  0.0000E+00
      5.669  0.0000E+00  0.0000E+00  0.0000E+00
      5.750  0.1368E-20  0.5020E-05  0.0000E+00
      5.830  0.2058E-16  0.7550E-01  0.0000E+00
      5.911  0.0000E+00  0.0000E+00  0.0000E+00
      5.991  0.0000E+00  0.0000E+00  0.0000E+00
      6.071  0.0000E+00  0.0000E+00  0.0000E+00
      6.152  0.0000E+00  0.0000E+00  0.0000E+00
      6.232  0.0000E+00  0.0000E+00  0.0000E+00
      6.313  0.0000E+00  0.0000E+00  0.0000E+00
      6.393  0.3996E-01  0.2815E-01  0.0000E+00
      6.473  0.3207E-01  0.3535E-01  0.0000E+00
      6.554  0.0000E+00  0.0000E+00  0.0000E+00
      6.634  0.0000E+00  0.0000E+00  0.0000E+00
      6.715  0.5172E-03  0.4429E-03  0.0000E+00
      6.795  0.1404E+00  0.1202E+00  0.0000E+00
      6.876  0.0000E+00  0.0000E+00  0.0000E+00
      6.956  0.0000E+00  0.0000E+00  0.0000E+00
      7.036  0.0000E+00  0.0000E+00  0.0000E+00
      7.117  0.0000E+00  0.0000E+00  0.0000E+00
      7.197  0.2065E-01  0.2068E-02  0.0000E+00
      7.278  0.1420E+00  0.6988E-01  0.0000E+00
      7.358  0.1313E-11  0.4412E-11  0.0000E+00
      7.439  0.1624E+00  0.9629E-01  0.0000E+00
      7.519  0.0000E+00  0.0000E+00  0.0000E+00
      7.599  0.1883E-16  0.4087E-16  0.0000E+00
      7.680  0.1433E+00  0.2668E+00  0.0000E+00
      7.760  0.1765E+00  0.1655E+00  0.0000E+00
      7.841  0.0000E+00  0.0000E+00  0.0000E+00
      7.921  0.0000E+00  0.0000E+00  0.0000E+00
      8.001  0.1760E-06  0.9873E-07  0.0000E+00
      8.082  0.1196E+00  0.6710E-01  0.0000E+00
      8.162  0.2275E+00  0.1776E+00  0.0000E+00
      8.243  0.1701E-27  0.5976E-15  0.0000E+00
      8.323  0.1509E-13  0.5303E-01  0.0000E+00
      8.404  0.6604E-01  0.1398E+00  0.0000E+00
      8.484  0.9319E-01  0.2160E+00  0.0000E+00
      8.564  0.8047E-01  0.2806E+00  0.0000E+00
      8.645  0.0000E+00  0.0000E+00  0.0000E+00
      8.725  0.1914E-02  0.1825E-02  0.0000E+00
      8.806  0.1328E+00  0.1266E+00  0.0000E+00
      8.886  0.2007E-29  0.9589E-16  0.0000E+00
      8.966  0.3388E-03  0.2878E+00  0.0000E+00
      9.047  0.5834E-01  0.1846E+00  0.0000E+00
      9.127  0.1829E-17  0.8751E-01  0.0000E+00
      9.208  0.5273E-10  0.2994E-04  0.0000E+00
      9.288  0.1734E+00  0.5752E+00  0.0000E+00
      9.369  0.1382E-04  0.3926E-04  0.0000E+00
      9.449  0.5878E-01  0.1670E+00  0.0000E+00
      9.529  0.2288E-02  0.9076E-02  0.0000E+00
      9.610  0.4057E-01  0.1609E+00  0.0000E+00
      9.690  0.0000E+00  0.0000E+00  0.0000E+00
      9.771  0.1999E+00  0.2316E+00  0.0000E+00
      9.851  0.2948E+00  0.5575E+00  0.0000E+00
      9.932  0.6471E-01  0.1067E+00  0.0000E+00
     10.012  0.1927E+00  0.5553E+00  0.0000E+00
     10.092  0.2425E-13  0.2323E+00  0.0000E+00
     10.173  0.1079E-12  0.4490E-12  0.0000E+00
     10.253  0.6552E-01  0.2727E+00  0.0000E+00
     10.334  0.7519E-17  0.1436E-01  0.0000E+00
     10.414  0.1507E-15  0.2877E+00  0.0000E+00
     10.494  0.0000E+00  0.0000E+00  0.0000E+00
     10.575  0.0000E+00  0.0000E+00  0.0000E+00
     10.655  0.0000E+00  0.0000E+00  0.0000E+00
     10.736  0.0000E+00  0.0000E+00  0.0000E+00
     10.816  0.4785E-13  0.3909E+00  0.0000E+00
     10.897  0.0000E+00  0.0000E+00  0.0000E+00
     10.977  0.0000E+00  0.0000E+00  0.0000E+00
     11.057  0.4702E-07  0.3352E-07  0.0000E+00
     11.138  0.1552E+00  0.1107E+00  0.0000E+00
     11.218  0.0000E+00  0.0000E+00  0.0000E+00
     11.299  0.2141E-04  0.2990E-04  0.0000E+00
     11.379  0.9655E-01  0.1348E+00  0.0000E+00
     11.460  0.9717E-05  0.1278E-03  0.0000E+00
     11.540  0.8183E-02  0.1076E+00  0.0000E+00
     11.620  0.0000E+00  0.0000E+00  0.0000E+00
     11.701  0.0000E+00  0.0000E+00  0.0000E+00
     11.781  0.1832E-01  0.8337E-01  0.0000E+00
     11.862  0.3479E-01  0.1583E+00  0.0000E+00
     11.942  0.0000E+00  0.0000E+00  0.0000E+00
     12.022  0.0000E+00  0.0000E+00  0.0000E+00
     12.103  0.3238E-01  0.1634E+00  0.0000E+00
     12.183  0.6131E-04  0.5467E-01  0.0000E+00
     12.264  0.9351E-01  0.5042E+00  0.0000E+00
     12.344  0.0000E+00  0.0000E+00  0.0000E+00
     12.425  0.6149E-05  0.2507E-04  0.0000E+00
     12.505  0.7829E-01  0.3193E+00  0.0000E+00
     12.585  0.0000E+00  0.0000E+00  0.0000E+00
     12.666  0.0000E+00  0.0000E+00  0.0000E+00
     12.746  0.1107E-01  0.3432E-01  0.0000E+00
     12.827  0.6772E-01  0.5726E+00  0.0000E+00
     12.907  0.2544E-06  0.8398E-06  0.0000E+00
     12.988  0.1080E+00  0.5899E+00  0.0000E+00
     13.068  0.0000E+00  0.0000E+00  0.0000E+00
     13.148  0.2098E-01  0.9285E-01  0.0000E+00
     13.229  0.9357E-01  0.6645E+00  0.0000E+00
     13.309  0.2858E-02  0.2416E-01  0.0000E+00
     13.390  0.0000E+00  0.0000E+00  0.0000E+00
     13.470  0.1346E-01  0.1131E+00  0.0000E+00
     13.550  0.0000E+00  0.0000E+00  0.0000E+00
     13.631  0.0000E+00  0.0000E+00  0.0000E+00
     13.711  0.0000E+00  0.0000E+00  0.0000E+00
     13.792  0.0000E+00  0.0000E+00  0.0000E+00
     13.872  0.0000E+00  0.0000E+00  0.0000E+00
     13.953  0.0000E+00  0.0000E+00  0.0000E+00
     14.033  0.0000E+00  0.0000E+00  0.0000E+00
     14.113  0.0000E+00  0.0000E+00  0.0000E+00
     14.194  0.0000E+00  0.0000E+00  0.0000E+00
     14.274  0.0000E+00  0.0000E+00  0.0000E+00
     14.355  0.0000E+00  0.0000E+00  0.0000E+00
     14.435  0.0000E+00  0.0000E+00  0.0000E+00
     14.516  0.0000E+00  0.0000E+00  0.0000E+00
     14.596  0.0000E+00  0.0000E+00  0.0000E+00
     14.676  0.0000E+00  0.0000E+00  0.0000E+00
     14.757  0.0000E+00  0.0000E+00  0.0000E+00
     14.837  0.0000E+00  0.0000E+00  0.0000E+00
     14.918  0.0000E+00  0.0000E+00  0.0000E+00
     14.998  0.0000E+00  0.0000E+00  0.0000E+00
     15.078  0.0000E+00  0.0000E+00  0.0000E+00
     15.159  0.0000E+00  0.0000E+00  0.0000E+00
     15.239  0.0000E+00  0.0000E+00  0.0000E+00
     15.320  0.0000E+00  0.0000E+00  0.0000E+00
     15.400  0.0000E+00  0.0000E+00  0.0000E+00
     15.481  0.0000E+00  0.0000E+00  0.0000E+00
     15.561  0.0000E+00  0.0000E+00  0.0000E+00
     15.641  0.0000E+00  0.0000E+00  0.0000E+00
     15.722  0.2486E-16  0.2980E-05  0.0000E+00
     15.802  0.1405E-11  0.1684E+00  0.0000E+00
     15.883  0.0000E+00  0.0000E+00  0.0000E+00
     15.963  0.0000E+00  0.0000E+00  0.0000E+00
     16.043  0.0000E+00  0.0000E+00  0.0000E+00
     16.124  0.0000E+00  0.0000E+00  0.0000E+00
     16.204  0.0000E+00  0.0000E+00  0.0000E+00
     16.285  0.0000E+00  0.0000E+00  0.0000E+00
     16.365  0.0000E+00  0.0000E+00  0.0000E+00
     16.446  0.0000E+00  0.0000E+00  0.0000E+00
     16.526  0.0000E+00  0.0000E+00  0.0000E+00
     16.606  0.0000E+00  0.0000E+00  0.0000E+00
     16.687  0.0000E+00  0.0000E+00  0.0000E+00
     16.767  0.0000E+00  0.0000E+00  0.0000E+00
     16.848  0.0000E+00  0.0000E+00  0.0000E+00
     16.84769258     -7.27841924  301      5.85020661      1.00000000
     -7.278  0.0000E+00  0.0000E+00  0.0000E+00
     -7.198  0.0000E+00  0.0000E+00  0.0000E+00
     -7.118  0.0000E+00  0.0000E+00  0.0000E+00
     -7.037  0.0000E+00  0.0000E+00  0.0000E+00
     -6.957  0.0000E+00  0.0000E+00  0.0000E+00
     -6.876  0.0000E+00  0.0000E+00  0.0000E+00
     -6.796  0.0000E+00  0.0000E+00  0.0000E+00
     -6.715  0.0000E+00  0.0000E+00  0.0000E+00
     -6.635  0.0000E+00  0.0000E+00  0.0000E+00
     -6.555  0.0000E+00  0.0000E+00  0.0000E+00
     -6.474  0.0000E+00  0.0000E+00  0.0000E+00
     -6.394  0.0000E+00  0.0000E+00  0.0000E+00
     -6.313  0.0000E+00  0.0000E+00  0.0000E+00
     -6.233  0.5634E-14  0.6573E-31  0.0000E+00
     -6.153  0.2465E-01  0.2875E-18  0.0000E+00
     -6.072  0.0000E+00  0.0000E+00  0.0000E+00
     -5.992  0.0000E+00  0.0000E+00  0.0000E+00
     -5.911  0.0000E+00  0.0000E+00  0.0000E+00
     -5.831  0.1373E-01  0.2503E-03  0.0000E+00
     -5.750  0.1819E+00  0.3315E-02  0.0000E+00
     -5.670  0.1462E+00  0.3689E-02  0.0000E+00
     -5.590  0.0000E+00  0.0000E+00  0.0000E+00
     -5.509  0.0000E+00  0.0000E+00  0.0000E+00
     -5.429  0.0000E+00  0.0000E+00  0.0000E+00
     -5.348  0.0000E+00  0.0000E+00  0.0000E+00
     -5.268  0.4630E-07  0.2167E-08  0.0000E+00
     -5.187  0.2907E+00  0.1361E-01  0.0000E+00
     -5.107  0.0000E+00  0.0000E+00  0.0000E+00
     -5.027  0.0000E+00  0.0000E+00  0.0000E+00
     -4.946  0.0000E+00  0.0000E+00  0.0000E+00
     -4.866  0.5706E+00  0.3679E-01  0.0000E+00
     -4.785  0.1940E+00  0.1165E-01  0.0000E+00
     -4.705  0.0000E+00  0.0000E+00  0.0000E+00
     -4.625  0.0000E+00  0.0000E+00  0.0000E+00
     -4.544  0.0000E+00  0.0000E+00  0.0000E+00
     -4.464  0.0000E+00  0.0000E+00  0.0000E+00
     -4.383  0.0000E+00  0.0000E+00  0.0000E+00
     -4.303  0.2019E-04  0.2059E-05  0.0000E+00
     -4.222  0.1415E+00  0.1443E-01  0.0000E+00
     -4.142  0.0000E+00  0.0000E+00  0.0000E+00
     -4.062  0.5552E+00  0.4812E-01  0.0000E+00
     -3.981  0.0000E+00  0.0000E+00  0.0000E+00
     -3.901  0.4262E-01  0.4650E-02  0.0000E+00
     -3.820  0.6365E+00  0.6434E-01  0.0000E+00
     -3.740  0.5563E-14  0.4911E-15  0.0000E+00
     -3.660  0.6036E+00  0.5329E-01  0.0000E+00
     -3.579  0.0000E+00  0.0000E+00  0.0000E+00
     -3.499  0.0000E+00  0.0000E+00  0.0000E+00
     -3.418  0.0000E+00  0.0000E+00  0.0000E+00
     -3.338  0.0000E+00  0.0000E+00  0.0000E+00
     -3.257  0.0000E+00  0.0000E+00  0.0000E+00
     -3.177  0.0000E+00  0.0000E+00  0.0000E+00
     -3.097  0.5572E+00  0.8537E-01  0.0000E+00
     -3.016  0.0000E+00  0.0000E+00  0.0000E+00
     -2.936  0.1380E-03  0.1786E-04  0.0000E+00
     -2.855  0.8989E+00  0.1142E+00  0.0000E+00
     -2.775  0.0000E+00  0.0000E+00  0.0000E+00
     -2.694  0.0000E+00  0.0000E+00  0.0000E+00
     -2.614  0.0000E+00  0.0000E+00  0.0000E+00
     -2.534  0.0000E+00  0.0000E+00  0.0000E+00
     -2.453  0.0000E+00  0.0000E+00  0.0000E+00
     -2.373  0.0000E+00  0.0000E+00  0.0000E+00
     -2.292  0.0000E+00  0.0000E+00  0.0000E+00
     -2.212  0.0000E+00  0.0000E+00  0.0000E+00
     -2.132  0.0000E+00  0.0000E+00  0.0000E+00
     -2.051  0.4322E-02  0.1012E-02  0.0000E+00
     -1.971  0.1302E+00  0.3047E-01  0.0000E+00
     -1.890  0.5614E+00  0.1196E+00  0.0000E+00
     -1.810  0.0000E+00  0.0000E+00  0.0000E+00
     -1.729  0.0000E+00  0.0000E+00  0.0000E+00
     -1.649  0.0000E+00  0.0000E+00  0.0000E+00
     -1.569  0.0000E+00  0.0000E+00  0.0000E+00
     -1.488  0.0000E+00  0.0000E+00  0.0000E+00
     -1.408  0.0000E+00  0.0000E+00  0.0000E+00
     -1.327  0.0000E+00  0.0000E+00  0.0000E+00
     -1.247  0.2457E-06  0.2361E-06  0.0000E+00
     -1.166  0.4526E-01  0.4349E-01  0.0000E+00
     -1.086  0.7550E-02  0.3038E-02  0.0000E+00
     -1.006  0.4704E+00  0.1885E+00  0.0000E+00
     -0.925  0.2276E+00  0.8079E-01  0.0000E+00
     -0.845  0.1660E+00  0.1194E+00  0.0000E+00
     -0.764  0.5166E+00  0.1680E+00  0.0000E+00
     -0.684  0.0000E+00  0.0000E+00  0.0000E+00
     -0.604  0.0000E+00  0.0000E+00  0.0000E+00
     -0.523  0.0000E+00  0.0000E+00  0.0000E+00
     -0.443  0.0000E+00  0.0000E+00  0.0000E+00
     -0.362  0.0000E+00  0.0000E+00  0.0000E+00
     -0.282  0.8389E-08  0.5991E-08  0.0000E+00
     -0.201  0.3500E+00  0.2499E+00  0.0000E+00
     -0.121  0.0000E+00  0.0000E+00  0.0000E+00