    2    2    1    1
  0.2002393E+02  0.3840297E-09  0.3840297E-09  0.3840297E-09  0.5000000E-15
  1.000000000000000E-004
  CAR 
 Name                                    
      8     16      8
 
  0.0000000E+00  0.0000000E+00  0.0000000E+00  0.4629630E-02
    1       -6.181778   1.000000
    2        5.776699   1.000000
    3        5.776699   1.000000
    4        5.776699   1.000000
    5        8.296702   0.000000
    6        8.296702   0.000000
    7        8.296702   0.000000
    8        8.983475   0.000000
 
  0.1666667E+00  0.0000000E+00  0.0000000E+00  0.3703704E-01
    1       -5.820427   1.000000
    2        3.379799   1.000000
    3        5.325490   1.000000
    4        5.325490   1.000000
    5        8.034507   0.000000
    6        8.943168   0.000000
    7        8.943168   0.000000
    8       11.092706   0.000000
 
  0.3333333E+00  0.0000000E+00  0.0000000E+00  0.3703704E-01
    1       -4.803313   1.000000
    2        0.424729   1.000000
    3        4.777663   1.000000
    4        4.777663   1.000000
    5        7.430392   0.000000
    6        9.233455   0.000000
    7        9.233455   0.000000
    8       13.449441   0.000000
 
  0.5000000E+00  0.0000000E+00  0.0000000E+00  0.1851852E-01
    1       -3.842894   1.000000
    2       -1.215783   1.000000
    3        4.580882   1.000000
    4        4.580882   1.000000
    5        7.202296   0.000000
    6        9.063769   0.000000
    7        9.063769   0.000000
    8       13.283828   0.000000
 
  0.1666667E+00  0.1666667E+00  0.0000000E+00  0.2777778E-01
    1       -5.697534   1.000000
    2        3.724361   1.000000
    3        4.579717   1.000000
    4        4.579717   1.000000
    5        7.403584   0.000000
    6        9.965692   0.000000
    7       10.073990   0.000000
    8       10.073990   0.000000
 
  0.3333333E+00  0.1666667E+00  0.0000000E+00  0.1111111E+00
    1       -4.881612   1.000000
    2        1.328905   1.000000
    3        3.767859   1.000000
    4        4.027914   1.000000
    5        7.657179   0.000000
    6        9.750744   0.000000
    7       10.222049   0.000000
    8       10.799012   0.000000
 
  0.5000000E+00  0.1666667E+00  0.0000000E+00  0.1111111E+00
    1       -3.685749   1.000000
    2       -0.844673   1.000000
    3        2.980177   1.000000
    4        3.999846   1.000000
    5        7.725253   0.000000
    6        9.804640   0.000000
    7       10.345446   0.000000
    8       12.101717   0.000000
 
 -0.3333333E+00  0.1666667E+00  0.0000000E+00  0.1111111E+00
    1       -4.072767   1.000000
    2       -0.243247   1.000000
    3        2.707660   1.000000
    4        4.480619   1.000000
    5        8.139623   0.000000
    6        9.807178   0.000000
    7        9.953576   0.000000
    8       12.939460   0.000000
 
 -0.1666667E+00  0.1666667E+00  0.0000000E+00  0.5555556E-01
    1       -5.231762   1.000000
    2        2.048438   1.000000
    3        3.343089   1.000000
    4        5.214074   1.000000
    5        8.740731   0.000000
    6        9.287251   0.000000
    7        9.540843   0.000000
    8       11.323526   0.000000
 
  0.3333333E+00  0.3333333E+00  0.0000000E+00  0.2777778E-01
    1       -4.277210   1.000000
    2        0.762230   1.000000
    3        3.356048   1.000000
    4        3.356048   1.000000
    5        6.401844   0.000000
    6        7.659214   0.000000
    7       12.965734   0.000000
    8       12.965734   0.000000
 
  0.5000000E+00  0.3333333E+00  0.0000000E+00  0.1111111E+00
    1       -3.112006   1.000000
    2       -0.788088   1.000000
    3        2.119522   1.000000
    4        3.220360   1.000000
    5        6.733682   0.000000
    6        8.400004   0.000000
    7       13.154743   0.000000
    8       13.159630   0.000000
 
 -0.3333333E+00  0.3333333E+00  0.0000000E+00  0.5555556E-01
    1       -2.912289   1.000000
    2       -0.995292   1.000000
    3        1.328785   1.000000
    4        3.663748   1.000000
    5        7.241219   0.000000
    6       11.481018   0.000000
    7       12.188007   0.000000
    8       12.752899   0.000000
 
  0.5000000E+00  0.5000000E+00  0.0000000E+00  0.1388889E-01
    1       -2.038011   1.000000
    2       -2.038011   1.000000
    3        2.922041   1.000000
    4        2.922041   1.000000
    5        6.375222   0.000000
    6        6.375222   0.000000
    7       15.751051   0.000000
    8       15.751051   0.000000
 
  0.5000000E+00  0.3333333E+00  0.1666667E+00  0.1111111E+00
    1       -3.890542   1.000000
    2        0.130276   1.000000
    3        2.180697   1.000000
    4        3.469295   1.000000
    5        8.548698   0.000000
    6        9.393327   0.000000
    7        9.933894   0.000000
    8       12.765269   0.000000
 
 -0.3333333E+00  0.3333333E+00  0.1666667E+00  0.1111111E+00
    1       -2.901871   1.000000
    2       -1.070958   1.000000
    3        1.737907   1.000000
    4        2.998091   1.000000
    5        9.041702   0.000000
    6        9.251515   0.000000
    7       11.784030   0.000000
    8       12.206035   0.000000
 
 -0.3333333E+00  0.5000000E+00  0.1666667E+00  0.5555556E-01
    1       -1.915406   1.000000
    2       -1.915406   1.000000
    3        2.106548   1.000000
    4        2.106548   1.000000
    5        8.433554   0.000000
    6        8.433554   0.000000
    7       12.451298   0.000000
    8       12.451298   0.000000
