PROCAR new format
# of k-points:   16         # of bands:   8         # of ions:   2

 k-point    1 :    0.00000000 0.00000000 0.00000000     weight = 0.00462963

band   1 # energy   -6.18177779 # occ.  2.00000000
 
ion      s      p      d    tot
  1  0.214  0.000  0.000  0.214
  2  0.214  0.000  0.000  0.214
tot  0.428  0.000  0.000  0.428
 
band   2 # energy    5.77669898 # occ.  2.00000000
 
ion      s      p      d    tot
  1  0.000  0.219  0.000  0.219
  2  0.000  0.219  0.000  0.219
tot  0.000  0.437  0.000  0.437
 
band   3 # energy    5.77669899 # occ.  2.00000000
 
ion      s      p      d    tot
  1  0.000  0.219  0.000  0.219
  2  0.000  0.219  0.000  0.219
tot  0.000  0.437  0.000  0.437
 
band   4 # energy    5.77669899 # occ.  2.00000000
 
ion      s      p      d    tot
  1  0.000  0.219  0.000  0.219
  2  0.000  0.219  0.000  0.219
tot  0.000  0.437  0.000  0.437
 
band   5 # energy    8.29670150 # occ.  0.00000000
 
ion      s      p      d    tot
  1  0.000  0.154  0.000  0.154
  2  0.000  0.154  0.000  0.154
tot  0.000  0.307  0.000  0.307
 
band   6 # energy    8.29670152 # occ.  0.00000000
 
ion      s      p      d    tot
  1  0.000  0.154  0.000  0.154
  2  0.000  0.154  0.000  0.154
tot  0.000  0.307  0.000  0.307
 
band   7 # energy    8.29670152 # occ.  0.00000000
 
ion      s      p      d    tot
  1  0.000  0.154  0.000  0.154
  2  0.000  0.154  0.000  0.154
tot  0.000  0.307  0.000  0.307
 
band   8 # energy    8.98347519 # occ.  0.00000000
 
ion      s      p      d    tot
  1  0.360  0.000  0.000  0.360
  2  0.360  0.000  0.000  0.360
tot  0.720  0.000  0.000  0.720
 

 k-point    2 :    0.16666667 0.00000000 0.00000000     weight = 0.03703704

band   1 # energy   -5.82042705 # occ.  2.00000000
 
ion      s      p      d    tot
  1  0.212  0.004  0.000  0.216
  2  0.212  0.004  0.000  0.216
tot  0.425  0.008  0.000  0.433
 
band   2 # energy    3.37979913 # occ.  2.00000000
 
ion      s      p      d    tot
  1  0.078  0.143  0.000  0.221
  2  0.078  0.143  0.000  0.221
tot  0.156  0.287  0.000  0.442
 
band   3 # energy    5.32548965 # occ.  2.00000000
 
ion      s      p      d    tot
  1  0.000  0.215  0.000  0.215
  2  0.000  0.215  0.000  0.215
tot  0.000  0.430  0.000  0.430
 
band   4 # energy    5.32548966 # occ.  2.00000000
 
ion      s      p      d    tot
  1  0.000  0.215  0.000  0.215
  2  0.000  0.215  0.000  0.215
tot  0.000  0.430  0.000  0.430
 
band   5 # energy    8.03450731 # occ.  0.00000000
 
ion      s      p      d    tot
  1  0.130  0.073  0.000  0.203
  2  0.130  0.073  0.000  0.203
tot  0.260  0.146  0.000  0.405
 
band   6 # energy    8.94316792 # occ.  0.00000000
 
ion      s      p      d    tot
  1  0.000  0.156  0.000  0.156
  2  0.000  0.156  0.000  0.156
tot  0.000  0.313  0.000  0.313
 
band   7 # energy    8.94316794 # occ.  0.00000000
 
ion      s      p      d    tot
  1  0.000  0.156  0.000  0.156
  2  0.000  0.156  0.000  0.156
tot  0.000  0.313  0.000  0.313
 
band   8 # energy   11.09270577 # occ.  0.00000000
 
ion      s      p      d    tot
  1  0.169  0.120  0.000  0.289
  2  0.169  0.120  0.000  0.289
tot  0.337  0.240  0.000  0.577
 

 k-point    3 :    0.33333333 0.00000000 0.00000000     weight = 0.03703704

band   1 # energy   -4.80331263 # occ.  2.00000000
 
ion      s      p      d    tot
  1  0.212  0.013  0.000  0.225
  2  0.212  0.013  0.000  0.225
tot  0.424  0.025  0.000  0.449
 
band   2 # energy    0.42472879 # occ.  2.00000000
 
ion      s      p      d    tot
  1  0.106  0.104  0.000  0.210
  2  0.106  0.104  0.000  0.210
tot  0.212  0.208  0.000  0.420
 
band   3 # energy    4.77766295 # occ.  2.00000000
 
ion      s      p      d    tot
  1  0.000  0.218  0.000  0.218
  2  0.000  0.218  0.000  0.218
tot  0.000  0.436  0.000  0.436
 
band   4 # energy    4.77766297 # occ.  2.00000000
 
ion      s      p      d    tot
  1  0.000  0.218  0.000  0.218
  2  0.000  0.218  0.000  0.218
tot  0.000  0.436  0.000  0.436
 
band   5 # energy    7.43039236 # occ.  0.00000000
 
ion      s      p      d    tot
  1  0.175  0.031  0.000  0.207
  2  0.175  0.031  0.000  0.207
tot  0.351  0.063  0.000  0.413
 
band   6 # energy    9.23345520 # occ.  0.00000000
 
ion      s      p      d    tot
  1  0.000  0.117  0.000  0.117
  2  0.000  0.117  0.000  0.117
tot  0.000  0.233  0.000  0.233
 
band   7 # energy    9.23345521 # occ.  0.00000000
 
ion      s      p      d    tot
  1  0.000  0.117  0.000  0.117
  2  0.000  0.117  0.000  0.117
tot  0.000  0.233  0.000  0.233
 
band   8 # energy   13.44944059 # occ.  0.00000000
 
ion      s      p      d    tot
  1  0.015  0.123  0.000  0.138
  2  0.015  0.123  0.000  0.138
tot  0.029  0.246  0.000  0.275
 

 k-point    4 :    0.50000000 0.00000000 0.00000000     weight = 0.01851852

band   1 # energy   -3.84289401 # occ.  2.00000000
 
ion      s      p      d    tot
  1  0.227  0.014  0.000  0.240
  2  0.227  0.014  0.000  0.240
tot  0.453  0.027  0.000  0.481
 
band   2 # energy   -1.21578311 # occ.  2.00000000
 
ion      s      p      d    tot
  1  0.098  0.094  0.000  0.193
  2  0.098  0.094  0.000  0.193
tot  0.197  0.189  0.000  0.385
 
band   3 # energy    4.58088156 # occ.  2.00000000
 
ion      s      p      d    tot
  1  0.000  0.221  0.000  0.221
  2  0.000  0.221  0.000  0.221
tot  0.000  0.441  0.000  0.441
 
band   4 # energy    4.58088157 # occ.  2.00000000
 
ion      s      p      d    tot
  1  0.000  0.221  0.000  0.221
  2  0.000  0.221  0.000  0.221
tot  0.000  0.441  0.000  0.441
 
band   5 # energy    7.20229570 # occ.  0.00000000
 
ion      s      p      d    tot
  1  0.189  0.019  0.000  0.208
  2  0.189  0.019  0.000  0.208
tot  0.377  0.038  0.000  0.415
 
band   6 # energy    9.06376896 # occ.  0.00000000
 
ion      s      p      d    tot
  1  0.000  0.096  0.000  0.096
  2  0.000  0.096  0.000  0.096
tot  0.000  0.192  0.000  0.192
 
band   7 # energy    9.06376897 # occ.  0.00000000
 
ion      s      p      d    tot
  1  0.000  0.096  0.000  0.096
  2  0.000  0.096  0.000  0.096
tot  0.000  0.192  0.000  0.192
 
band   8 # energy   13.28382840 # occ.  0.00000000
 
ion      s      p      d    tot
  1  0.006  0.052  0.000  0.059
  2  0.006  0.052  0.000  0.059
tot  0.012  0.105  0.000  0.117
 

 k-point    5 :    0.16666667 0.16666667 0.00000000     weight = 0.02777778

band   1 # energy   -5.69753425 # occ.  2.00000000
 
ion      s      p      d    tot
  1  0.212  0.005  0.000  0.217
  2  0.212  0.005  0.000  0.217
tot  0.423  0.011  0.000  0.434
 
band   2 # energy    3.72436094 # occ.  2.00000000
 
ion      s      p      d    tot
  1  0.125  0.128  0.000  0.253
  2  0.125  0.128  0.000  0.253
tot  0.250  0.256  0.000  0.507
 
band   3 # energy    4.57971652 # occ.  2.00000000
 
ion      s      p      d    tot
  1  0.000  0.203  0.000  0.203
  2  0.000  0.203  0.000  0.203
tot  0.000  0.406  0.000  0.406
 
band   4 # energy    4.57971653 # occ.  2.00000000
 
ion      s      p      d    tot
  1  0.000  0.203  0.000  0.203
  2  0.000  0.203  0.000  0.203
tot  0.000  0.406  0.000  0.406
 
band   5 # energy    7.40358442 # occ.  0.00000000
 
ion      s      p      d    tot
  1  0.031  0.103  0.000  0.133
  2  0.031  0.103  0.000  0.133
tot  0.061  0.206  0.000  0.267
 
band   6 # energy    9.96569221 # occ.  0.00000000
 
ion      s      p      d    tot
  1  0.119  0.068  0.000  0.188
  2  0.119  0.068  0.000  0.188
tot  0.238  0.137  0.000  0.375
 
band   7 # energy   10.07398959 # occ.  0.00000000
 
ion      s      p      d    tot
  1  0.000  0.169  0.000  0.169
  2  0.000  0.169  0.000  0.169
tot  0.000  0.338  0.000  0.338
 
band   8 # energy   10.07398960 # occ.  0.00000000
 
ion      s      p      d    tot
  1  0.000  0.169  0.000  0.169
  2  0.000  0.169  0.000  0.169
tot  0.000  0.338  0.000  0.338
 

 k-point    6 :    0.33333333 0.16666667 0.00000000     weight = 0.11111111

band   1 # energy   -4.88161185 # occ.  2.00000000
 
ion      s      p      d    tot
  1  0.209  0.013  0.000  0.223
  2  0.209  0.013  0.000  0.223
tot  0.418  0.027  0.000  0.445
 
band   2 # energy    1.32890460 # occ.  2.00000000
 
ion      s      p      d    tot
  1  0.128  0.104  0.000  0.233
  2  0.128  0.104  0.000  0.233
tot  0.257  0.208  0.000  0.465
 
band   3 # energy    3.76785928 # occ.  2.00000000
 
ion      s      p      d    tot
  1  0.034  0.170  0.000  0.204
  2  0.034  0.170  0.000  0.204
tot  0.069  0.340  0.000  0.409
 
band   4 # energy    4.02791421 # occ.  2.00000000
 
ion      s      p      d    tot
  1  0.000  0.203  0.000  0.203
  2  0.000  0.203  0.000  0.203
tot  0.000  0.407  0.000  0.407
 
band   5 # energy    7.65717874 # occ.  0.00000000
 
ion      s      p      d    tot
  1  0.041  0.089  0.000  0.130
  2  0.041  0.089  0.000  0.130
tot  0.082  0.178  0.000  0.259
 
band   6 # energy    9.75074435 # occ.  0.00000000
 
ion      s      p      d    tot
  1  0.073  0.084  0.000  0.157
  2  0.073  0.084  0.000  0.157
tot  0.145  0.168  0.000  0.313
 
band   7 # energy   10.22204899 # occ.  0.00000000
 
ion      s      p      d    tot
  1  0.024  0.099  0.000  0.122
  2  0.024  0.099  0.000  0.122
tot  0.047  0.197  0.000  0.245
 
band   8 # energy   10.79901187 # occ.  0.00000000
 
ion      s      p      d    tot
  1  0.000  0.143  0.000  0.143
  2  0.000  0.143  0.000  0.143
tot  0.000  0.285  0.000  0.285
 

 k-point    7 :    0.50000000 0.16666667 0.00000000     weight = 0.11111111

band   1 # energy   -3.68574911 # occ.  2.00000000
 
ion      s      p      d    tot
  1  0.218  0.019  0.000  0.238
  2  0.218  0.019  0.000  0.238
tot  0.437  0.039  0.000  0.476
 
band   2 # energy   -0.84467343 # occ.  2.00000000
 
ion      s      p      d    tot
  1  0.122  0.088  0.000  0.209
  2  0.122  0.088  0.000  0.209
tot  0.243  0.175  0.000  0.419
 
band   3 # energy    2.98017698 # occ.  2.00000000
 
ion      s      p      d    tot
  1  0.043  0.156  0.000  0.200
  2  0.043  0.156  0.000  0.200
tot  0.087  0.313  0.000  0.399
 
band   4 # energy    3.99984603 # occ.  2.00000000
 
ion      s      p      d    tot
  1  0.000  0.208  0.000  0.208
  2  0.000  0.208  0.000  0.208
tot  0.000  0.417  0.000  0.417
 
band   5 # energy    7.72525250 # occ.  0.00000000
 
ion      s      p      d    tot
  1  0.064  0.060  0.000  0.124
  2  0.064  0.060  0.000  0.124
tot  0.128  0.120  0.000  0.248
 
band   6 # energy    9.80463998 # occ.  0.00000000
 
ion      s      p      d    tot
  1  0.061  0.101  0.000  0.163
  2  0.061  0.101  0.000  0.163
tot  0.122  0.203  0.000  0.325
 
band   7 # energy   10.34544631 # occ.  0.00000000
 
ion      s      p      d    tot
  1  0.000  0.109  0.000  0.109
  2  0.000  0.109  0.000  0.109
tot  0.000  0.219  0.000  0.219
 
band   8 # energy   12.10171723 # occ.  0.00000000
 
ion      s      p      d    tot
  1  0.021  0.104  0.000  0.125
  2  0.021  0.104  0.000  0.125
tot  0.041  0.209  0.000  0.250
 

 k-point    8 :   -0.33333333 0.16666667 0.00000000     weight = 0.11111111

band   1 # energy   -4.07276666 # occ.  2.00000000
 
ion      s      p      d    tot
  1  0.213  0.018  0.000  0.232
  2  0.213  0.018  0.000  0.232
tot  0.426  0.037  0.000  0.463
 
band   2 # energy   -0.24324744 # occ.  2.00000000
 
ion      s      p      d    tot
  1  0.127  0.090  0.000  0.217
  2  0.127  0.090  0.000  0.217
tot  0.253  0.181  0.000  0.434
 
band   3 # energy    2.70766042 # occ.  2.00000000
 
ion      s      p      d    tot
  1  0.036  0.156  0.000  0.191
  2  0.036  0.156  0.000  0.191
tot  0.071  0.312  0.000  0.383
 
band   4 # energy    4.48061891 # occ.  2.00000000
 
ion      s      p      d    tot
  1  0.000  0.215  0.000  0.215
  2  0.000  0.215  0.000  0.215
tot  0.000  0.431  0.000  0.431
 
band   5 # energy    8.13962347 # occ.  0.00000000
 
ion      s      p      d    tot
  1  0.082  0.064  0.000  0.147
  2  0.082  0.064  0.000  0.147
tot  0.165  0.129  0.000  0.293
 
band   6 # energy    9.80717832 # occ.  0.00000000
 
ion      s      p      d    tot
  1  0.045  0.100  0.000  0.146
  2  0.045  0.100  0.000  0.146
tot  0.091  0.201  0.000  0.292
 
band   7 # energy    9.95357633 # occ.  0.00000000
 
ion      s      p      d    tot
  1  0.000  0.118  0.000  0.118
  2  0.000  0.118  0.000  0.118
tot  0.000  0.237  0.000  0.237
 
band   8 # energy   12.93946017 # occ.  0.00000000
 
ion      s      p      d    tot
  1  0.039  0.129  0.000  0.168
  2  0.039  0.129  0.000  0.168
tot  0.078  0.258  0.000  0.336
 

 k-point    9 :   -0.16666667 0.16666667 0.00000000     weight = 0.05555556

band   1 # energy   -5.23176158 # occ.  2.00000000
 
ion      s      p      d    tot
  1  0.210  0.010  0.000  0.220
  2  0.210  0.010  0.000  0.220
tot  0.421  0.020  0.000  0.441
 
band   2 # energy    2.04843755 # occ.  2.00000000
 
ion      s      p      d    tot
  1  0.125  0.113  0.000  0.238
  2  0.125  0.113  0.000  0.238
tot  0.249  0.226  0.000  0.475
 
band   3 # energy    3.34308866 # occ.  2.00000000
 
ion      s      p      d    tot
  1  0.012  0.170  0.000  0.182
  2  0.012  0.170  0.000  0.182
tot  0.024  0.340  0.000  0.365
 
band   4 # energy    5.21407382 # occ.  2.00000000
 
ion      s      p      d    tot
  1  0.000  0.223  0.000  0.223
  2  0.000  0.223  0.000  0.223
tot  0.000  0.445  0.000  0.445
 
band   5 # energy    8.74073108 # occ.  0.00000000
 
ion      s      p      d    tot
  1  0.098  0.093  0.000  0.190
  2  0.098  0.093  0.000  0.190
tot  0.195  0.186  0.000  0.381
 
band   6 # energy    9.28725054 # occ.  0.00000000
 
ion      s      p      d    tot
  1  0.000  0.152  0.000  0.152
  2  0.000  0.152  0.000  0.152
tot  0.000  0.304  0.000  0.304
 
band   7 # energy    9.54084334 # occ.  0.00000000
 
ion      s      p      d    tot
  1  0.031  0.123  0.000  0.154
  2  0.031  0.123  0.000  0.154
tot  0.062  0.246  0.000  0.308
 
band   8 # energy   11.32352589 # occ.  0.00000000
 
ion      s      p      d    tot
  1  0.070  0.098  0.000  0.167
  2  0.070  0.098  0.000  0.167
tot  0.140  0.195  0.000  0.335
 

 k-point   10 :    0.33333333 0.33333333 0.00000000     weight = 0.02777778

band   1 # energy   -4.27720962 # occ.  2.00000000
 
ion      s      p      d    tot
  1  0.205  0.021  0.000  0.226
  2  0.205  0.021  0.000  0.226
tot  0.410  0.042  0.000  0.452
 
band   2 # energy    0.76222953 # occ.  2.00000000
 
ion      s      p      d    tot
  1  0.177  0.079  0.000  0.255
  2  0.177  0.079  0.000  0.255
tot  0.353  0.158  0.000  0.511
 
band   3 # energy    3.35604770 # occ.  2.00000000
 
ion      s      p      d    tot
  1  0.000  0.199  0.000  0.199
  2  0.000  0.199  0.000  0.199
tot  0.000  0.399  0.000  0.399
 
band   4 # energy    3.35604771 # occ.  2.00000000
 
ion      s      p      d    tot
  1  0.000  0.199  0.000  0.199
  2  0.000  0.199  0.000  0.199
tot  0.000  0.399  0.000  0.399
 
band   5 # energy    6.40184360 # occ.  0.00000000
 
ion      s      p      d    tot
  1  0.052  0.057  0.000  0.109
  2  0.052  0.057  0.000  0.109
tot  0.104  0.115  0.000  0.218
 
band   6 # energy    7.65921376 # occ.  0.00000000
 
ion      s      p      d    tot
  1  0.044  0.031  0.000  0.075
  2  0.044  0.031  0.000  0.075
tot  0.088  0.063  0.000  0.150
 
band   7 # energy   12.96573379 # occ.  0.00000000
 
ion      s      p      d    tot
  1  0.000  0.169  0.000  0.169
  2  0.000  0.169  0.000  0.169
tot  0.000  0.338  0.000  0.338
 
band   8 # energy   12.96573381 # occ.  0.00000000
 
ion      s      p      d    tot
  1  0.000  0.169  0.000  0.169
  2  0.000  0.169  0.000  0.169
tot  0.000  0.338  0.000  0.338
 

 k-point   11 :    0.50000000 0.33333333 0.00000000     weight = 0.11111111

band   1 # energy   -3.11200558 # occ.  2.00000000
 
ion      s      p      d    tot
  1  0.205  0.031  0.000  0.236
  2  0.205  0.031  0.000  0.236
tot  0.409  0.063  0.000  0.472
 
band   2 # energy   -0.78808770 # occ.  2.00000000
 
ion      s      p      d    tot
  1  0.187  0.061  0.000  0.248
  2  0.187  0.061  0.000  0.248
tot  0.374  0.122  0.000  0.496
 
band   3 # energy    2.11952174 # occ.  2.00000000
 
ion      s      p      d    tot
  1  0.006  0.164  0.000  0.170
  2  0.006  0.164  0.000  0.170
tot  0.012  0.328  0.000  0.340
 
band   4 # energy    3.22035966 # occ.  2.00000000
 
ion      s      p      d    tot
  1  0.000  0.201  0.000  0.201
  2  0.000  0.201  0.000  0.201
tot  0.000  0.401  0.000  0.401
 
band   5 # energy    6.73368205 # occ.  0.00000000
 
ion      s      p      d    tot
  1  0.051  0.044  0.000  0.095
  2  0.051  0.044  0.000  0.095
tot  0.102  0.087  0.000  0.189
 
band   6 # energy    8.40000403 # occ.  0.00000000
 
ion      s      p      d    tot
  1  0.035  0.073  0.000  0.108
  2  0.035  0.073  0.000  0.108
tot  0.069  0.146  0.000  0.215
 
band   7 # energy   13.15474294 # occ.  0.00000000
 
ion      s      p      d    tot
  1  0.041  0.144  0.000  0.186
  2  0.041  0.144  0.000  0.186
tot  0.083  0.288  0.000  0.371
 
band   8 # energy   13.15963025 # occ.  0.00000000
 
ion      s      p      d    tot
  1  0.000  0.130  0.000  0.130
  2  0.000  0.130  0.000  0.130
tot  0.000  0.260  0.000  0.260
 

 k-point   12 :   -0.33333333 0.33333333 0.00000000     weight = 0.05555556

band   1 # energy   -2.91228921 # occ.  2.00000000
 
ion      s      p      d    tot
  1  0.216  0.028  0.000  0.244
  2  0.216  0.028  0.000  0.244
tot  0.432  0.056  0.000  0.488
 
band   2 # energy   -0.99529240 # occ.  2.00000000
 
ion      s      p      d    tot
  1  0.177  0.063  0.000  0.240
  2  0.177  0.063  0.000  0.240
tot  0.355  0.126  0.000  0.481
 
band   3 # energy    1.32878450 # occ.  2.00000000
 
ion      s      p      d    tot
  1  0.004  0.152  0.000  0.156
  2  0.004  0.152  0.000  0.156
tot  0.008  0.304  0.000  0.311
 
band   4 # energy    3.66374845 # occ.  2.00000000
 
ion      s      p      d    tot
  1  0.000  0.205  0.000  0.205
  2  0.000  0.205  0.000  0.205
tot  0.000  0.410  0.000  0.410
 
band   5 # energy    7.24121889 # occ.  0.00000000
 
ion      s      p      d    tot
  1  0.055  0.046  0.000  0.101
  2  0.055  0.046  0.000  0.101
tot  0.110  0.092  0.000  0.201
 
band   6 # energy   11.48101799 # occ.  0.00000000
 
ion      s      p      d    tot
  1  0.006  0.078  0.000  0.084
  2  0.006  0.078  0.000  0.084
tot  0.012  0.156  0.000  0.168
 
band   7 # energy   12.18800737 # occ.  0.00000000
 
ion      s      p      d    tot
  1  0.000  0.156  0.000  0.156
  2  0.000  0.156  0.000  0.156
tot  0.000  0.311  0.000  0.311
 
band   8 # energy   12.75289895 # occ.  0.00000000
 
ion      s      p      d    tot
  1  0.046  0.137  0.000  0.183
  2  0.046  0.137  0.000  0.183
tot  0.092  0.274  0.000  0.366
 

 k-point   13 :    0.50000000 0.50000000 0.00000000     weight = 0.01388889

band   1 # energy   -2.03801099 # occ.  2.00000000
 
ion      s      p      d    tot
  1  0.195  0.046  0.000  0.240
  2  0.195  0.046  0.000  0.240
tot  0.389  0.091  0.000  0.481
 
band   2 # energy   -2.03801098 # occ.  2.00000000
 
ion      s      p      d    tot
  1  0.195  0.046  0.000  0.240
  2  0.195  0.046  0.000  0.240
tot  0.389  0.091  0.000  0.481
 
band   3 # energy    2.92204090 # occ.  2.00000000
 
ion      s      p      d    tot
  1  0.000  0.199  0.000  0.199
  2  0.000  0.199  0.000  0.199
tot  0.000  0.398  0.000  0.398
 
band   4 # energy    2.92204092 # occ.  2.00000000
 
ion      s      p      d    tot
  1  0.000  0.199  0.000  0.199
  2  0.000  0.199  0.000  0.199
tot  0.000  0.398  0.000  0.398
 
band   5 # energy    6.37522244 # occ.  0.00000000
 
ion      s      p      d    tot
  1  0.053  0.035  0.000  0.087
  2  0.053  0.035  0.000  0.087
tot  0.105  0.070  0.000  0.175
 
band   6 # energy    6.37522244 # occ.  0.00000000
 
ion      s      p      d    tot
  1  0.053  0.035  0.000  0.087
  2  0.053  0.035  0.000  0.087
tot  0.105  0.070  0.000  0.175
 
band   7 # energy   15.75105091 # occ.  0.00000000
 
ion      s      p      d    tot
  1  0.000  0.244  0.000  0.244
  2  0.000  0.244  0.000  0.244
tot  0.000  0.488  0.000  0.488
 
band   8 # energy   15.75105114 # occ.  0.00000000
 
ion      s      p      d    tot
  1  0.000  0.244  0.000  0.244
  2  0.000  0.244  0.000  0.244
tot  0.000  0.488  0.000  0.488
 

 k-point   14 :    0.50000000 0.33333333 0.16666667     weight = 0.11111111

band   1 # energy   -3.89054187 # occ.  2.00000000
 
ion      s      p      d    tot
  1  0.208  0.023  0.000  0.231
  2  0.208  0.023  0.000  0.231
tot  0.416  0.045  0.000  0.461
 
band   2 # energy    0.13027647 # occ.  2.00000000
 
ion      s      p      d    tot
  1  0.172  0.076  0.000  0.248
  2  0.172  0.076  0.000  0.248
tot  0.344  0.152  0.000  0.496
 
band   3 # energy    2.18069714 # occ.  2.00000000
 
ion      s      p      d    tot
  1  0.012  0.160  0.000  0.172
  2  0.012  0.160  0.000  0.172
tot  0.024  0.319  0.000  0.343
 
band   4 # energy    3.46929495 # occ.  2.00000000
 
ion      s      p      d    tot
  1  0.004  0.186  0.000  0.190
  2  0.004  0.186  0.000  0.190
tot  0.009  0.371  0.000  0.380
 
band   5 # energy    8.54869764 # occ.  0.00000000
 
ion      s      p      d    tot
  1  0.030  0.103  0.000  0.132
  2  0.030  0.103  0.000  0.132
tot  0.059  0.206  0.000  0.265
 
band   6 # energy    9.39332684 # occ.  0.00000000
 
ion      s      p      d    tot
  1  0.021  0.060  0.000  0.082
  2  0.021  0.060  0.000  0.082
tot  0.043  0.121  0.000  0.163
 
band   7 # energy    9.93389446 # occ.  0.00000000
 
ion      s      p      d    tot
  1  0.063  0.104  0.000  0.168
  2  0.063  0.104  0.000  0.168
tot  0.127  0.208  0.000  0.335
 
band   8 # energy   12.76526948 # occ.  0.00000000
 
ion      s      p      d    tot
  1  0.006  0.151  0.000  0.157
  2  0.006  0.151  0.000  0.157
tot  0.011  0.302  0.000  0.314
 

 k-point   15 :   -0.33333333 0.33333333 0.16666667     weight = 0.11111111

band   1 # energy   -2.90187134 # occ.  2.00000000
 
ion      s      p      d    tot
  1  0.217  0.027  0.000  0.245
  2  0.217  0.027  0.000  0.245
tot  0.435  0.055  0.000  0.489
 
band   2 # energy   -1.07095761 # occ.  2.00000000
 
ion      s      p      d    tot
  1  0.167  0.067  0.000  0.234
  2  0.167  0.067  0.000  0.234
tot  0.333  0.134  0.000  0.467
 
band   3 # energy    1.73790723 # occ.  2.00000000
 
ion      s      p      d    tot
  1  0.020  0.150  0.000  0.171
  2  0.020  0.150  0.000  0.171
tot  0.041  0.301  0.000  0.342
 
band   4 # energy    2.99809079 # occ.  2.00000000
 
ion      s      p      d    tot
  1  0.001  0.179  0.000  0.181
  2  0.001  0.179  0.000  0.181
tot  0.003  0.359  0.000  0.361
 
band   5 # energy    9.04170235 # occ.  0.00000000
 
ion      s      p      d    tot
  1  0.008  0.086  0.000  0.095
  2  0.008  0.086  0.000  0.095
tot  0.016  0.173  0.000  0.189
 
band   6 # energy    9.25151511 # occ.  0.00000000
 
ion      s      p      d    tot
  1  0.063  0.088  0.000  0.151
  2  0.063  0.088  0.000  0.151
tot  0.126  0.177  0.000  0.302
 
band   7 # energy   11.78402969 # occ.  0.00000000
 
ion      s      p      d    tot
  1  0.019  0.087  0.000  0.107
  2  0.019  0.087  0.000  0.107
tot  0.038  0.175  0.000  0.213
 
band   8 # energy   12.20603514 # occ.  0.00000000
 
ion      s      p      d    tot
  1  0.034  0.124  0.000  0.158
  2  0.034  0.124  0.000  0.158
tot  0.068  0.249  0.000  0.317
 

 k-point   16 :   -0.33333333 0.50000000 0.16666667     weight = 0.05555556

band   1 # energy   -1.91540565 # occ.  2.00000000
 
ion      s      p      d    tot
  1  0.203  0.043  0.000  0.246
  2  0.203  0.043  0.000  0.246
tot  0.406  0.087  0.000  0.493
 
band   2 # energy   -1.91540565 # occ.  2.00000000
 
ion      s      p      d    tot
  1  0.203  0.043  0.000  0.246
  2  0.203  0.043  0.000  0.246
tot  0.406  0.087  0.000  0.493
 
band   3 # energy    2.10654783 # occ.  2.00000000
 
ion      s      p      d    tot
  1  0.002  0.166  0.000  0.168
  2  0.002  0.166  0.000  0.168
tot  0.004  0.332  0.000  0.335
 
band   4 # energy    2.10654784 # occ.  2.00000000
 
ion      s      p      d    tot
  1  0.002  0.166  0.000  0.168
  2  0.002  0.166  0.000  0.168
tot  0.004  0.332  0.000  0.335
 
band   5 # energy    8.43355354 # occ.  0.00000000
 
ion      s      p      d    tot
  1  0.034  0.078  0.000  0.112
  2  0.034  0.078  0.000  0.112
tot  0.067  0.156  0.000  0.224
 
band   6 # energy    8.43355355 # occ.  0.00000000
 
ion      s      p      d    tot
  1  0.034  0.078  0.000  0.112
  2  0.034  0.078  0.000  0.112
tot  0.067  0.156  0.000  0.224
 
band   7 # energy   12.45129816 # occ.  0.00000000
 
ion      s      p      d    tot
  1  0.029  0.115  0.000  0.144
  2  0.028  0.116  0.000  0.144
tot  0.057  0.231  0.000  0.288
 
band   8 # energy   12.45129817 # occ.  0.00000000
 
ion      s      p      d    tot
  1  0.028  0.116  0.000  0.144
  2  0.029  0.115  0.000  0.144
tot  0.057  0.231  0.000  0.288
 
