  96  96   0   0
  0.2080188E+02  0.1257760E-08  0.1245754E-08  0.1274818E-08  0.5000000E-15
  1.000000000000000E-004
  CAR 
 MAPbI3-Cubic                            
      8.87540705    -19.42087287  301      1.35331264      1.00000000
    -19.421  0.0000E+00  0.0000E+00
    -19.327  0.0000E+00  0.0000E+00
    -19.232  0.0000E+00  0.0000E+00
    -19.138  0.0000E+00  0.0000E+00
    -19.044  0.0000E+00  0.0000E+00
    -18.949  0.0000E+00  0.0000E+00
    -18.855  0.0000E+00  0.0000E+00
    -18.761  0.0000E+00  0.0000E+00
    -18.666  0.0000E+00  0.0000E+00
    -18.572  0.0000E+00  0.0000E+00
    -18.478  0.0000E+00  0.0000E+00
    -18.383  0.0000E+00  0.0000E+00
    -18.289  0.0000E+00  0.0000E+00
    -18.195  0.0000E+00  0.0000E+00
    -18.100  0.0000E+00  0.1600E+02
    -18.006  0.0000E+00  0.1600E+02
    -17.912  0.0000E+00  0.1600E+02
    -17.817  0.0000E+00  0.1600E+02
    -17.723  0.0000E+00  0.1600E+02
    -17.629  0.0000E+00  0.1600E+02
    -17.534  0.0000E+00  0.1600E+02
    -17.440  0.0000E+00  0.1600E+02
    -17.346  0.0000E+00  0.1600E+02
    -17.251  0.0000E+00  0.1600E+02
    -17.157  0.0000E+00  0.1600E+02
    -17.063  0.0000E+00  0.1600E+02
    -16.969  0.0000E+00  0.1600E+02
    -16.874  0.0000E+00  0.1600E+02
    -16.780  0.0000E+00  0.1600E+02
    -16.686  0.0000E+00  0.1600E+02
    -16.591  0.0000E+00  0.1600E+02
    -16.497  0.0000E+00  0.1600E+02
    -16.403  0.0000E+00  0.1600E+02
    -16.308  0.0000E+00  0.1600E+02
    -16.214  0.0000E+00  0.1600E+02
    -16.120  0.0000E+00  0.1600E+02
    -16.025  0.0000E+00  0.1600E+02
    -15.931  0.0000E+00  0.1600E+02
    -15.837  0.0000E+00  0.1600E+02
    -15.742  0.0000E+00  0.1600E+02
    -15.648  0.0000E+00  0.1600E+02
    -15.554  0.0000E+00  0.1600E+02
    -15.459  0.0000E+00  0.1600E+02
    -15.365  0.0000E+00  0.1600E+02
    -15.271  0.0000E+00  0.1600E+02
    -15.176  0.0000E+00  0.1600E+02
    -15.082  0.4948E+02  0.4800E+02
    -14.988  0.0000E+00  0.9600E+02
    -14.893  0.0000E+00  0.9600E+02
    -14.799  0.0000E+00  0.9600E+02
    -14.705  0.0000E+00  0.9600E+02
    -14.611  0.0000E+00  0.9600E+02
    -14.516  0.0000E+00  0.9600E+02
    -14.422  0.0000E+00  0.9600E+02
    -14.328  0.0000E+00  0.9600E+02
    -14.233  0.0000E+00  0.9600E+02
    -14.139  0.0000E+00  0.9600E+02
    -14.045  0.0000E+00  0.9600E+02
    -13.950  0.0000E+00  0.9600E+02
    -13.856  0.0000E+00  0.9600E+02
    -13.762  0.0000E+00  0.9600E+02
    -13.667  0.0000E+00  0.9600E+02
    -13.573  0.0000E+00  0.9600E+02
    -13.479  0.0000E+00  0.9600E+02
    -13.384  0.0000E+00  0.9600E+02
    -13.290  0.0000E+00  0.9600E+02
    -13.196  0.0000E+00  0.9600E+02
    -13.101  0.0000E+00  0.9600E+02
    -13.007  0.0000E+00  0.9600E+02
    -12.913  0.0000E+00  0.9600E+02
    -12.818  0.0000E+00  0.9600E+02
    -12.724  0.0000E+00  0.9600E+02
    -12.630  0.0000E+00  0.9600E+02
    -12.535  0.0000E+00  0.9600E+02
    -12.441  0.0000E+00  0.9600E+02
    -12.347  0.0000E+00  0.9600E+02
    -12.252  0.0000E+00  0.9600E+02
    -12.158  0.0000E+00  0.9600E+02
    -12.064  0.0000E+00  0.9600E+02
    -11.970  0.0000E+00  0.9600E+02
    -11.875  0.0000E+00  0.9600E+02
    -11.781  0.0000E+00  0.9600E+02
    -11.687  0.0000E+00  0.9600E+02
    -11.592  0.0000E+00  0.9600E+02
    -11.498  0.0000E+00  0.9600E+02
    -11.404  0.0000E+00  0.9600E+02
    -11.309  0.8090E+01  0.9728E+02
    -11.215  0.1343E+02  0.1053E+03
    -11.121  0.0000E+00  0.1120E+03
    -11.026  0.0000E+00  0.1120E+03
    -10.932  0.0000E+00  0.1120E+03
    -10.838  0.2616E-15  0.1120E+03
    -10.743  0.4085E+00  0.1133E+03
    -10.649  0.3094E+01  0.1169E+03
    -10.555  0.7863E+01  0.1230E+03
    -10.460  0.6626E-07  0.1280E+03
    -10.366  0.1898E+02  0.1313E+03
    -10.272  0.9400E+01  0.1393E+03
    -10.177  0.7844E+01  0.1422E+03
    -10.083  0.0000E+00  0.1442E+03
     -9.989  0.5412E+01  0.1547E+03
     -9.894  0.0000E+00  0.1600E+03
     -9.800  0.0000E+00  0.1600E+03
     -9.706  0.0000E+00  0.1600E+03
     -9.611  0.0000E+00  0.1600E+03
     -9.517  0.0000E+00  0.1600E+03
     -9.423  0.0000E+00  0.1600E+03
     -9.329  0.0000E+00  0.1600E+03
     -9.234  0.0000E+00  0.1600E+03
     -9.140  0.0000E+00  0.1600E+03
     -9.046  0.0000E+00  0.1600E+03
     -8.951  0.0000E+00  0.1600E+03
     -8.857  0.0000E+00  0.1600E+03
     -8.763  0.0000E+00  0.1600E+03
     -8.668  0.0000E+00  0.1600E+03
     -8.574  0.0000E+00  0.1600E+03
     -8.480  0.0000E+00  0.1600E+03
     -8.385  0.0000E+00  0.1600E+03
     -8.291  0.0000E+00  0.1600E+03
     -8.197  0.0000E+00  0.1600E+03
     -8.102  0.0000E+00  0.1600E+03
     -8.008  0.0000E+00  0.1600E+03
     -7.914  0.0000E+00  0.1600E+03
     -7.819  0.0000E+00  0.1600E+03
     -7.725  0.0000E+00  0.1600E+03
     -7.631  0.1414E+02  0.1680E+03
     -7.536  0.7246E-13  0.1853E+03
     -7.442  0.0000E+00  0.1920E+03
     -7.348  0.0000E+00  0.1920E+03
     -7.253  0.0000E+00  0.1920E+03
     -7.159  0.0000E+00  0.1920E+03
     -7.065  0.0000E+00  0.1920E+03
     -6.971  0.0000E+00  0.1921E+03
     -6.876  0.0000E+00  0.1925E+03
     -6.782  0.0000E+00  0.1934E+03
     -6.688  0.7924E-08  0.1934E+03
     -6.593  0.0000E+00  0.1944E+03
     -6.499  0.2869E+01  0.1963E+03
     -6.405  0.6894E+00  0.1977E+03
     -6.310  0.0000E+00  0.1991E+03
     -6.216  0.0000E+00  0.2009E+03
     -6.122  0.1571E+01  0.2031E+03
     -6.027  0.3056E+01  0.2044E+03
     -5.933  0.3141E+01  0.2061E+03
     -5.839  0.7624E+01  0.2073E+03
     -5.744  0.7732E+01  0.2140E+03
     -5.650  0.4712E+01  0.2226E+03
     -5.556  0.3129E+01  0.2239E+03
     -5.461  0.0000E+00  0.2239E+03
     -5.367  0.0000E+00  0.2240E+03
     -5.273  0.0000E+00  0.2240E+03
     -5.178  0.0000E+00  0.2240E+03
     -5.084  0.0000E+00  0.2240E+03
     -4.990  0.0000E+00  0.2240E+03
     -4.895  0.0000E+00  0.2240E+03
     -4.801  0.0000E+00  0.2240E+03
     -4.707  0.0000E+00  0.2240E+03
     -4.612  0.0000E+00  0.2240E+03
     -4.518  0.0000E+00  0.2240E+03
     -4.424  0.0000E+00  0.2240E+03
     -4.330  0.0000E+00  0.2240E+03
     -4.235  0.0000E+00  0.2240E+03
     -4.141  0.0000E+00  0.2240E+03
     -4.047  0.0000E+00  0.2240E+03
     -3.952  0.0000E+00  0.2240E+03
     -3.858  0.0000E+00  0.2240E+03
     -3.764  0.0000E+00  0.2240E+03
     -3.669  0.0000E+00  0.2240E+03
     -3.575  0.1995E+01  0.2244E+03
     -3.481  0.2486E+02  0.2485E+03
     -3.386  0.0000E+00  0.2560E+03
     -3.292  0.0000E+00  0.2560E+03
     -3.198  0.0000E+00  0.2560E+03
     -3.103  0.0000E+00  0.2560E+03
     -3.009  0.0000E+00  0.2560E+03
     -2.915  0.0000E+00  0.2560E+03
     -2.820  0.0000E+00  0.2560E+03
     -2.726  0.0000E+00  0.2560E+03
     -2.632  0.0000E+00  0.2560E+03
     -2.537  0.0000E+00  0.2560E+03
     -2.443  0.0000E+00  0.2560E+03
     -2.349  0.0000E+00  0.2560E+03
     -2.254  0.0000E+00  0.2560E+03
     -2.160  0.0000E+00  0.2560E+03
     -2.066  0.1242E-05  0.2567E+03
     -1.972  0.1073E+01  0.2592E+03
     -1.877  0.1107E-07  0.2616E+03
     -1.783  0.3891E-12  0.2638E+03
     -1.689  0.3141E+01  0.2666E+03
     -1.594  0.6286E+01  0.2704E+03
     -1.500  0.1681E+01  0.2732E+03
     -1.406  0.1361E-10  0.2766E+03
     -1.311  0.1304E-06  0.2791E+03
     -1.217  0.1571E+01  0.2800E+03
     -1.123  0.0000E+00  0.2800E+03
     -1.028  0.2051E+01  0.2803E+03
     -0.934  0.4921E-01  0.2825E+03
     -0.840  0.1571E+01  0.2886E+03
     -0.745  0.6283E+01  0.2941E+03
     -0.651  0.7853E+00  0.2996E+03
     -0.557  0.3141E+01  0.3036E+03
     -0.462  0.4570E+01  0.3067E+03
     -0.368  0.4306E+01  0.3116E+03
     -0.274  0.6196E+01  0.3170E+03
     -0.179  0.1254E+02  0.3246E+03
     -0.085  0.5497E+01  0.3299E+03
      0.009  0.1329E+02  0.3370E+03
      0.104  0.1862E+02  0.3433E+03
      0.198  0.7686E+01  0.3516E+03
      0.292  0.3231E+01  0.3606E+03
      0.387  0.2824E+01  0.3665E+03
      0.481  0.2005E+02  0.3760E+03
      0.575  0.1267E+02  0.3844E+03
      0.669  0.4708E+01  0.3904E+03
      0.764  0.3917E+01  0.3952E+03
      0.858  0.2003E+01  0.3971E+03
      0.952  0.7073E-09  0.3987E+03
      1.047  0.0000E+00  0.3993E+03
      1.141  0.0000E+00  0.3998E+03
      1.235  0.0000E+00  0.3999E+03
      1.330  0.0000E+00  0.4000E+03
      1.424  0.0000E+00  0.4000E+03
      1.518  0.0000E+00  0.4000E+03
      1.613  0.0000E+00  0.4000E+03
      1.707  0.0000E+00  0.4000E+03
      1.801  0.0000E+00  0.4000E+03
      1.896  0.0000E+00  0.4000E+03
      1.990  0.0000E+00  0.4000E+03
      2.084  0.0000E+00  0.4000E+03
      2.179  0.0000E+00  0.4000E+03
      2.273  0.0000E+00  0.4000E+03
      2.367  0.0000E+00  0.4000E+03
      2.462  0.0000E+00  0.4000E+03
      2.556  0.0000E+00  0.4000E+03
      2.650  0.0000E+00  0.4000E+03
      2.745  0.0000E+00  0.4000E+03
      2.839  0.0000E+00  0.4000E+03
      2.933  0.0000E+00  0.4000E+03
      3.028  0.7853E+00  0.4007E+03
      3.122  0.1571E+01  0.4009E+03
      3.216  0.4712E+01  0.4026E+03
      3.310  0.7887E+00  0.4033E+03
      3.405  0.1709E+01  0.4043E+03
      3.499  0.4360E-16  0.4060E+03
      3.593  0.1571E+01  0.4070E+03
      3.688  0.0000E+00  0.4080E+03
      3.782  0.0000E+00  0.4087E+03
      3.876  0.0000E+00  0.4093E+03
      3.971  0.0000E+00  0.4107E+03
      4.065  0.5816E-13  0.4126E+03
      4.159  0.0000E+00  0.4145E+03
      4.254  0.3141E+01  0.4164E+03
      4.348  0.1347E+01  0.4194E+03
      4.442  0.3942E-08  0.4222E+03
      4.537  0.3141E+01  0.4236E+03
      4.631  0.0000E+00  0.4239E+03
      4.725  0.0000E+00  0.4240E+03
      4.820  0.0000E+00  0.4240E+03
      4.914  0.0000E+00  0.4240E+03
      5.008  0.0000E+00  0.4240E+03
      5.103  0.0000E+00  0.4241E+03
      5.197  0.7328E-01  0.4248E+03
      5.291  0.4394E-13  0.4267E+03
      5.386  0.9614E+01  0.4313E+03
      5.480  0.1160E+00  0.4338E+03
      5.574  0.4712E+01  0.4376E+03
      5.668  0.1690E+01  0.4391E+03
      5.763  0.1687E+01  0.4410E+03
      5.857  0.4708E-14  0.4436E+03
      5.951  0.2028E-05  0.4465E+03
      6.046  0.1233E+01  0.4495E+03
      6.140  0.1766E+01  0.4545E+03
      6.234  0.0000E+00  0.4579E+03
      6.329  0.3053E+01  0.4616E+03
      6.423  0.2356E+01  0.4647E+03
      6.517  0.1097E+01  0.4685E+03
      6.612  0.4632E+01  0.4736E+03
      6.706  0.9429E-01  0.4772E+03
      6.800  0.1510E-10  0.4813E+03
      6.895  0.4845E+01  0.4850E+03
      6.989  0.6674E-05  0.4877E+03
      7.083  0.2616E-15  0.4925E+03
      7.178  0.1569E+01  0.4974E+03
      7.272  0.1572E+01  0.5004E+03
      7.366  0.4713E+01  0.5053E+03
      7.461  0.1572E+01  0.5096E+03
      7.555  0.9559E-01  0.5115E+03
      7.649  0.0000E+00  0.5120E+03
      7.744  0.0000E+00  0.5120E+03
      7.838  0.0000E+00  0.5120E+03
      7.932  0.0000E+00  0.5120E+03
      8.027  0.0000E+00  0.5120E+03
      8.121  0.0000E+00  0.5120E+03
      8.215  0.0000E+00  0.5120E+03
      8.309  0.0000E+00  0.5120E+03
      8.404  0.0000E+00  0.5120E+03
      8.498  0.0000E+00  0.5120E+03
      8.592  0.0000E+00  0.5120E+03
      8.687  0.0000E+00  0.5120E+03
      8.781  0.0000E+00  0.5120E+03
      8.875  0.0000E+00  0.5120E+03
