       N       E                     dE             d eps       ncg     rms          rms(c)
DAV:   1     0.359477468452E+04    0.35948E+04   -0.18942E+05  7176   0.170E+03
DAV:   2     0.199275205404E+03   -0.33955E+04   -0.32027E+04  8000   0.354E+02
DAV:   3    -0.397545824800E+03   -0.59682E+03   -0.58764E+03  9432   0.172E+02
DAV:   4    -0.438193655677E+03   -0.40648E+02   -0.40471E+02  9640   0.492E+01
DAV:   5    -0.439741178907E+03   -0.15475E+01   -0.15452E+01  9808   0.932E+00    0.294E+01
DAV:   6    -0.419488068335E+03    0.20253E+02   -0.41008E+01  9688   0.103E+01    0.155E+01
DAV:   7    -0.417035339809E+03    0.24527E+01   -0.14497E+01 10232   0.637E+00    0.774E+00
DAV:   8    -0.416861832243E+03    0.17351E+00   -0.30707E+00  8600   0.321E+00    0.182E+00
DAV:   9    -0.416789419420E+03    0.72413E-01   -0.74126E-01  9336   0.174E+00    0.729E-01
DAV:  10    -0.416801993221E+03   -0.12574E-01   -0.11739E-01  9024   0.605E-01    0.482E-01
DAV:  11    -0.416801284351E+03    0.70887E-03   -0.14255E-02  9640   0.278E-01    0.214E-01
DAV:  12    -0.416802680052E+03   -0.13957E-02   -0.10511E-02  9904   0.164E-01    0.111E-01
DAV:  13    -0.416802832716E+03   -0.15266E-03   -0.14408E-03  8336   0.814E-02    0.785E-02
DAV:  14    -0.416802883426E+03   -0.50710E-04   -0.28671E-04  8624   0.298E-02    0.384E-02
DAV:  15    -0.416802927993E+03   -0.44567E-04   -0.22188E-04  8176   0.246E-02    0.147E-02
DAV:  16    -0.416802932582E+03   -0.45893E-05   -0.24205E-05 10056   0.106E-02    0.152E-02
DAV:  17    -0.416802932288E+03    0.29413E-06   -0.32970E-06  8368   0.341E-03    0.847E-03
DAV:  18    -0.416802931839E+03    0.44842E-06   -0.13974E-05 10136   0.591E-03    0.358E-03
DAV:  19    -0.416802931967E+03   -0.12804E-06   -0.14977E-06  8832   0.282E-03    0.310E-03
DAV:  20    -0.416802931969E+03   -0.16735E-08   -0.39909E-07  9464   0.109E-03    0.761E-04
DAV:  21    -0.416802932028E+03   -0.58895E-07   -0.85997E-08 10184   0.537E-04    0.362E-04
DAV:  22    -0.416802932013E+03    0.14614E-07   -0.72028E-09  7584   0.212E-04    0.275E-04
DAV:  23    -0.416802932020E+03   -0.71195E-08   -0.82196E-10  8104   0.139E-04    0.223E-04
DAV:  24    -0.416802932021E+03   -0.93860E-09    0.47570E-10  8816   0.775E-05    0.216E-04
DAV:  25    -0.416802932020E+03    0.15534E-08    0.12930E-09  6224   0.628E-05    0.213E-04
DAV:  26    -0.416802932023E+03   -0.28558E-08    0.18430E-09  5200   0.387E-05    0.208E-04
DAV:  27    -0.416802932023E+03   -0.88403E-09    0.20272E-09  4264   0.191E-05    0.208E-04
DAV:  28    -0.416802932023E+03    0.42564E-09    0.17301E-09  4256   0.155E-05    0.208E-04
DAV:  29    -0.416802932023E+03    0.39654E-09    0.19614E-09  4256   0.123E-05    0.208E-04
DAV:  30    -0.416802932023E+03   -0.13824E-09    0.17365E-09  4256   0.782E-06    0.208E-04
DAV:  31    -0.416802932023E+03   -0.50932E-10    0.12166E-09  4256   0.627E-06    0.208E-04
DAV:  32    -0.416802932023E+03    0.18917E-09    0.14143E-09  4256   0.389E-06    0.208E-04
DAV:  33    -0.416802932023E+03   -0.15643E-09    0.89902E-10  4256   0.192E-06    0.208E-04
DAV:  34    -0.416802932022E+03    0.32742E-09    0.81161E-10  4224   0.182E-06    0.208E-04
DAV:  35    -0.416802932023E+03   -0.10186E-09    0.85290E-10  4208   0.134E-06    0.208E-04
DAV:  36    -0.416802932023E+03   -0.36744E-09    0.83100E-10  4176   0.929E-07    0.208E-04
DAV:  37    -0.416802932023E+03    0.13461E-09    0.79959E-10  4128   0.818E-07    0.208E-04
DAV:  38    -0.416802932023E+03    0.20736E-09    0.78574E-10  4072   0.675E-07    0.208E-04
DAV:  39    -0.416802932023E+03   -0.20009E-09    0.70396E-10  4040   0.438E-07    0.208E-04
DAV:  40    -0.416802932023E+03    0.14552E-10    0.60124E-10  4024   0.302E-07
   1 F= -.41680293E+03 E0= -.41680293E+03  d E =0.000000E+00
