Name                                    
   5.65000000000000     
     0.514284    0.514284    0.000000
     0.514284    0.000000   -0.514284
    -0.000000    0.514284   -0.514284
   Ga   As
     1     1
Direct
  0.000000  0.000000  0.000000
  0.250000  0.250000  0.250000
 
   48   48   48
 -2.4593     -2.1199     -1.1410     0.36628      2.2363      4.2730      6.2763      8.0668      9.5072      10.515    
  11.069      11.204      10.997      10.551      9.9810      9.3940      8.8786      8.4544      8.1055      7.8210    
  7.5950      7.4246      7.3067      7.2380      7.2155      7.2380      7.3067      7.4246      7.5950      7.8210    
  8.1055      8.4544      8.8786      9.3940      9.9810      10.551      10.997      11.204      11.069      10.515    
  9.5072      8.0668      6.2763      4.2730      2.2363     0.36628     -1.1410     -2.1199     -2.1199     -1.4800    
 -.26753      1.3923      3.3334      5.3700      7.3181      9.0170      10.347      11.244      11.699      11.759    
  11.511      11.065      10.536      10.032      9.6146      9.2734      8.9946      8.7699      8.5954      8.4689    
  8.3874      8.3478      8.3478      8.3874      8.4689      8.5954      8.7699      8.9946      9.2734      9.6146    
  10.032      10.536      11.065      11.511      11.759      11.699      11.244      10.347      9.0170      7.3181    
  5.3700      3.3334      1.3923     -.26753     -1.4800     -2.1199     -1.1410     -.26753      1.0956      2.8210    
  4.7507      6.7134      8.5427      10.096      11.274      12.027      12.364      12.345      12.066      11.642    
  11.187      10.797      10.483      10.229      10.023      9.8605      9.7384      9.6546      9.6063      9.5906    
  9.6063      9.6546      9.7384      9.8605      10.023      10.229      10.483      10.797      11.187      11.642    
  12.066      12.345      12.364      12.027      11.274      10.096      8.5427      6.7134      4.7507      2.8210    
  1.0956     -.26753     -1.1410     -1.4418     0.36628      1.3923      2.8210      4.5307      6.3761      8.2015    
  9.8586      11.224      12.217      12.808      13.025      12.940      12.657      12.294      11.956      11.692    
  11.484      11.319      11.188      11.088      11.017      10.972      10.951      10.951      10.972      11.017    
  11.088      11.188      11.319      11.484      11.692      11.956      12.294      12.657      12.940      13.025    
  12.808      12.217      11.224      9.8586      8.2015      6.3761      4.5307      2.8210      1.3923     0.36627    
 -.16957     -.16957      2.2363      3.3334      4.7507      6.3761      8.0777      9.7159      11.161      12.309    
  13.103      13.535      13.650      13.534      13.294      13.042      12.850      12.714      12.613      12.537    
  12.481      12.441      12.416      12.403      12.399      12.403      12.416      12.441      12.481      12.537    
  12.613      12.714      12.850      13.042      13.294      13.534      13.650      13.535      13.103      12.309    
  11.161      9.7159      8.0777      6.3761      4.7507      3.3334      2.2363      1.5434      1.3067      1.5434    
  4.2730      5.3700      6.7134      8.2015      9.7159      11.134      12.344      13.269      13.873      14.172    
  14.229      14.136      13.998      13.904      13.862      13.851      13.856      13.868      13.883      13.898    
  13.912      13.920      13.920      13.912      13.898      13.883      13.868      13.856      13.851      13.862    
  13.904      13.998      14.136      14.229      14.172      13.873      13.269      12.344      11.134      9.7159    
  8.2015      6.7134      5.3701      4.2730      3.4995      3.1003      3.1003      3.4995      6.2763      7.3181    
  8.5427      9.8586      11.161      12.344      13.322      14.040      14.490      14.710      14.773      14.771    
  14.796      14.872      14.975      15.086      15.193      15.289      15.370      15.433      15.472      15.486    
  15.472      15.433      15.370      15.289      15.193      15.086      14.975      14.872      14.796      14.771    
  14.773      14.710      14.490      14.040      13.322      12.344      11.161      9.8586      8.5427      7.3181    
  6.2763      5.4868      4.9961      4.8299      4.9961      5.4868      8.0668      9.0170      10.096      11.224    
  12.309      13.269      14.040      14.597      14.956      15.169      15.315      15.477      15.688      15.926    
  16.168      16.396      16.600      16.774      16.911      17.007      17.056      17.056      17.007      16.911    
  16.774      16.600      16.396      16.168      15.926      15.688      15.477      15.315      15.169      14.956    
  14.597      14.040      13.269      12.309      11.224      10.096      9.0170      8.0668      7.3089      6.7849    
  6.5180      6.5180      6.7849      7.3089      9.5072      10.347      11.274      12.217      13.103      13.873    
  14.490      14.956      15.304      15.596      15.903      16.262      16.650      17.041      17.414      17.753    
  18.047      18.283      18.450      18.549      18.582      18.549      18.450      18.283      18.047      17.753    
  17.414      17.041      16.650      16.262      15.903      15.596      15.304      14.956      14.490      13.873    
  13.103      12.217      11.274      10.347      9.5072      8.8099      8.2931      7.9775      7.8716      7.9775    
  8.2931      8.8099      10.515      11.244      12.027      12.808      13.535      14.172      14.710      15.169    
  15.596      16.049      16.559      17.104      17.655      18.189      18.684      19.119      19.466      19.715    
  19.872      19.946      19.946      19.872      19.715      19.466      19.119      18.684      18.189      17.655    
  17.104      16.559      16.049      15.596      15.169      14.710      14.172      13.535      12.808      12.027    
  11.244      10.515      9.8905      9.4039      9.0742      8.9086      8.9086      9.0742      9.4039      9.8905    
  11.069      11.699      12.364      13.025      13.650      14.229      14.773      15.315      15.903      16.559    
  17.258      17.972      18.674      19.339      19.927      20.398      20.739      20.961      21.083      21.121    
  21.083      20.961      20.739      20.398      19.927      19.339      18.674      17.972      17.258      16.559    
  15.903      15.315      14.773      14.229      13.650      13.025      12.364      11.699      11.069      10.515    
  10.066      9.7406      9.5449      9.4798      9.5449      9.7406      10.066      10.515      11.204      11.759    
  12.345      12.940      13.534      14.136      14.771      15.477      16.262      17.104      17.972      18.840    
  19.676      20.428      21.038      21.485      21.784      21.959      22.039      22.039      21.959      21.784    
  21.485      21.038      20.428      19.676      18.840      17.972      17.104      16.262      15.477      14.771    
  14.136      13.534      12.940      12.345      11.759      11.204      10.707      10.292      9.9760      9.7649    
  9.6601      9.6601      9.7649      9.9760      10.292      10.707      10.997      11.511      12.066      12.657    
  13.294      13.998      14.796      15.688      16.650      17.655      18.674      19.676      20.598      21.363    
  21.938      22.331      22.572      22.698      22.736      22.698      22.572      22.331      21.938      21.363    
  20.598      19.676      18.674      17.655      16.650      15.688      14.796      13.998      13.294      12.657    
  12.066      11.511      10.997      10.536      10.144      9.8336      9.6114      9.4790      9.4351      9.4790    
  9.6114      9.8336      10.144      10.536      10.551      11.065      11.642      12.294      13.042      13.904    
  14.872      15.926      17.041      18.189      19.339      20.428      21.363      22.089      22.603      22.931    
  23.117      23.198      23.198      23.117      22.931      22.603      22.089      21.363      20.428      19.339    
  18.189      17.041      15.926      14.872      13.904      13.042      12.294      11.642      11.065      10.551    
  10.100      9.7145      9.4015      9.1659      9.0097      8.9322      8.9322      9.0097      9.1659      9.4015    
  9.7145      10.100      9.9810      10.536      11.187      11.956      12.850      13.862      14.975      16.168    
  17.414      18.684      19.927      21.038      21.938      22.603      23.049      23.318      23.457      23.499    
  23.457      23.318      23.049      22.603      21.938      21.038      19.927      18.684      17.414      16.168    
  14.975      13.862      12.850      11.956      11.187      10.536      9.9810      9.5077      9.1085      8.7815    
  8.5272      8.3464      8.2386      8.2028      8.2386      8.3464      8.5272      8.7815      9.1085      9.5077    
  9.3940      10.032      10.797      11.692      12.714      13.851      15.086      16.396      17.753      19.119    
  20.398      21.485      22.331      22.931      23.318      23.540      23.637      23.637      23.540      23.318    
  22.931      22.331      21.485      20.398      19.119      17.753      16.396      15.086      13.851      12.714    
  11.692      10.797      10.032      9.3940      8.8655      8.4292      8.0736      7.7929      7.5843      7.4462    
  7.3776      7.3776      7.4462      7.5843      7.7929      8.0736      8.4292      8.8655      8.8786      9.6146    
  10.483      11.484      12.613      13.856      15.193      16.600      18.047      19.466      20.739      21.784    
  22.572      23.117      23.457      23.637      23.693      23.637      23.457      23.117      22.572      21.784    
  20.739      19.466      18.047      16.600      15.193      13.856      12.613      11.484      10.483      9.6146    
  8.8786      8.2672      7.7683      7.3667      7.0489      6.8072      6.6369      6.5357      6.5021      6.5357    
  6.6369      6.8072      7.0489      7.3667      7.7683      8.2672      8.4544      9.2734      10.229      11.319    
  12.537      13.868      15.289      16.774      18.283      19.715      20.961      21.959      22.698      23.198    
  23.499      23.637      23.637      23.499      23.198      22.698      21.959      20.961      19.715      18.283    
  16.774      15.289      13.868      12.537      11.319      10.229      9.2735      8.4544      7.7656      7.1964    
  6.7340      6.3663      6.0831      5.8763      5.7407      5.6737      5.6737      5.7407      5.8763      6.0831    
  6.3663      6.7340      7.1964      7.7656      8.1055      8.9946      10.023      11.188      12.481      13.883    
  15.370      16.911      18.450      19.872      21.083      22.039      22.736      23.198      23.457      23.540    
  23.457      23.198      22.736      22.039      21.083      19.872      18.450      16.911      15.370      13.883    
  12.481      11.188      10.023      8.9946      8.1055      7.3513      6.7222      6.2056      5.7887      5.4607    
  5.2134      5.0407      4.9387      4.9049      4.9387      5.0407      5.2134      5.4607      5.7887      6.2056    
  6.7222      7.3513      7.8210      8.7699      9.8605      11.088      12.441      13.898      15.433      17.007    
  18.549      19.946      21.121      22.039      22.698      23.117      23.318      23.318      23.117      22.698    
  22.039      21.121      19.946      18.549      17.007      15.433      13.898      12.441      11.088      9.8605    
  8.7699      7.8210      7.0109      6.3307      5.7678      5.3090      4.9425      4.6589      4.4517      4.3161    
  4.2490      4.2490      4.3161      4.4517      4.6589      4.9425      5.3090      5.7678      6.3307      7.0109    
  7.5950      8.5954      9.7384      11.017      12.416      13.912      15.472      17.056      18.582      19.946    
  21.083      21.959      22.572      22.931      23.049      22.931      22.572      21.959      21.083      19.946    
  18.582      17.056      15.472      13.912      12.416      11.017      9.7384      8.5954      7.5950      6.7363    
  6.0114      5.4083      4.9132      4.5134      4.1986      3.9609      3.7949      3.6969      3.6645      3.6969    
  3.7949      3.9609      4.1986      4.5134      4.9132      5.4083      6.0114      6.7363      7.4246      8.4689    
  9.6546      10.972      12.403      13.920      15.486      17.056      18.549      19.872      20.961      21.784    
  22.331      22.603      22.603      22.331      21.784      20.961      19.872      18.549      17.056      15.486    
  13.920      12.403      10.972      9.6546      8.4689      7.4246      6.5231      5.7584      5.1191      4.5917    
  4.1624      3.8200      3.5555      3.3626      3.2367      3.1746      3.1746      3.2367      3.3626      3.5555    
  3.8200      4.1624      4.5917      5.1191      5.7584      6.5231      7.3067      8.3874      9.6063      10.951    
  12.399      13.920      15.472      17.007      18.450      19.715      20.739      21.485      21.938      22.089    
  21.938      21.485      20.739      19.715      18.450      17.007      15.472      13.920      12.399      10.951    
  9.6063      8.3874      7.3067      6.3681      5.5677      4.8954      4.3380      3.8817      3.5142      3.2257    
  3.0087      2.8579      2.7691      2.7398      2.7691      2.8579      3.0087      3.2257      3.5142      3.8817    
  4.3380      4.8954      5.5677      6.3681      7.2380      8.3478      9.5906      10.951      12.403      13.912    
  15.433      16.911      18.283      19.466      20.398      21.038      21.363      21.363      21.038      20.398    
  19.466      18.283      16.911      15.433      13.912      12.403      10.951      9.5906      8.3478      7.2380    
  6.2679      5.4357      4.7331      4.1477      3.6658      3.2747      2.9638      2.7249      2.5516      2.4390    
  2.3837      2.3837      2.4390      2.5516      2.7249      2.9638      3.2747      3.6658      4.1477      4.7331    
  5.4357      6.2679      7.2155      8.3478      9.6063      10.972      12.416      13.898      15.370      16.774    
  18.047      19.119      19.927      20.428      20.598      20.428      19.927      19.119      18.047      16.774    
  15.370      13.898      12.416      10.972      9.6063      8.3478      7.2155      6.2190      5.3587      4.6282    
  4.0163      3.5099      3.0961      2.7638      2.5042      2.3101      2.1761      2.0976      2.0718      2.0976    
  2.1761      2.3101      2.5042      2.7638      3.0961      3.5099      4.0163      4.6282      5.3587      6.2190    
  7.2380      8.3874      9.6546      11.017      12.441      13.883      15.289      16.600      17.753      18.684    
  19.339      19.676      19.676      19.339      18.684      17.753      16.600      15.289      13.883      12.441    
  11.017      9.6546      8.3874      7.2380      6.2190      5.3335      4.5769      3.9397      3.4093      2.9732    
  2.6200      2.3404      2.1268      1.9728      1.8734      1.8248      1.8248      1.8734      1.9728      2.1268    
  2.3404      2.6200      2.9732      3.4093      3.9397      4.5769      5.3335      6.2190      7.3067      8.4689    
  9.7384      11.088      12.481      13.868      15.193      16.396      17.414      18.189      18.674      18.840    
  18.674      18.189      17.414      16.396      15.193      13.868      12.481      11.088      9.7384      8.4689    
  7.3067      6.2679      5.3587      4.5769      3.9145      3.3602      2.9017      2.5276      2.2282      1.9954    
  1.8226      1.7039      1.6348      1.6122      1.6348      1.7039      1.8226      1.9954      2.2282      2.5276    
  2.9017      3.3602      3.9145      4.5769      5.3587      6.2679      7.4246      8.5954      9.8605      11.188    
  12.537      13.856      15.086      16.168      17.041      17.655      17.972      17.972      17.655      17.041    
  16.168      15.086      13.856      12.537      11.188      9.8605      8.5954      7.4246      6.3681      5.4357    
  4.6282      3.9397      3.3602      2.8782      2.4824      2.1629      1.9110      1.7197      1.5827      1.4947    
  1.4518      1.4518      1.4947      1.5827      1.7197      1.9110      2.1629      2.4824      2.8782      3.3602    
  3.9397      4.6282      5.4357      6.3681      7.5950      8.7699      10.023      11.319      12.613      13.851    
  14.975      15.926      16.650      17.104      17.258      17.104      16.650      15.926      14.975      13.851    
  12.613      11.319      10.023      8.7699      7.5950      6.5231      5.5677      4.7331      4.0163      3.4093    
  2.9017      2.4824      2.1415      1.8698      1.6598      1.5047      1.3987      1.3372      1.3170      1.3372    
  1.3987      1.5047      1.6598      1.8698      2.1415      2.4824      2.9017      3.4093      4.0163      4.7331    
  5.5677      6.5231      7.8210      8.9946      10.229      11.484      12.714      13.862      14.872      15.688    
  16.262      16.559      16.559      16.262      15.688      14.872      13.862      12.714      11.484      10.229    
  8.9946      7.8210      6.7363      5.7584      4.8954      4.1477      3.5099      2.9732      2.5276      2.1629    
  1.8698      1.6402      1.4666      1.3427      1.2634      1.2247      1.2247      1.2634      1.3427      1.4666    
  1.6402      1.8698      2.1629      2.5276      2.9732      3.5099      4.1477      4.8954      5.7584      6.7363    
  8.1055      9.2734      10.483      11.692      12.850      13.904      14.796      15.477      15.903      16.049    
  15.903      15.477      14.796      13.904      12.850      11.692      10.483      9.2735      8.1055      7.0109    
  6.0114      5.1191      4.3380      3.6658      3.0961      2.6200      2.2282      1.9110      1.6598      1.4666    
  1.3243      1.2273      1.1709      1.1524      1.1709      1.2273      1.3243      1.4666      1.6598      1.9110    
  2.2282      2.6200      3.0961      3.6658      4.3380      5.1191      6.0114      7.0109      8.4544      9.6146    
  10.797      11.956      13.042      13.998      14.771      15.315      15.596      15.596      15.315      14.771    
  13.998      13.042      11.956      10.797      9.6146      8.4544      7.3513      6.3307      5.4083      4.5917    
  3.8817      3.2747      2.7638      2.3404      1.9954      1.7197      1.5047      1.3427      1.2273      1.1532    
  1.1171      1.1171      1.1532      1.2273      1.3427      1.5047      1.7197      1.9954      2.3404      2.7638    
  3.2747      3.8817      4.5917      5.4083      6.3307      7.3513      8.8786      10.032      11.187      12.294    
  13.294      14.136      14.773      15.169      15.304      15.169      14.773      14.136      13.294      12.294    
  11.187      10.032      8.8786      7.7656      6.7222      5.7678      4.9132      4.1624      3.5142      2.9638    
  2.5042      2.1268      1.8226      1.5827      1.3987      1.2634      1.1709      1.1171      1.0994      1.1171    
  1.1709      1.2634      1.3987      1.5827      1.8226      2.1268      2.5042      2.9638      3.5142      4.1624    
  4.9132      5.7678      6.7222      7.7656      9.3940      10.536      11.642      12.657      13.534      14.229    
  14.710      14.956      14.956      14.710      14.229      13.534      12.657      11.642      10.536      9.3940    
  8.2672      7.1964      6.2056      5.3090      4.5134      3.8200      3.2257      2.7249      2.3101      1.9728    
  1.7039      1.4947      1.3372      1.2247      1.1524      1.1171      1.1171      1.1524      1.2247      1.3372    
  1.4947      1.7039      1.9728      2.3101      2.7249      3.2257      3.8200      4.5135      5.3090      6.2056    
  7.1964      8.2672      9.9810      11.065      12.066      12.940      13.650      14.172      14.490      14.597    
  14.490      14.172      13.650      12.940      12.066      11.065      9.9810      8.8655      7.7683      6.7340    
  5.7887      4.9425      4.1986      3.5555      3.0087      2.5516      2.1761      1.8734      1.6348      1.4518    
  1.3170      1.2247      1.1709      1.1532      1.1709      1.2247      1.3170      1.4518      1.6348      1.8734    
  2.1761      2.5516      3.0087      3.5555      4.1986      4.9425      5.7887      6.7340      7.7683      8.8655    
  10.551      11.511      12.345      13.025      13.535      13.873      14.040      14.040      13.873      13.535    
  13.025      12.345      11.511      10.551      9.5077      8.4292      7.3667      6.3663      5.4607      4.6589    
  3.9609      3.3626      2.8579      2.4390      2.0976      1.8248      1.6122      1.4518      1.3372      1.2634    
  1.2273      1.2273      1.2634      1.3372      1.4518      1.6122      1.8248      2.0976      2.4390      2.8579    
  3.3626      3.9609      4.6589      5.4607      6.3663      7.3667      8.4292      9.5077      10.997      11.759    
  12.364      12.808      13.103      13.269      13.322      13.269      13.103      12.808      12.364      11.759    
  10.997      10.100      9.1085      8.0736      7.0489      6.0831      5.2134      4.4517      3.7949      3.2367    
  2.7691      2.3837      2.0718      1.8248      1.6348      1.4947      1.3987      1.3427      1.3243      1.3427    
  1.3987      1.4947      1.6348      1.8248      2.0718      2.3837      2.7691      3.2367      3.7949      4.4517    
  5.2134      6.0831      7.0489      8.0736      9.1085      10.100      11.204      11.699      12.027      12.217    
  12.309      12.344      12.344      12.309      12.217      12.027      11.699      11.204      10.536      9.7145    
  8.7815      7.7929      6.8072      5.8763      5.0407      4.3161      3.6969      3.1746      2.7398      2.3837    
  2.0976      1.8734      1.7039      1.5827      1.5047      1.4666      1.4666      1.5047      1.5827      1.7039    
  1.8734      2.0976      2.3837      2.7398      3.1746      3.6969      4.3161      5.0407      5.8763      6.8072    
  7.7929      8.7815      9.7145      10.536      11.069      11.244      11.274      11.224      11.161      11.134    
  11.161      11.224      11.274      11.244      11.069      10.707      10.144      9.4015      8.5272      7.5843    
  6.6369      5.7407      4.9387      4.2490      3.6645      3.1746      2.7691      2.4390      2.1761      1.9728    
  1.8226      1.7197      1.6598      1.6402      1.6598      1.7197      1.8226      1.9728      2.1761      2.4390    
  2.7691      3.1746      3.6645      4.2490      4.9387      5.7407      6.6369      7.5843      8.5272      9.4015    
  10.144      10.707      10.515      10.347      10.096      9.8586      9.7159      9.7159      9.8586      10.096    
  10.347      10.515      10.515      10.292      9.8336      9.1659      8.3464      7.4462      6.5357      5.6737    
  4.9049      4.2490      3.6969      3.2367      2.8579      2.5516      2.3101      2.1268      1.9954      1.9110    
  1.8698      1.8698      1.9110      1.9954      2.1268      2.3101      2.5516      2.8579      3.2367      3.6969    
  4.2490      4.9049      5.6737      6.5357      7.4462      8.3464      9.1659      9.8336      10.292      10.515    
  9.5072      9.0170      8.5427      8.2015      8.0777      8.2015      8.5427      9.0170      9.5072      9.8905    
  10.066      9.9760      9.6114      9.0097      8.2386      7.3776      6.5021      5.6737      4.9387      4.3161    
  3.7949      3.3626      3.0087      2.7249      2.5042      2.3404      2.2282      2.1629      2.1415      2.1629    
  2.2282      2.3404      2.5042      2.7249      3.0087      3.3626      3.7949      4.3161      4.9387      5.6737    
  6.5021      7.3776      8.2386      9.0097      9.6114      9.9760      10.066      9.8905      8.0668      7.3181    
  6.7134      6.3761      6.3761      6.7134      7.3181      8.0668      8.8099      9.4039      9.7406      9.7649    
  9.4790      8.9322      8.2028      7.3776      6.5357      5.7407      5.0407      4.4517      3.9609      3.5555    
  3.2257      2.9638      2.7638      2.6200      2.5276      2.4824      2.4824      2.5276      2.6200      2.7638    
  2.9638      3.2257      3.5555      3.9609      4.4517      5.0407      5.7407      6.5357      7.3776      8.2028    
  8.9322      9.4790      9.7649      9.7406      9.4039      8.8099      6.2763      5.3700      4.7507      4.5307    
  4.7507      5.3701      6.2763      7.3089      8.2931      9.0742      9.5449      9.6601      9.4351      8.9322    
  8.2386      7.4462      6.6369      5.8763      5.2134      4.6589      4.1986      3.8200      3.5142      3.2747    
  3.0961      2.9732      2.9017      2.8782      2.9017      2.9732      3.0961      3.2747      3.5142      3.8200    
  4.1986      4.6589      5.2134      5.8763      6.6369      7.4462      8.2386      8.9322      9.4351      9.6601    
  9.5449      9.0742      8.2931      7.3089      4.2730      3.3334      2.8210      2.8210      3.3334      4.2730    
  5.4868      6.7849      7.9775      8.9086      9.4798      9.6601      9.4790      9.0097      8.3464      7.5843    
  6.8072      6.0831      5.4607      4.9425      4.5134      4.1624      3.8817      3.6658      3.5099      3.4093    
  3.3602      3.3602      3.4093      3.5099      3.6658      3.8817      4.1624      4.5135      4.9425      5.4607    
  6.0831      6.8072      7.5843      8.3464      9.0097      9.4790      9.6601      9.4798      8.9086      7.9775    
  6.7849      5.4868      2.2363      1.3923      1.0956      1.3923      2.2363      3.4995      4.9961      6.5180    
  7.8716      8.9086      9.5449      9.7649      9.6114      9.1659      8.5272      7.7929      7.0489      6.3663    
  5.7887      5.3090      4.9132      4.5917      4.3380      4.1477      4.0163      3.9397      3.9145      3.9397    
  4.0163      4.1477      4.3380      4.5917      4.9132      5.3090      5.7887      6.3663      7.0489      7.7929    
  8.5272      9.1659      9.6114      9.7649      9.5449      8.9086      7.8716      6.5180      4.9961      3.4995    
 0.36628     -.26753     -.26753     0.36627      1.5434      3.1003      4.8299      6.5180      7.9775      9.0742    
  9.7406      9.9760      9.8336      9.4015      8.7815      8.0736      7.3667      6.7340      6.2056      5.7678    
  5.4083      5.1191      4.8954      4.7331      4.6282      4.5769      4.5769      4.6282      4.7331      4.8954    
  5.1191      5.4083      5.7678      6.2056      6.7340      7.3667      8.0736      8.7815      9.4015      9.8336    
  9.9760      9.7406      9.0742      7.9775      6.5180      4.8299      3.1003      1.5434     -1.1410     -1.4800    
 -1.1410     -.16957      1.3067      3.1003      4.9961      6.7849      8.2931      9.4039      10.066      10.292    
  10.144      9.7145      9.1085      8.4292      7.7683      7.1964      6.7222      6.3307      6.0114      5.7584    
  5.5677      5.4357      5.3587      5.3335      5.3587      5.4357      5.5677      5.7584      6.0114      6.3307    
  6.7222      7.1964      7.7683      8.4292      9.1085      9.7145      10.144      10.292      10.066      9.4039    
  8.2931      6.7849      4.9961      3.1003      1.3067     -.16957     -2.1199     -2.1199     -1.4418     -.16957    
  1.5434      3.4995      5.4868      7.3089      8.8099      9.8905      10.515      10.707      10.536      10.100    
  9.5077      8.8655      8.2672      7.7656      7.3513      7.0109      6.7363      6.5231      6.3681      6.2679    
  6.2190      6.2190      6.2679      6.3681      6.5231      6.7363      7.0109      7.3513      7.7656      8.2672    
  8.8655      9.5077      10.100      10.536      10.707      10.515      9.8905      8.8099      7.3089      5.4868    
  3.4995      1.5434     -.16957     -1.4418     -2.1199     -1.4800     -.26753      1.3923      3.3334      5.3700    
  7.3181      9.0170      10.347      11.244      11.699      11.759      11.511      11.065      10.536      10.032    
  9.6146      9.2734      8.9946      8.7699      8.5954      8.4689      8.3874      8.3478      8.3478      8.3874    
  8.4689      8.5954      8.7699      8.9946      9.2734      9.6146      10.032      10.536      11.065      11.511    
  11.759      11.699      11.244      10.347      9.0170      7.3181      5.3701      3.3334      1.3923     -.26753    
 -1.4800     -2.1199     -1.4800     -.58709     0.80716      2.5734      4.5513      6.5664      8.4487      10.053    
  11.274      12.063      12.428      12.427      12.158      11.737      11.282      10.889      10.573      10.317    
  10.110      9.9467      9.8237      9.7392      9.6904      9.6745      9.6904      9.7392      9.8237      9.9467    
  10.110      10.317      10.573      10.889      11.282      11.737      12.158      12.427      12.428      12.063    
  11.274      10.053      8.4487      6.5664      4.5513      2.5734     0.80716     -.58709     -1.4800     -1.7874    
 -.26753     0.80716      2.3058      4.1026      6.0471      7.9773      9.7377      11.198      12.273      12.929    
  13.192      13.136      12.868      12.507      12.166      11.898      11.689      11.522      11.389      11.288    
  11.215      11.169      11.147      11.147      11.169      11.215      11.288      11.389      11.522      11.689    
  11.898      12.166      12.507      12.868      13.136      13.192      12.929      12.273      11.198      9.7377    
  7.9773      6.0471      4.1026      2.3058     0.80716     -.26753     -.82835     -.82835      1.3923      2.5734    