Name                                    
   5.65000000000000     
     0.509876    0.509876    0.000000
     0.509876    0.000000   -0.509876
    -0.000000    0.509876   -0.509876
   Ga   As
     1     1
Direct
  0.000000 -0.000000  0.000000
  0.250000  0.250000  0.250000
 
   48   48   48
 -.22268646176E+01 -.18698287169E+01 -.84123570961E+00 0.73808482377E+00 0.26875954039E+01
 0.47936636796E+01 0.68394674507E+01 0.86337059094E+01 0.10034045680E+02 0.10961750660E+02
 0.11405244029E+02 0.11412773900E+02 0.11077052266E+02 0.10516295850E+02 0.98557851573E+01
 0.92124146066E+01 0.86685578011E+01 0.82238805563E+01 0.78608698012E+01 0.75680187491E+01
 0.73386532930E+01 0.71682182497E+01 0.70521075335E+01 0.69852867507E+01 0.69635636760E+01
 0.69852871617E+01 0.70521079195E+01 0.71682181737E+01 0.73386526521E+01 0.75680177034E+01
 0.78608685601E+01 0.82238793320E+01 0.86685568325E+01 0.92124140594E+01 0.98557850254E+01
 0.10516296065E+02 0.11077052864E+02 0.11412774918E+02 0.11405245223E+02 0.10961751466E+02
 0.10034045570E+02 0.86337047874E+01 0.68394657240E+01 0.47936620214E+01 0.26875944364E+01
 0.73808481741E+00 -.84123503681E+00 -.18698280736E+01 -.18698287169E+01 -.11968793610E+01
 0.75635628410E-01 0.18110819676E+01 0.38278623764E+01 0.59228488527E+01 0.78969339437E+01
 0.95797083771E+01 0.10849899926E+02 0.11648063659E+02 0.11979102689E+02 0.11904581814E+02
 0.11527337789E+02 0.10972277910E+02 0.10367100110E+02 0.98235642881E+01 0.93817262847E+01
 0.90236536195E+01 0.87343799399E+01 0.85049889466E+01 0.83303356474E+01 0.82061887531E+01
 0.81277316071E+01 0.80900892417E+01 0.80900905411E+01 0.81277336557E+01 0.82061889195E+01
 0.83303344710E+01 0.85049887768E+01 0.87343808770E+01 0.90236536149E+01 0.93817248691E+01
 0.98235632981E+01 0.10367100319E+02 0.10972277716E+02 0.11527336365E+02 0.11904581065E+02
 0.11979104272E+02 0.11648066022E+02 0.10849900487E+02 0.95797071906E+01 0.78969328034E+01
 0.59228479383E+01 0.38278607634E+01 0.18110809010E+01 0.75637756022E-01 -.11968747124E+01
 -.18698262114E+01 -.84123570961E+00 0.75635628410E-01 0.15023970336E+01 0.32990597038E+01
 0.52921282633E+01 0.72942115880E+01 0.91261065349E+01 0.10639003421E+02 0.11733259792E+02
 0.12369813652E+02 0.12571588424E+02 0.12414775093E+02 0.12012356712E+02 0.11493640567E+02
 0.10983692296E+02 0.10565185114E+02 0.10232288469E+02 0.99664319658E+01 0.97555588155E+01
 0.95929782800E+01 0.94743931322E+01 0.93953998692E+01 0.93509517092E+01 0.93367130249E+01
 0.93509524689E+01 0.93954009278E+01 0.94743941259E+01 0.95929792965E+01 0.97555600756E+01
 0.99664332943E+01 0.10232289302E+02 0.10565185053E+02 0.10983691498E+02 0.11493639515E+02
 0.12012355768E+02 0.12414774462E+02 0.12571588414E+02 0.12369814584E+02 0.11733261449E+02
 0.10639004795E+02 0.91261065418E+01 0.72942101577E+01 0.52921265339E+01 0.32990590065E+01
 0.15023977515E+01 0.75637049524E-01 -.84123465539E+00 -.11573547750E+01 0.73808482377E+00
 0.18110819676E+01 0.32990597038E+01 0.50674571757E+01 0.69558825269E+01 0.87948278254E+01
 0.10425913407E+02 0.11722967335E+02 0.12609671130E+02 0.13069423185E+02 0.13144801355E+02
 0.12926717455E+02 0.12535859168E+02 0.12100531948E+02 0.11729450458E+02 0.11444744863E+02
 0.11225258361E+02 0.11055240406E+02 0.10925418333E+02 0.10830579874E+02 0.10766495183E+02
 0.10728255334E+02 0.10710797645E+02 0.10710797194E+02 0.10728254787E+02 0.10766495698E+02
 0.10830581315E+02 0.10925419935E+02 0.11055242309E+02 0.11225261048E+02 0.11444747441E+02
 0.11729451164E+02 0.12100530589E+02 0.12535857544E+02 0.12926716864E+02 0.13144801169E+02
 0.13069422728E+02 0.12609671380E+02 0.11722969207E+02 0.10425915494E+02 0.87948278697E+01
 0.69558806430E+01 0.50674556013E+01 0.32990594253E+01 0.18110817038E+01 0.73808374894E+00
 0.17647969871E+00 0.17648039504E+00 0.26875954039E+01 0.38278623764E+01 0.52921282633E+01
 0.69558825269E+01 0.86737333357E+01 0.10294927333E+02 0.11683151906E+02 0.12736967519E+02
 0.13405892729E+02 0.13697721451E+02 0.13674856360E+02 0.13440333766E+02 0.13116786803E+02
 0.12822254970E+02 0.12610354276E+02 0.12462113495E+02 0.12358001332E+02 0.12285300756E+02
 0.12236787405E+02 0.12207667221E+02 0.12193051042E+02 0.12187448182E+02 0.12186197608E+02
 0.12187446992E+02 0.12193048893E+02 0.12207664982E+02 0.12236786601E+02 0.12285302638E+02
 0.12358005642E+02 0.12462118279E+02 0.12610357269E+02 0.12822255308E+02 0.13116785357E+02
 0.13440331934E+02 0.13674854890E+02 0.13697720475E+02 0.13405892419E+02 0.12736968104E+02
 0.11683153079E+02 0.10294928171E+02 0.86737331217E+01 0.69558814658E+01 0.52921271843E+01
 0.38278618656E+01 0.26875954105E+01 0.19649937171E+01 0.17176648880E+01 0.19649935742E+01
 0.47936636796E+01 0.59228488527E+01 0.72942115880E+01 0.87948278254E+01 0.10294927333E+02
 0.11663702248E+02 0.12789166549E+02 0.13597410866E+02 0.14065967802E+02 0.14227272560E+02
 0.14160819382E+02 0.13975670244E+02 0.13787522427E+02 0.13672910469E+02 0.13621053862E+02
 0.13609001131E+02 0.13620087818E+02 0.13643977927E+02 0.13674187587E+02 0.13705186506E+02
 0.13730965579E+02 0.13745704941E+02 0.13745703899E+02 0.13730962403E+02 0.13705181692E+02
 0.13674183016E+02 0.13643976194E+02 0.13620090189E+02 0.13609006271E+02 0.13621058817E+02
 0.13672912958E+02 0.13787522163E+02 0.13975668383E+02 0.14160817217E+02 0.14227270832E+02
 0.14065966796E+02 0.13597410587E+02 0.12789166743E+02 0.11663702530E+02 0.10294927473E+02
 0.87948278502E+01 0.72942115704E+01 0.59228487222E+01 0.47936633476E+01 0.39933763205E+01
 0.35792047742E+01 0.35792049636E+01 0.39933767291E+01 0.68394674507E+01 0.78969339437E+01
 0.91261065349E+01 0.10425913407E+02 0.11683151906E+02 0.12789166549E+02 0.13659217546E+02
 0.14249278578E+02 0.14565228920E+02 0.14661320112E+02 0.14627749272E+02 0.14570279438E+02
 0.14575095079E+02 0.14642883729E+02 0.14748006408E+02 0.14869805640E+02 0.14993976787E+02
 0.15111060481E+02 0.15213736296E+02 0.15294847213E+02 0.15347277197E+02 0.15365463583E+02
 0.15347275586E+02 0.15294843507E+02 0.15213730853E+02 0.15111055216E+02 0.14993974114E+02
 0.14869806672E+02 0.14748010132E+02 0.14642887741E+02 0.14575097201E+02 0.14570279067E+02
 0.14627747454E+02 0.14661318302E+02 0.14565227715E+02 0.14249277737E+02 0.13659216925E+02
 0.12789166466E+02 0.11683152503E+02 0.10425914130E+02 0.91261065879E+01 0.78969330779E+01
 0.68394660989E+01 0.60323255640E+01 0.55285357414E+01 0.53575148143E+01 0.55285364162E+01
 0.60323267762E+01 0.86337059094E+01 0.95797083771E+01 0.10639003421E+02 0.11722967335E+02
 0.12736967519E+02 0.13597410866E+02 0.14249278578E+02 0.14678879476E+02 0.14917610309E+02
 0.15034958837E+02 0.15122122504E+02 0.15263847579E+02 0.15470199853E+02 0.15714031914E+02
 0.15971107648E+02 0.16222741730E+02 0.16455352284E+02 0.16658402838E+02 0.16822420196E+02
 0.16938362869E+02 0.16998580739E+02 0.16998581095E+02 0.16938362718E+02 0.16822417549E+02
 0.16658397661E+02 0.16455346821E+02 0.16222738430E+02 0.15971107430E+02 0.15714034088E+02
 0.15470202776E+02 0.15263849416E+02 0.15122122313E+02 0.15034957291E+02 0.14917608868E+02
 0.14678878714E+02 0.14249277944E+02 0.13597410141E+02 0.12736967462E+02 0.11722968279E+02
 0.10639004138E+02 0.95797074462E+01 0.86337037856E+01 0.78716254481E+01 0.73414812674E+01
 0.70705755510E+01 0.70705752955E+01 0.73414813463E+01 0.78716269259E+01 0.10034045680E+02
 0.10849899926E+02 0.11733259792E+02 0.12609671130E+02 0.13405892729E+02 0.14065967802E+02
 0.14565228920E+02 0.14917610309E+02 0.15173406208E+02 0.15407400537E+02 0.15696007514E+02
 0.16053034015E+02 0.16450879252E+02 0.16862528342E+02 0.17265054435E+02 0.17640037710E+02
 0.17972360918E+02 0.18248473068E+02 0.18453510348E+02 0.18578118401E+02 0.18619754890E+02
 0.18578119909E+02 0.18453511418E+02 0.18248472020E+02 0.17972357950E+02 0.17640034309E+02
 0.17265051944E+02 0.16862527422E+02 0.16450879936E+02 0.16053035548E+02 0.15696008536E+02
 0.15407400186E+02 0.15173404981E+02 0.14917609287E+02 0.14565228322E+02 0.14065966993E+02
 0.13405891609E+02 0.12609670603E+02 0.11733260481E+02 0.10849901115E+02 0.10034046126E+02
 0.93481116682E+01 0.88355328253E+01 0.85209253727E+01 0.84151250182E+01 0.85209259445E+01
 0.88355337641E+01 0.93481122716E+01 0.10961750660E+02 0.11648063659E+02 0.12369813652E+02
 0.13069423185E+02 0.13697721451E+02 0.14227272560E+02 0.14661320112E+02 0.15034958837E+02
 0.15407400537E+02 0.15843337060E+02 0.16354328616E+02 0.16912944843E+02 0.17490461341E+02
 0.18060396330E+02 0.18599414594E+02 0.19086634745E+02 0.19495326075E+02 0.19802624796E+02
 0.20003574497E+02 0.20101976924E+02 0.20101978346E+02 0.20003577643E+02 0.19802627693E+02
 0.19495327883E+02 0.19086635566E+02 0.18599414270E+02 0.18060394773E+02 0.17490459578E+02
 0.16912944277E+02 0.16354329231E+02 0.15843337479E+02 0.15407399976E+02 0.15034957935E+02
 0.14661319548E+02 0.14227271912E+02 0.13697720115E+02 0.13069421753E+02 0.12369813498E+02
 0.11648065240E+02 0.10961752795E+02 0.10363641201E+02 0.98926855150E+01 0.95714856968E+01
 0.94096124963E+01 0.94096132741E+01 0.95714872747E+01 0.98926862996E+01 0.10363640218E+02
 0.11405244029E+02 0.11979102689E+02 0.12571588424E+02 0.13144801355E+02 0.13674856360E+02
 0.14160819382E+02 0.14627749272E+02 0.15122122504E+02 0.15696007514E+02 0.16354328616E+02
 0.17070423471E+02 0.17815064373E+02 0.18559340704E+02 0.19275628137E+02 0.19933992773E+02
 0.20487770671E+02 0.20908752748E+02 0.21195232793E+02 0.21358687942E+02 0.21411486067E+02
 0.21358691749E+02 0.21195237909E+02 0.20908757294E+02 0.20487774778E+02 0.19933996571E+02
 0.19275630296E+02 0.18559340233E+02 0.17815062592E+02 0.17070422619E+02 0.16354329086E+02
 0.15696007857E+02 0.15122121884E+02 0.14627748447E+02 0.14160819117E+02 0.13674856205E+02
 0.13144800653E+02 0.12571587579E+02 0.11979102597E+02 0.11405244700E+02 0.10890534756E+02
 0.10468268745E+02 0.10159361067E+02 0.99728997235E+01 0.99107818936E+01 0.99729002737E+01
 0.10159361769E+02 0.10468268958E+02 0.10890534217E+02 0.11412773900E+02 0.11904581814E+02
 0.12414775093E+02 0.12926717455E+02 0.13440333766E+02 0.13975670244E+02 0.14570279438E+02
 0.15263847579E+02 0.16053034015E+02 0.16912944843E+02 0.17815064373E+02 0.18729429324E+02
 0.19625354852E+02 0.20462403398E+02 0.21174249112E+02 0.21723231706E+02 0.22106930624E+02
 0.22343131879E+02 0.22454047399E+02 0.22454049411E+02 0.22343136603E+02 0.22106935832E+02
 0.21723236852E+02 0.21174254986E+02 0.20462409506E+02 0.19625358824E+02 0.18729429714E+02
 0.17815062835E+02 0.16912944222E+02 0.16053034886E+02 0.15263848149E+02 0.14570278648E+02
 0.13975669255E+02 0.13440333893E+02 0.12926718119E+02 0.12414774886E+02 0.11904580670E+02
 0.11412773007E+02 0.10964714765E+02 0.10585561622E+02 0.10293565145E+02 0.10097785803E+02
 0.10000233566E+02 0.10000233930E+02 0.10097786505E+02 0.10293565461E+02 0.10585561415E+02
 0.10964714791E+02 0.11077052266E+02 0.11527337789E+02 0.12012356712E+02 0.12535859168E+02
 0.13116786803E+02 0.13787522427E+02 0.14575095079E+02 0.15470199853E+02 0.16450879252E+02
 0.17490461341E+02 0.18559340704E+02 0.19625354852E+02 0.20641792410E+02 0.21524361138E+02
 0.22219636191E+02 0.22718242925E+02 0.23040005673E+02 0.23215723974E+02 0.23271037529E+02
 0.23215727018E+02 0.23040009713E+02 0.22718247104E+02 0.22219641907E+02 0.21524368955E+02
 0.20641799705E+02 0.19625358286E+02 0.18559340267E+02 0.17490460223E+02 0.16450879831E+02
 0.15470201375E+02 0.14575095597E+02 0.13787521557E+02 0.13116785675E+02 0.12535858611E+02
 0.12012356659E+02 0.11527338101E+02 0.11077053055E+02 0.10669773541E+02 0.10319539699E+02
 0.10039593834E+02 0.98381424561E+01 0.97177745636E+01 0.96778763310E+01 0.97177756357E+01
 0.98381438272E+01 0.10039594502E+02 0.10319539263E+02 0.10669772530E+02 0.10516295850E+02
 0.10972277910E+02 0.11493640567E+02 0.12100531948E+02 0.12822254970E+02 0.13672910469E+02
 0.14642883729E+02 0.15714031914E+02 0.16862528342E+02 0.18060396330E+02 0.19275628137E+02
 0.20462403398E+02 0.21524361138E+02 0.22386165045E+02 0.23023832609E+02 0.23452390651E+02
 0.23706877363E+02 0.23823170299E+02 0.23823171744E+02 0.23706880160E+02 0.23452392973E+02
 0.23023835812E+02 0.22386171509E+02 0.21524369588E+02 0.20462409357E+02 0.19275629278E+02
 0.18060395044E+02 0.16862528314E+02 0.15714033990E+02 0.14642886112E+02 0.13672911456E+02
 0.12822254250E+02 0.12100530175E+02 0.11493638995E+02 0.10972277998E+02 0.10516298031E+02
 0.10117187268E+02 0.97756944960E+01 0.94971267434E+01 0.92866766382E+01 0.91468000024E+01
 0.90773267866E+01 0.90773271572E+01 0.91468011814E+01 0.92866782366E+01 0.94971274182E+01
 0.97756930940E+01 0.10117184431E+02 0.98557851573E+01 0.10367100110E+02 0.10983692296E+02
 0.11729450458E+02 0.12610354276E+02 0.13621053862E+02 0.14748006408E+02 0.15971107648E+02
 0.17265054435E+02 0.18599414594E+02 0.19933992773E+02 0.21174249112E+02 0.22219636191E+02
 0.23023832609E+02 0.23588550741E+02 0.23945951061E+02 0.24137906514E+02 0.24197718337E+02
 0.24137906353E+02 0.23945950782E+02 0.23588551525E+02 0.23023836391E+02 0.22219643160E+02
 0.21174256279E+02 0.19933996320E+02 0.18599413829E+02 0.17265052583E+02 0.15971108367E+02
 0.14748010158E+02 0.13621058073E+02 0.12610356388E+02 0.11729450023E+02 0.10983690527E+02
 0.10367098464E+02 0.98557846077E+01 0.94276642404E+01 0.90700657853E+01 0.87781257069E+01
 0.85513026580E+01 0.83900147722E+01 0.82939141524E+01 0.82620491365E+01 0.82939151866E+01
 0.83900157893E+01 0.85513025358E+01 0.87781243055E+01 0.90700640634E+01 0.94276633866E+01
 0.92124146066E+01 0.98235642881E+01 0.10565185114E+02 0.11444744863E+02 0.12462113495E+02
 0.13609001131E+02 0.14869805640E+02 0.16222741730E+02 0.17640037710E+02 0.19086634745E+02
 0.20487770671E+02 0.21723231706E+02 0.22718242925E+02 0.23452390651E+02 0.23945951061E+02
 0.24239642440E+02 0.24374152975E+02 0.24374151189E+02 0.24239638792E+02 0.23945949037E+02
 0.23452392541E+02 0.22718248463E+02 0.21723238541E+02 0.20487775527E+02 0.19086635292E+02
 0.17640034760E+02 0.16222739240E+02 0.14869807243E+02 0.13609006535E+02 0.12462119075E+02
 0.11444747556E+02 0.10565184708E+02 0.98235621794E+01 0.92124119898E+01 0.87165419964E+01
 0.83144090781E+01 0.79906212196E+01 0.77368359994E+01 0.75490868707E+01 0.74252595897E+01
 0.73638262391E+01 0.73638270281E+01 0.74252607282E+01 0.75490863839E+01 0.77368339017E+01
 0.79906195463E+01 0.83144094319E+01 0.87165440902E+01 0.86685578011E+01 0.93817262847E+01
 0.10232288469E+02 0.11225258361E+02 0.12358001332E+02 0.13620087818E+02 0.14993976787E+02
 0.16455352284E+02 0.17972360918E+02 0.19495326075E+02 0.20908752748E+02 0.22106930624E+02
 0.23040005673E+02 0.23706877363E+02 0.24137906514E+02 0.24374152975E+02 0.24448727380E+02
 0.24374149900E+02 0.24137903030E+02 0.23706876847E+02 0.23040009656E+02 0.22106937454E+02
 0.20908758543E+02 0.19495327479E+02 0.17972357695E+02 0.16455347573E+02 0.14993974613E+02
 0.13620089932E+02 0.12358006167E+02 0.11225262803E+02 0.10232290434E+02 0.93817257425E+01
 0.86685559741E+01 0.80817591213E+01 0.76071239537E+01 0.72297587648E+01 0.69349706653E+01
 0.67127277310E+01 0.65573030803E+01 0.64653438487E+01 0.64349127519E+01 0.64653441877E+01
 0.65573031475E+01 0.67127271676E+01 0.69349699149E+01 0.72297586498E+01 0.76071249190E+01
 0.80817609349E+01 0.82238805563E+01 0.90236536195E+01 0.99664319658E+01 0.11055240406E+02
 0.12285300756E+02 0.13643977927E+02 0.15111060481E+02 0.16658402838E+02 0.18248473068E+02
 0.19802624796E+02 0.21195232793E+02 0.22343131879E+02 0.23215723974E+02 0.23823170299E+02
 0.24197718337E+02 0.24374151189E+02 0.24374149900E+02 0.24197715404E+02 0.23823168305E+02
 0.23215725761E+02 0.22343137920E+02 0.21195239857E+02 0.19802628243E+02 0.18248470941E+02
 0.16658397353E+02 0.15111055560E+02 0.13643975940E+02 0.12285301682E+02 0.11055242983E+02
 0.99664347380E+01 0.90236553783E+01 0.82238808485E+01 0.75575400328E+01 0.70110429210E+01
 0.65698051249E+01 0.62206876927E+01 0.59531724350E+01 0.57593487147E+01 0.56333167644E+01
 0.55712329135E+01 0.55712327948E+01 0.56333167137E+01 0.57593490995E+01 0.59531730136E+01
 0.62206880240E+01 0.65698053386E+01 0.70110434381E+01 0.75575406141E+01 0.78608698012E+01
 0.87343799399E+01 0.97555588155E+01 0.10925418333E+02 0.12236787405E+02 0.13674187587E+02
 0.15213736296E+02 0.16822420196E+02 0.18453510348E+02 0.20003574497E+02 0.21358687942E+02
 0.22454047399E+02 0.23271037529E+02 0.23823171744E+02 0.24137906353E+02 0.24239638792E+02
 0.24137903030E+02 0.23823168305E+02 0.23271037547E+02 0.22454051904E+02 0.21358694799E+02
 0.20003580004E+02 0.18453511570E+02 0.16822416701E+02 0.15213730370E+02 0.13674182618E+02
 0.12236785507E+02 0.10925419209E+02 0.97555607081E+01 0.87343813614E+01 0.78608703194E+01
 0.71268640200E+01 0.65193236253E+01 0.60233634147E+01 0.56250165058E+01 0.53128711681E+01
 0.50783808646E+01 0.49153544758E+01 0.48193917224E+01 0.47877255605E+01 0.48193921852E+01
 0.49153549915E+01 0.50783810756E+01 0.53128711258E+01 0.56250165218E+01 0.60233636619E+01
 0.65193239736E+01 0.71268641402E+01 0.75680187491E+01 0.85049889466E+01 0.95929782800E+01
 0.10830579874E+02 0.12207667221E+02 0.13705186506E+02 0.15294847213E+02 0.16938362869E+02
 0.18578118401E+02 0.20101976924E+02 0.21411486067E+02 0.22454049411E+02 0.23215727018E+02
 0.23706880160E+02 0.23945950782E+02 0.23945949037E+02 0.23706876847E+02 0.23215725761E+02
 0.22454051904E+02 0.21411491177E+02 0.20101982353E+02 0.18578121959E+02 0.16938362818E+02
 0.15294843297E+02 0.13705181044E+02 0.12207663719E+02 0.10830579714E+02 0.95929795697E+01
 0.85049891922E+01 0.75680177069E+01 0.67756346473E+01 0.61156129499E+01 0.55728975255E+01
 0.51326220384E+01 0.47822093593E+01 0.45120996745E+01 0.43153888466E+01 0.41871217630E+01
 0.41238911310E+01 0.41238916589E+01 0.41871226062E+01 0.43153889052E+01 0.45120990130E+01
 0.47822087702E+01 0.51326217101E+01 0.55728972021E+01 0.61156129771E+01 0.67756355401E+01
 0.73386532930E+01 0.83303356474E+01 0.94743931322E+01 0.10766495183E+02 0.12193051042E+02
 0.13730965579E+02 0.15347277197E+02 0.16998580739E+02 0.18619754890E+02 0.20101978346E+02
 0.21358691749E+02 0.22343136603E+02 0.23040009713E+02 0.23452392973E+02 0.23588551525E+02
 0.23452392541E+02 0.23040009656E+02 0.22343137920E+02 0.21358694799E+02 0.20101982353E+02
 0.18619758213E+02 0.16998581860E+02 0.15347275769E+02 0.13730962680E+02 0.12193048323E+02
 0.10766493629E+02 0.94743925622E+01 0.83303353088E+01 0.73386527668E+01 0.64951629410E+01
 0.57889720169E+01 0.52052978104E+01 0.47286189075E+01 0.43451805008E+01 0.40441983694E+01
 0.38177893045E+01 0.36602584027E+01 0.35674999007E+01 0.35368882570E+01 0.35675003009E+01
 0.36602587766E+01 0.38177892294E+01 0.40441977778E+01 0.43451796399E+01 0.47286181194E+01
 0.52052973997E+01 0.57889721427E+01 0.64951634619E+01 0.71682182497E+01 0.82061887531E+01
 0.93953998692E+01 0.10728255334E+02 0.12187448182E+02 0.13745704941E+02 0.15365463583E+02
 0.16998581095E+02 0.18578119909E+02 0.20003577643E+02 0.21195237909E+02 0.22106935832E+02
 0.22718247104E+02 0.23023835812E+02 0.23023836391E+02 0.22718248463E+02 0.22106937454E+02
 0.21195239857E+02 0.20003580004E+02 0.18578121959E+02 0.16998581860E+02 0.15365463128E+02
 0.13745704254E+02 0.12187447732E+02 0.10728254620E+02 0.93953986598E+01 0.82061878493E+01
 0.71682183755E+01 0.62800118329E+01 0.55325774302E+01 0.49120170874E+01 0.44026663399E+01
 0.39898776036E+01 0.36616738386E+01 0.34090651406E+01 0.32254712742E+01 0.31060105871E+01
 0.30472156951E+01 0.30472156349E+01 0.31060106633E+01 0.32254716448E+01 0.34090652634E+01
 0.36616732432E+01 0.39898768144E+01 0.44026661862E+01 0.49120173860E+01 0.55325772936E+01
 0.62800112050E+01 0.70521075335E+01 0.81277316071E+01 0.93509517092E+01 0.10710797645E+02
 0.12186197608E+02 0.13745703899E+02 0.15347275586E+02 0.16938362718E+02 0.18453511418E+02
 0.19802627693E+02 0.20908757294E+02 0.21723236852E+02 0.22219641907E+02 0.22386171509E+02
 0.22219643160E+02 0.21723238541E+02 0.20908758543E+02 0.19802628243E+02 0.18453511570E+02
 0.16938362818E+02 0.15347275769E+02 0.13745704254E+02 0.12186198306E+02 0.10710798725E+02
 0.93509528420E+01 0.81277322859E+01 0.70521075154E+01 0.61255412219E+01 0.53413629591E+01
 0.46871293744E+01 0.41476406415E+01 0.37078478989E+01 0.33548543831E+01 0.30786286437E+01
 0.28716668022E+01 0.27282777064E+01 0.26441506699E+01 0.26164451175E+01 0.26441507409E+01
 0.27282777962E+01 0.28716668534E+01 0.30786286487E+01 0.33548543930E+01 0.37078479883E+01
 0.41476408847E+01 0.46871298270E+01 0.53413635730E+01 0.61255417356E+01 0.69852867507E+01
 0.80900892417E+01 0.93367130249E+01 0.10710797194E+02 0.12187446992E+02 0.13730962403E+02
 0.15294843507E+02 0.16822417549E+02 0.18248472020E+02 0.19495327883E+02 0.20487774778E+02
 0.21174254986E+02 0.21524368955E+02 0.21524369588E+02 0.21174256279E+02 0.20487775527E+02
 0.19495327479E+02 0.18248470941E+02 0.16822416701E+02 0.15294843297E+02 0.13730962680E+02
 0.12187447732E+02 0.10710798725E+02 0.93367153029E+01 0.80900912931E+01 0.69852873882E+01
 0.60267559746E+01 0.52103361193E+01 0.45254209621E+01 0.39577978826E+01 0.34925491899E+01
 0.31162681478E+01 0.28181114685E+01 0.25897423404E+01 0.24247023211E+01 0.23178868382E+01
 0.22655167105E+01 0.22655168570E+01 0.23178870401E+01 0.24247023048E+01 0.25897423260E+01
 0.28181118096E+01 0.31162686772E+01 0.34925494704E+01 0.39577980416E+01 0.45254216486E+01
 0.52103374126E+01 0.60267568558E+01 0.69635636760E+01 0.80900905411E+01 0.93509524689E+01
 0.10728254787E+02 0.12193048893E+02 0.13705181692E+02 0.15213730853E+02 0.16658397661E+02
 0.17972357950E+02 0.19086635566E+02 0.19933996571E+02 0.20462409506E+02 0.20641799705E+02
 0.20462409357E+02 0.19933996320E+02 0.19086635292E+02 0.17972357695E+02 0.16658397353E+02
 0.15213730370E+02 0.13705181044E+02 0.12193048323E+02 0.10728254620E+02 0.93509528420E+01
 0.80900912931E+01 0.69635644895E+01 0.59788722853E+01 0.51344315776E+01 0.44216583586E+01
 0.38276679128E+01 0.33381069886E+01 0.29394692906E+01 0.26203977398E+01 0.23718983031E+01
 0.21868560025E+01 0.20594772688E+01 0.19851416124E+01 0.19607345768E+01 0.19851417669E+01
 0.20594775031E+01 0.21868562278E+01 0.23718984887E+01 0.26203979278E+01 0.29394695315E+01
 0.33381072613E+01 0.38276681124E+01 0.44216583545E+01 0.51344312763E+01 0.59788716721E+01
 0.69852871617E+01 0.81277336557E+01 0.93954009278E+01 0.10766495698E+02 0.12207664982E+02
 0.13674183016E+02 0.15111055216E+02 0.16455346821E+02 0.17640034309E+02 0.18599414270E+02
 0.19275630296E+02 0.19625358824E+02 0.19625358286E+02 0.19275629278E+02 0.18599413829E+02
 0.17640034760E+02 0.16455347573E+02 0.15111055560E+02 0.13674182618E+02 0.12207663719E+02
 0.10766493629E+02 0.93953986598E+01 0.81277322859E+01 0.69852873882E+01 0.59788722853E+01
 0.51096433649E+01 0.43711839075E+01 0.37521449261E+01 0.32390257035E+01 0.28185355999E+01
 0.24790710785E+01 0.22111651002E+01 0.20071751169E+01 0.18607473711E+01 0.17665668481E+01
 0.17205930635E+01 0.17205931223E+01 0.17665669620E+01 0.18607474385E+01 0.20071751076E+01
 0.22111650329E+01 0.24790709856E+01 0.28185355672E+01 0.32390257805E+01 0.37521448725E+01
 0.43711832393E+01 0.51096419637E+01 0.59788708992E+01 0.70521079195E+01 0.82061889195E+01
 0.94743941259E+01 0.10830581315E+02 0.12236786601E+02 0.13643976194E+02 0.14993974114E+02
 0.16222738430E+02 0.17265051944E+02 0.18060394773E+02 0.18559340233E+02 0.18729429714E+02
 0.18559340267E+02 0.18060395044E+02 0.17265052583E+02 0.16222739240E+02 0.14993974613E+02
 0.13643975940E+02 0.12236785507E+02 0.10830579714E+02 0.94743925622E+01 0.82061878493E+01
 0.70521075154E+01 0.60267559746E+01 0.51344315776E+01 0.43711839075E+01 0.37274409447E+01
 0.31907837255E+01 0.27483593744E+01 0.23885040861E+01 0.21014061603E+01 0.18789842713E+01
 0.17144244939E+01 0.16018647692E+01 0.15365082280E+01 0.15151088954E+01 0.15365081617E+01
 0.16018645809E+01 0.17144241454E+01 0.18789838242E+01 0.21014057774E+01 0.23885039196E+01
 0.27483594287E+01 0.31907838327E+01 0.37274408944E+01 0.43711836267E+01 0.51344312156E+01
 0.60267558412E+01 0.71682181737E+01 0.83303344710E+01 0.95929792965E+01 0.10925419935E+02
 0.12285302638E+02 0.13620090189E+02 0.14869806672E+02 0.15971107430E+02 0.16862527422E+02
 0.17490459578E+02 0.17815062592E+02 0.17815062835E+02 0.17490460223E+02 0.16862528314E+02
 0.15971108367E+02 0.14869807243E+02 0.13620089932E+02 0.12285301682E+02 0.10925419209E+02
 0.95929795697E+01 0.83303353088E+01 0.71682183755E+01 0.61255412219E+01 0.52103361193E+01
 0.44216583586E+01 0.37521449261E+01 0.31907837255E+01 0.27253928492E+01 0.23443950821E+01
 0.20376998857E+01 0.17968018525E+01 0.16144503127E+01 0.14843266157E+01 0.14010434791E+01
 0.13605190957E+01 0.13605189832E+01 0.14010432747E+01 0.14843264304E+01 0.16144499719E+01
 0.17968012803E+01 0.20376994718E+01 0.23443952064E+01 0.27253932328E+01 0.31907838070E+01
 0.37521448207E+01 0.44216587909E+01 0.52103372339E+01 0.61255420978E+01 0.73386526521E+01
 0.85049887768E+01 0.97555600756E+01 0.11055242309E+02 0.12358005642E+02 0.13609006271E+02
 0.14748010132E+02 0.15714034088E+02 0.16450879936E+02 0.16912944277E+02 0.17070422619E+02
 0.16912944222E+02 0.16450879831E+02 0.15714033990E+02 0.14748010158E+02 0.13609006535E+02
 0.12358006167E+02 0.11055242983E+02 0.97555607081E+01 0.85049891922E+01 0.73386527668E+01
 0.62800118329E+01 0.53413629591E+01 0.45254209621E+01 0.38276679128E+01 0.32390257035E+01
 0.27483593744E+01 0.23443950821E+01 0.20168363570E+01 0.17567239296E+01 0.15563088798E+01
 0.14088062668E+01 0.13083333904E+01 0.12501529139E+01 0.12311276206E+01 0.12501529439E+01
 0.13083334385E+01 0.14088063115E+01 0.15563088966E+01 0.17567239020E+01 0.20168362867E+01
 0.23443949960E+01 0.27483593251E+01 0.32390257534E+01 0.38276680991E+01 0.45254212566E+01
 0.53413632564E+01 0.62800119853E+01 0.75680177034E+01 0.87343808770E+01 0.99664332943E+01
 0.11225261048E+02 0.12462118279E+02 0.13621058817E+02 0.14642887741E+02 0.15470202776E+02
 0.16053035548E+02 0.16354329231E+02 0.16354329086E+02 0.16053034886E+02 0.15470201375E+02
 0.14642886112E+02 0.13621058073E+02 0.12462119075E+02 0.11225262803E+02 0.99664347380E+01
 0.87343813614E+01 0.75680177069E+01 0.64951629410E+01 0.55325774302E+01 0.46871293744E+01
 0.39577978826E+01 0.33381069886E+01 0.28185355999E+01 0.23885040861E+01 0.20376998857E+01
 0.17567239296E+01 0.15372370443E+01 0.13718875753E+01 0.12542800053E+01 0.11791268892E+01
 0.11425748207E+01 0.11425749052E+01 0.11791270625E+01 0.12542802015E+01 0.13718878981E+01
 0.15372375127E+01 0.17567242241E+01 0.20376996800E+01 0.23885035914E+01 0.28185354183E+01
 0.33381073194E+01 0.39577982082E+01 0.46871291671E+01 0.55325768952E+01 0.64951626713E+01
 0.78608685601E+01 0.90236536149E+01 0.10232289302E+02 0.11444747441E+02 0.12610357269E+02
 0.13672912958E+02 0.14575097201E+02 0.15263849416E+02 0.15696008536E+02 0.15843337479E+02
 0.15696007857E+02 0.15263848149E+02 0.14575095597E+02 0.13672911456E+02 0.12610356388E+02
 0.11444747556E+02 0.10232290434E+02 0.90236553783E+01 0.78608703194E+01 0.67756346473E+01
 0.57889720169E+01 0.49120170874E+01 0.41476406415E+01 0.34925491899E+01 0.29394692906E+01
 0.24790710785E+01 0.21014061603E+01 0.17968018525E+01 0.15563088798E+01 0.13718875753E+01
 0.12365174322E+01 0.11443486026E+01 0.10909253529E+01 0.10734382840E+01 0.10909253724E+01
 0.11443487138E+01 0.12365176848E+01 0.13718879112E+01 0.15563091488E+01 0.17968019237E+01
 0.21014060431E+01 0.24790709564E+01 0.29394694159E+01 0.34925496796E+01 0.41476413156E+01
 0.49120175054E+01 0.57889717265E+01 0.67756334870E+01 0.82238793320E+01 0.93817248691E+01
 0.10565185053E+02 0.11729451164E+02 0.12822255308E+02 0.13787522163E+02 0.14570279067E+02
 0.15122122313E+02 0.15407400186E+02 0.15407399976E+02 0.15122121884E+02 0.14570278648E+02
 0.13787521557E+02 0.12822254250E+02 0.11729450023E+02 0.10565184708E+02 0.93817257425E+01
 0.82238808485E+01 0.71268640200E+01 0.61156129499E+01 0.52052978104E+01 0.44026663399E+01
 0.37078478989E+01 0.31162681478E+01 0.26203977398E+01 0.22111651002E+01 0.18789842713E+01
 0.16144503127E+01 0.14088062668E+01 0.12542800053E+01 0.11443486026E+01 0.10739472695E+01
 0.10396213450E+01 0.10396213274E+01 0.10739472315E+01 0.11443485916E+01 0.12542800632E+01
 0.14088063522E+01 0.16144503290E+01 0.18789842261E+01 0.22111651598E+01 0.26203980450E+01
 0.31162686457E+01 0.37078484365E+01 0.44026668073E+01 0.52052980321E+01 0.61156125707E+01
 0.71268628391E+01 0.86685568325E+01 0.98235632981E+01 0.10983691498E+02 0.12100530589E+02
 0.13116785357E+02 0.13975668383E+02 0.14627747454E+02 0.15034957291E+02 0.15173404981E+02
 0.15034957935E+02 0.14627748447E+02 0.13975669255E+02 0.13116785675E+02 0.12100530175E+02
 0.10983690527E+02 0.98235621794E+01 0.86685559741E+01 0.75575400328E+01 0.65193236253E+01
 0.55728975255E+01 0.47286189075E+01 0.39898776036E+01 0.33548543831E+01 0.28181114685E+01
 0.23718983031E+01 0.20071751169E+01 0.17144244939E+01 0.14843266157E+01 0.13083333904E+01
 0.11791268892E+01 0.10909253529E+01 0.10396213450E+01 0.10227866717E+01 0.10396213054E+01
 0.10909252754E+01 0.11791267783E+01 0.13083332586E+01 0.14843264894E+01 0.17144244105E+01
 0.20071751084E+01 0.23718983712E+01 0.28181115702E+01 0.33548544421E+01 0.39898775509E+01
 0.47286187379E+01 0.55728973426E+01 0.65193236314E+01 0.75575404352E+01 0.92124140594E+01
 0.10367100319E+02 0.11493639515E+02 0.12535857544E+02 0.13440331934E+02 0.14160817217E+02
 0.14661318302E+02 0.14917608868E+02 0.14917609287E+02 0.14661319548E+02 0.14160819117E+02
 0.13440333893E+02 0.12535858611E+02 0.11493638995E+02 0.10367098464E+02 0.92124119898E+01
 0.80817591213E+01 0.70110429210E+01 0.60233634147E+01 0.51326220384E+01 0.43451805008E+01
 0.36616738386E+01 0.30786286437E+01 0.25897423404E+01 0.21868560025E+01 0.18607473711E+01
 0.16018647692E+01 0.14010434791E+01 0.12501529139E+01 0.11425748207E+01 0.10734382840E+01
 0.10396213274E+01 0.10396213054E+01 0.10734382382E+01 0.11425747336E+01 0.12501527029E+01
 0.14010431842E+01 0.16018646271E+01 0.18607474967E+01 0.21868561019E+01 0.25897420151E+01
 0.30786279643E+01 0.36616733209E+01 0.43451804393E+01 0.51326221785E+01 0.60233634992E+01