    2    2  100    1
  0.2254527E+02  0.3995153E-09  0.3995153E-09  0.3995153E-09  0.5000000E-15
  1.000000000000000E-004
  CAR 
 Name                                    
      8     16      8
 
  0.0000000E+00  0.0000000E+00  0.0000000E+00  0.4629630E-02
    1      -10.009609
    2        2.302768
    3        2.302768
    4        2.302769
    5        2.453666
    6        6.039819
    7        6.039819
    8        6.039819
 
  0.1666667E+00  0.0000000E+00  0.0000000E+00  0.3703704E-01
    1       -9.735107
    2       -0.392703
    3        1.955445
    4        1.955445
    5        3.740387
    6        6.550809
    7        6.550809
    8        6.839949
 
  0.3333333E+00  0.0000000E+00  0.0000000E+00  0.3703704E-01
    1       -9.026846
    2       -2.875788
    3        1.450036
    4        1.450036
    5        3.387835
    6        6.972252
    7        6.972252
    8        9.288512
 
  0.5000000E+00  0.0000000E+00  0.0000000E+00  0.1851852E-01
    1       -8.514292
    2       -4.013170
    3        1.249881
    4        1.249881
    5        3.179808
    6        6.933454
    7        6.933454
    8        9.994895
 
  0.1666667E+00  0.1666667E+00  0.0000000E+00  0.2777778E-01
    1       -9.641515
    2       -0.442939
    3        1.376136
    4        1.376136
    5        4.719085
    6        5.281384
    7        7.480058
    8        7.480058
 
  0.3333333E+00  0.1666667E+00  0.0000000E+00  0.1111111E+00
    1       -9.062228
    2       -2.322735
    3        0.570567
    4        0.858786
    5        4.728152
    6        5.952300
    7        7.917624
    8        8.252370
 
  0.5000000E+00  0.1666667E+00  0.0000000E+00  0.1111111E+00
    1       -8.392710
    2       -3.808369
    3       -0.166410
    4        0.791928
    5        4.532689
    6        6.706369
    7        8.002789
    8        9.195790
 
 -0.3333333E+00  0.1666667E+00  0.0000000E+00  0.1111111E+00
    1       -8.580548
    2       -3.437693
    3       -0.341263
    4        1.196552
    5        4.633372
    6        6.997924
    7        7.558766
    8        9.208912
 
 -0.1666667E+00  0.1666667E+00  0.0000000E+00  0.5555556E-01
    1       -9.306359
    2       -1.742053
    3        0.374220
    4        1.817646
    5        4.679359
    6        6.714038
    7        6.841498
    8        7.846946
 
  0.3333333E+00  0.3333333E+00  0.0000000E+00  0.2777778E-01
    1       -8.657365
    2       -2.929576
    3        0.249330
    4        0.249330
    5        3.949126
    6        4.934233
    7       10.071835
    8       10.071836
 
  0.5000000E+00  0.3333333E+00  0.0000000E+00  0.1111111E+00
    1       -8.078423
    2       -3.870373
    3       -0.722381
    4        0.106494
    5        4.207240
    6        5.600266
    7        9.685596
    8       10.365944
 
 -0.3333333E+00  0.3333333E+00  0.0000000E+00  0.5555556E-01
    1       -8.036593
    2       -3.899335
    3       -1.371920
    4        0.498794
    5        4.548562
    6        7.951135
    7        9.293929
    8        9.553379
 
  0.5000000E+00  0.5000000E+00  0.0000000E+00  0.1388889E-01
    1       -7.864458
    2       -4.234647
    3       -0.170562
    4       -0.170562
    5        3.872395
    6        3.997238
    7       12.052976
    8       12.052976
 
  0.5000000E+00  0.3333333E+00  0.1666667E+00  0.1111111E+00
    1       -8.451861
    2       -3.320034
    3       -0.669286
    4        0.414425
    5        5.631882
    6        6.054715
    7        7.395248
    8        9.879579
 
 -0.3333333E+00  0.3333333E+00  0.1666667E+00  0.1111111E+00
    1       -8.036043
    2       -3.927230
    3       -1.094404
    4        0.040510
    5        5.760887
    6        6.655714
    7        8.316359
    8        9.555855
 
 -0.3333333E+00  0.5000000E+00  0.1666667E+00  0.5555556E-01
    1       -7.838160
    2       -4.107856
    3       -0.798361
    4       -0.641203
    5        5.587823
    6        5.671930
    7        9.209776
    8        9.528886
