PROCAR new format
# of k-points:   16         # of bands:   8         # of ions:   2

 k-point    1 :    0.00000000 0.00000000 0.00000000     weight = 0.00462963

band   1 # energy  -10.00960884 # occ.  2.00000000
 
ion      s      p      d    tot
  1  0.234  0.000  0.000  0.234
  2  0.428  0.000  0.000  0.428
tot  0.662  0.000  0.000  0.662
 
band   2 # energy    2.30276818 # occ.  2.00000000
 
ion      s      p      d    tot
  1  0.000  0.127  0.071  0.198
  2  0.000  0.454  0.005  0.459
tot  0.000  0.581  0.076  0.657
 
band   3 # energy    2.30276818 # occ.  2.00000000
 
ion      s      p      d    tot
  1  0.000  0.127  0.071  0.198
  2  0.000  0.454  0.005  0.459
tot  0.000  0.581  0.076  0.657
 
band   4 # energy    2.30276875 # occ.  2.00000000
 
ion      s      p      d    tot
  1  0.000  0.127  0.071  0.198
  2  0.000  0.454  0.005  0.459
tot  0.000  0.581  0.076  0.657
 
band   5 # energy    2.45366553 # occ.  0.00000000
 
ion      s      p      d    tot
  1  0.459  0.000  0.000  0.459
  2  0.345  0.000  0.000  0.345
tot  0.804  0.000  0.000  0.804
 
band   6 # energy    6.03981922 # occ.  0.00000000
 
ion      s      p      d    tot
  1  0.000  0.479  0.011  0.491
  2  0.000  0.038  0.063  0.101
tot  0.000  0.517  0.074  0.592
 
band   7 # energy    6.03981924 # occ.  0.00000000
 
ion      s      p      d    tot
  1  0.000  0.479  0.011  0.491
  2  0.000  0.038  0.063  0.101
tot  0.000  0.517  0.074  0.592
 
band   8 # energy    6.03981924 # occ.  0.00000000
 
ion      s      p      d    tot
  1  0.000  0.479  0.011  0.491
  2  0.000  0.038  0.063  0.101
tot  0.000  0.517  0.074  0.592
 

 k-point    2 :    0.16666667 0.00000000 0.00000000     weight = 0.03703704

band   1 # energy   -9.73510731 # occ.  2.00000000
 
ion      s      p      d    tot
  1  0.217  0.009  0.001  0.227
  2  0.439  0.002  0.000  0.441
tot  0.656  0.011  0.001  0.668
 
band   2 # energy   -0.39270286 # occ.  2.00000000
 
ion      s      p      d    tot
  1  0.229  0.097  0.028  0.354
  2  0.136  0.198  0.004  0.339
tot  0.365  0.295  0.033  0.693
 
band   3 # energy    1.95544452 # occ.  2.00000000
 
ion      s      p      d    tot
  1  0.000  0.170  0.056  0.225
  2  0.000  0.418  0.005  0.424
tot  0.000  0.588  0.061  0.649
 
band   4 # energy    1.95544500 # occ.  2.00000000
 
ion      s      p      d    tot
  1  0.000  0.170  0.056  0.225
  2  0.000  0.418  0.005  0.424
tot  0.000  0.588  0.061  0.649
 
band   5 # energy    3.74038717 # occ.  0.00000000
 
ion      s      p      d    tot
  1  0.259  0.120  0.010  0.388
  2  0.156  0.121  0.011  0.289
tot  0.415  0.241  0.021  0.677
 
band   6 # energy    6.55080882 # occ.  0.00000000
 
ion      s      p      d    tot
  1  0.000  0.435  0.026  0.461
  2  0.000  0.073  0.061  0.134
tot  0.000  0.508  0.087  0.595
 
band   7 # energy    6.55080884 # occ.  0.00000000
 
ion      s      p      d    tot
  1  0.000  0.435  0.026  0.461
  2  0.000  0.073  0.061  0.134
tot  0.000  0.508  0.087  0.595
 
band   8 # energy    6.83994855 # occ.  0.00000000
 
ion      s      p      d    tot
  1  0.054  0.244  0.036  0.334
  2  0.044  0.165  0.038  0.248
tot  0.098  0.409  0.075  0.582
 

 k-point    3 :    0.33333333 0.00000000 0.00000000     weight = 0.03703704

band   1 # energy   -9.02684569 # occ.  2.00000000
 
ion      s      p      d    tot
  1  0.164  0.031  0.005  0.200
  2  0.481  0.004  0.000  0.485
tot  0.645  0.035  0.005  0.685
 
band   2 # energy   -2.87578840 # occ.  2.00000000
 
ion      s      p      d    tot
  1  0.288  0.098  0.010  0.397
  2  0.087  0.163  0.003  0.253
tot  0.375  0.261  0.013  0.650
 
band   3 # energy    1.45003571 # occ.  2.00000000
 
ion      s      p      d    tot
  1  0.000  0.215  0.038  0.252
  2  0.000  0.387  0.004  0.391
tot  0.000  0.602  0.042  0.644
 
band   4 # energy    1.45003615 # occ.  2.00000000
 
ion      s      p      d    tot
  1  0.000  0.215  0.038  0.252
  2  0.000  0.387  0.004  0.391
tot  0.000  0.602  0.042  0.644
 
band   5 # energy    3.38783524 # occ.  0.00000000
 
ion      s      p      d    tot
  1  0.280  0.103  0.015  0.398
  2  0.138  0.060  0.020  0.219
tot  0.419  0.163  0.035  0.617
 
band   6 # energy    6.97225238 # occ.  0.00000000
 
ion      s      p      d    tot
  1  0.000  0.336  0.056  0.392
  2  0.000  0.078  0.064  0.142
tot  0.000  0.414  0.120  0.534
 
band   7 # energy    6.97225238 # occ.  0.00000000
 
ion      s      p      d    tot
  1  0.000  0.336  0.056  0.392
  2  0.000  0.078  0.064  0.142
tot  0.000  0.414  0.120  0.534
 
band   8 # energy    9.28851217 # occ.  0.00000000
 
ion      s      p      d    tot
  1  0.040  0.138  0.040  0.217
  2  0.039  0.276  0.016  0.331
tot  0.078  0.414  0.055  0.548
 

 k-point    4 :    0.50000000 0.00000000 0.00000000     weight = 0.01851852

band   1 # energy   -8.51429250 # occ.  2.00000000
 
ion      s      p      d    tot
  1  0.111  0.047  0.010  0.168
  2  0.535  0.001  0.001  0.537
tot  0.646  0.048  0.010  0.705
 
band   2 # energy   -4.01317011 # occ.  2.00000000
 
ion      s      p      d    tot
  1  0.344  0.089  0.000  0.433
  2  0.032  0.155  0.002  0.189
tot  0.376  0.244  0.002  0.622
 
band   3 # energy    1.24988068 # occ.  2.00000000
 
ion      s      p      d    tot
  1  0.000  0.230  0.031  0.261
  2  0.000  0.379  0.004  0.382
tot  0.000  0.608  0.035  0.643
 
band   4 # energy    1.24988110 # occ.  2.00000000
 
ion      s      p      d    tot
  1  0.000  0.230  0.031  0.261
  2  0.000  0.379  0.004  0.382
tot  0.000  0.608  0.035  0.643
 
band   5 # energy    3.17980846 # occ.  0.00000000
 
ion      s      p      d    tot
  1  0.293  0.082  0.020  0.395
  2  0.140  0.051  0.022  0.212
tot  0.433  0.133  0.041  0.607
 
band   6 # energy    6.93345389 # occ.  0.00000000
 
ion      s      p      d    tot
  1  0.000  0.286  0.071  0.357
  2  0.000  0.068  0.066  0.134
tot  0.000  0.354  0.137  0.491
 
band   7 # energy    6.93345390 # occ.  0.00000000
 
ion      s      p      d    tot
  1  0.000  0.286  0.071  0.357
  2  0.000  0.068  0.066  0.134
tot  0.000  0.354  0.137  0.491
 
band   8 # energy    9.99489501 # occ.  0.00000000
 
ion      s      p      d    tot
  1  0.003  0.062  0.047  0.113
  2  0.001  0.127  0.005  0.132
tot  0.004  0.189  0.052  0.245
 

 k-point    5 :    0.16666667 0.16666667 0.00000000     weight = 0.02777778

band   1 # energy   -9.64151549 # occ.  2.00000000
 
ion      s      p      d    tot
  1  0.211  0.012  0.001  0.224
  2  0.442  0.003  0.000  0.445
tot  0.653  0.015  0.002  0.669
 
band   2 # energy   -0.44293852 # occ.  2.00000000
 
ion      s      p      d    tot
  1  0.288  0.060  0.031  0.380
  2  0.168  0.180  0.004  0.352
tot  0.456  0.240  0.036  0.732
 
band   3 # energy    1.37613604 # occ.  2.00000000
 
ion      s      p      d    tot
  1  0.000  0.207  0.041  0.247
  2  0.000  0.370  0.006  0.375
tot  0.000  0.576  0.046  0.623
 
band   4 # energy    1.37613634 # occ.  2.00000000
 
ion      s      p      d    tot
  1  0.000  0.207  0.041  0.247
  2  0.000  0.370  0.006  0.375
tot  0.000  0.576  0.046  0.623
 
band   5 # energy    4.71908536 # occ.  0.00000000
 
ion      s      p      d    tot
  1  0.246  0.026  0.041  0.312
  2  0.032  0.244  0.020  0.295
tot  0.278  0.270  0.061  0.608
 
band   6 # energy    5.28138359 # occ.  0.00000000
 
ion      s      p      d    tot
  1  0.016  0.378  0.002  0.396
  2  0.121  0.048  0.030  0.199
tot  0.137  0.426  0.032  0.595
 
band   7 # energy    7.48005800 # occ.  0.00000000
 
ion      s      p      d    tot
  1  0.000  0.395  0.041  0.436
  2  0.000  0.129  0.062  0.191
tot  0.000  0.524  0.103  0.627
 
band   8 # energy    7.48005808 # occ.  0.00000000
 
ion      s      p      d    tot
  1  0.000  0.395  0.041  0.436
  2  0.000  0.129  0.062  0.191
tot  0.000  0.524  0.103  0.627
 

 k-point    6 :    0.33333333 0.16666667 0.00000000     weight = 0.11111111

band   1 # energy   -9.06222807 # occ.  2.00000000
 
ion      s      p      d    tot
  1  0.167  0.031  0.005  0.202
  2  0.475  0.005  0.000  0.480
tot  0.642  0.036  0.005  0.683
 
band   2 # energy   -2.32273495 # occ.  2.00000000
 
ion      s      p      d    tot
  1  0.325  0.073  0.017  0.415
  2  0.119  0.160  0.004  0.284
tot  0.444  0.233  0.021  0.698
 
band   3 # energy    0.57056663 # occ.  2.00000000
 
ion      s      p      d    tot
  1  0.041  0.209  0.026  0.276
  2  0.015  0.301  0.006  0.322
tot  0.056  0.510  0.032  0.598
 
band   4 # energy    0.85878591 # occ.  2.00000000
 
ion      s      p      d    tot
  1  0.000  0.236  0.027  0.263
  2  0.000  0.346  0.004  0.351
tot  0.000  0.582  0.031  0.614
 
band   5 # energy    4.72815199 # occ.  0.00000000
 
ion      s      p      d    tot
  1  0.172  0.106  0.040  0.317
  2  0.046  0.170  0.027  0.244
tot  0.218  0.276  0.067  0.561
 
band   6 # energy    5.95230002 # occ.  0.00000000
 
ion      s      p      d    tot
  1  0.071  0.278  0.020  0.369
  2  0.071  0.116  0.030  0.216
tot  0.143  0.393  0.049  0.585
 
band   7 # energy    7.91762371 # occ.  0.00000000
 
ion      s      p      d    tot
  1  0.002  0.182  0.084  0.268
  2  0.009  0.092  0.062  0.163
tot  0.011  0.274  0.147  0.432
 
band   8 # energy    8.25236951 # occ.  0.00000000
 
ion      s      p      d    tot
  1  0.000  0.331  0.062  0.393
  2  0.000  0.137  0.065  0.203
tot  0.000  0.468  0.127  0.596
 

 k-point    7 :    0.50000000 0.16666667 0.00000000     weight = 0.11111111

band   1 # energy   -8.39270984 # occ.  2.00000000
 
ion      s      p      d    tot
  1  0.096  0.053  0.010  0.159
  2  0.543  0.003  0.000  0.546
tot  0.638  0.056  0.011  0.705
 
band   2 # energy   -3.80836946 # occ.  2.00000000
 
ion      s      p      d    tot
  1  0.391  0.069  0.003  0.462
  2  0.042  0.150  0.003  0.196
tot  0.433  0.219  0.006  0.658
 
band   3 # energy   -0.16640982 # occ.  2.00000000
 
ion      s      p      d    tot
  1  0.062  0.203  0.019  0.285
  2  0.023  0.266  0.005  0.294
tot  0.085  0.469  0.024  0.578
 
band   4 # energy    0.79192846 # occ.  2.00000000
 
ion      s      p      d    tot
  1  0.000  0.245  0.023  0.268
  2  0.000  0.349  0.004  0.352
tot  0.000  0.593  0.027  0.620
 
band   5 # energy    4.53268861 # occ.  0.00000000
 
ion      s      p      d    tot
  1  0.180  0.119  0.036  0.335
  2  0.074  0.140  0.026  0.239
tot  0.254  0.259  0.061  0.574
 
band   6 # energy    6.70636906 # occ.  0.00000000
 
ion      s      p      d    tot
  1  0.041  0.203  0.053  0.296
  2  0.023  0.120  0.046  0.189
tot  0.063  0.323  0.099  0.485
 
band   7 # energy    8.00278914 # occ.  0.00000000
 
ion      s      p      d    tot
  1  0.000  0.276  0.077  0.352
  2  0.000  0.107  0.068  0.174
tot  0.000  0.382  0.144  0.526
 
band   8 # energy    9.19578951 # occ.  0.00000000
 
ion      s      p      d    tot
  1  0.018  0.176  0.075  0.269
  2  0.018  0.152  0.046  0.216
tot  0.036  0.328  0.121  0.485
 

 k-point    8 :   -0.33333333 0.16666667 0.00000000     weight = 0.11111111

band   1 # energy   -8.58054781 # occ.  2.00000000
 
ion      s      p      d    tot
  1  0.119  0.046  0.009  0.174
  2  0.520  0.004  0.000  0.524
tot  0.639  0.050  0.009  0.698
 
band   2 # energy   -3.43769251 # occ.  2.00000000
 
ion      s      p      d    tot
  1  0.368  0.073  0.006  0.448
  2  0.067  0.151  0.004  0.222
tot  0.435  0.225  0.010  0.669
 
band   3 # energy   -0.34126263 # occ.  2.00000000
 
ion      s      p      d    tot
  1  0.051  0.211  0.017  0.279
  2  0.016  0.264  0.005  0.285
tot  0.067  0.475  0.022  0.563
 
band   4 # energy    1.19655239 # occ.  2.00000000
 
ion      s      p      d    tot
  1  0.000  0.231  0.031  0.262
  2  0.000  0.371  0.004  0.376
tot  0.000  0.602  0.035  0.637
 
band   5 # energy    4.63337217 # occ.  0.00000000
 
ion      s      p      d    tot
  1  0.201  0.131  0.027  0.359
  2  0.086  0.141  0.023  0.250
tot  0.288  0.272  0.050  0.609
 
band   6 # energy    6.99792403 # occ.  0.00000000
 
ion      s      p      d    tot
  1  0.021  0.194  0.063  0.278
  2  0.016  0.109  0.051  0.176
tot  0.037  0.303  0.114  0.455
 
band   7 # energy    7.55876556 # occ.  0.00000000
 
ion      s      p      d    tot
  1  0.000  0.321  0.059  0.380
  2  0.000  0.096  0.062  0.158
tot  0.000  0.417  0.121  0.538
 
band   8 # energy    9.20891178 # occ.  0.00000000
 
ion      s      p      d    tot
  1  0.039  0.153  0.052  0.244
  2  0.030  0.233  0.031  0.294
tot  0.069  0.386  0.083  0.538
 

 k-point    9 :   -0.16666667 0.16666667 0.00000000     weight = 0.05555556

band   1 # energy   -9.30635936 # occ.  2.00000000
 
ion      s      p      d    tot
  1  0.187  0.022  0.003  0.213
  2  0.460  0.004  0.000  0.464
tot  0.647  0.026  0.003  0.677
 
band   2 # energy   -1.74205257 # occ.  2.00000000
 
ion      s      p      d    tot
  1  0.296  0.080  0.021  0.397
  2  0.133  0.168  0.004  0.306
tot  0.429  0.249  0.025  0.703
 
band   3 # energy    0.37422005 # occ.  2.00000000
 
ion      s      p      d    tot
  1  0.024  0.220  0.024  0.268
  2  0.002  0.296  0.006  0.304
tot  0.026  0.516  0.030  0.572
 
band   4 # energy    1.81764553 # occ.  2.00000000
 
ion      s      p      d    tot
  1  0.000  0.191  0.048  0.239
  2  0.000  0.413  0.005  0.418
tot  0.000  0.604  0.053  0.656
 
band   5 # energy    4.67935907 # occ.  0.00000000
 
ion      s      p      d    tot
  1  0.230  0.132  0.014  0.376
  2  0.110  0.172  0.014  0.297
tot  0.340  0.305  0.028  0.673
 
band   6 # energy    6.71403789 # occ.  0.00000000
 
ion      s      p      d    tot
  1  0.035  0.254  0.051  0.340
  2  0.039  0.116  0.047  0.201
tot  0.074  0.369  0.097  0.540
 
band   7 # energy    6.84149761 # occ.  0.00000000
 
ion      s      p      d    tot
  1  0.000  0.419  0.030  0.448
  2  0.000  0.075  0.058  0.133
tot  0.000  0.494  0.088  0.582
 
band   8 # energy    7.84694634 # occ.  0.00000000
 
ion      s      p      d    tot
  1  0.016  0.206  0.051  0.273
  2  0.014  0.169  0.046  0.230
tot  0.030  0.375  0.098  0.503
 

 k-point   10 :    0.33333333 0.33333333 0.00000000     weight = 0.02777778

band   1 # energy   -8.65736500 # occ.  2.00000000
 
ion      s      p      d    tot
  1  0.125  0.048  0.007  0.180
  2  0.505  0.006  0.000  0.511
tot  0.630  0.053  0.007  0.691
 
band   2 # energy   -2.92957632 # occ.  2.00000000
 
ion      s      p      d    tot
  1  0.412  0.035  0.016  0.463
  2  0.109  0.147  0.005  0.260
tot  0.521  0.181  0.021  0.723
 
band   3 # energy    0.24933023 # occ.  2.00000000
 
ion      s      p      d    tot
  1  0.000  0.256  0.015  0.272
  2  0.000  0.322  0.003  0.324
tot  0.000  0.578  0.018  0.596
 
band   4 # energy    0.24933048 # occ.  2.00000000
 
ion      s      p      d    tot
  1  0.000  0.256  0.015  0.272
  2  0.000  0.322  0.003  0.324
tot  0.000  0.578  0.018  0.596
 
band   5 # energy    3.94912581 # occ.  0.00000000
 
ion      s      p      d    tot
  1  0.121  0.149  0.043  0.313
  2  0.020  0.059  0.039  0.118
tot  0.141  0.208  0.082  0.431
 
band   6 # energy    4.93423272 # occ.  0.00000000
 
ion      s      p      d    tot
  1  0.095  0.109  0.053  0.258
  2  0.056  0.102  0.031  0.189
tot  0.151  0.212  0.084  0.447
 
band   7 # energy   10.07183537 # occ.  0.00000000
 
ion      s      p      d    tot
  1  0.000  0.340  0.061  0.402
  2  0.000  0.194  0.062  0.256
tot  0.000  0.535  0.123  0.658
 
band   8 # energy   10.07183551 # occ.  0.00000000
 
ion      s      p      d    tot
  1  0.000  0.340  0.061  0.402
  2  0.000  0.194  0.062  0.256
tot  0.000  0.535  0.123  0.658
 

 k-point   11 :    0.50000000 0.33333333 0.00000000     weight = 0.11111111

band   1 # energy   -8.07842328 # occ.  2.00000000
 
ion      s      p      d    tot
  1  0.045  0.072  0.012  0.130
  2  0.576  0.003  0.000  0.579
tot  0.622  0.075  0.013  0.709
 
band   2 # energy   -3.87037332 # occ.  2.00000000
 
ion      s      p      d    tot
  1  0.508  0.016  0.006  0.530
  2  0.037  0.141  0.005  0.183
tot  0.545  0.157  0.011  0.713
 
band   3 # energy   -0.72238097 # occ.  2.00000000
 
ion      s      p      d    tot
  1  0.010  0.243  0.010  0.263
  2  0.002  0.269  0.003  0.273
tot  0.011  0.512  0.012  0.536
 
band   4 # energy    0.10649439 # occ.  2.00000000
 
ion      s      p      d    tot
  1  0.000  0.263  0.012  0.275
  2  0.000  0.319  0.002  0.321
tot  0.000  0.582  0.014  0.596
 
band   5 # energy    4.20723956 # occ.  0.00000000
 
ion      s      p      d    tot
  1  0.102  0.125  0.053  0.280
  2  0.037  0.067  0.037  0.141
tot  0.139  0.192  0.090  0.421
 
band   6 # energy    5.60026597 # occ.  0.00000000
 
ion      s      p      d    tot
  1  0.097  0.112  0.055  0.264
  2  0.028  0.143  0.036  0.207
tot  0.124  0.255  0.092  0.471
 
band   7 # energy    9.68559567 # occ.  0.00000000
 
ion      s      p      d    tot
  1  0.035  0.233  0.057  0.326
  2  0.036  0.164  0.045  0.246
tot  0.071  0.398  0.103  0.572
 
band   8 # energy   10.36594429 # occ.  0.00000000
 
ion      s      p      d    tot
  1  0.000  0.292  0.072  0.364
  2  0.000  0.177  0.064  0.241
tot  0.000  0.469  0.136  0.605
 

 k-point   12 :   -0.33333333 0.33333333 0.00000000     weight = 0.05555556

band   1 # energy   -8.03659268 # occ.  2.00000000
 
ion      s      p      d    tot
  1  0.041  0.071  0.014  0.125
  2  0.586  0.002  0.000  0.588
tot  0.627  0.072  0.014  0.714
 
band   2 # energy   -3.89933520 # occ.  2.00000000
 
ion      s      p      d    tot
  1  0.521  0.022  0.002  0.545
  2  0.025  0.139  0.006  0.169
tot  0.546  0.161  0.008  0.714
 
band   3 # energy   -1.37191962 # occ.  2.00000000
 
ion      s      p      d    tot
  1  0.005  0.233  0.009  0.246
  2  0.001  0.247  0.002  0.250
tot  0.006  0.480  0.010  0.496
 
band   4 # energy    0.49879400 # occ.  2.00000000
 
ion      s      p      d    tot
  1  0.000  0.255  0.018  0.272
  2  0.000  0.335  0.003  0.338
tot  0.000  0.590  0.021  0.610
 
band   5 # energy    4.54856235 # occ.  0.00000000
 
ion      s      p      d    tot
  1  0.123  0.128  0.049  0.300
  2  0.046  0.079  0.035  0.160
tot  0.170  0.206  0.084  0.460
 
band   6 # energy    7.95113506 # occ.  0.00000000
 
ion      s      p      d    tot
  1  0.117  0.034  0.029  0.181
  2  0.001  0.324  0.036  0.361
tot  0.118  0.359  0.064  0.541
 
band   7 # energy    9.29392913 # occ.  0.00000000
 
ion      s      p      d    tot
  1  0.000  0.307  0.057  0.364
  2  0.000  0.158  0.059  0.218
tot  0.000  0.465  0.116  0.582
 
band   8 # energy    9.55337946 # occ.  0.00000000
 
ion      s      p      d    tot
  1  0.002  0.384  0.069  0.454
  2  0.089  0.078  0.006  0.173
tot  0.091  0.462  0.075  0.627
 

 k-point   13 :    0.50000000 0.50000000 0.00000000     weight = 0.01388889

band   1 # energy   -7.86445798 # occ.  2.00000000
 
ion      s      p      d    tot
  1  0.000  0.087  0.014  0.102
  2  0.613  0.000  0.000  0.613
tot  0.613  0.087  0.015  0.714
 
band   2 # energy   -4.23464708 # occ.  2.00000000
 
ion      s      p      d    tot
  1  0.551  0.000  0.004  0.554
  2  0.000  0.143  0.005  0.148
tot  0.551  0.143  0.008  0.702
 
band   3 # energy   -0.17056178 # occ.  2.00000000
 
ion      s      p      d    tot
  1  0.000  0.270  0.007  0.277
  2  0.000  0.310  0.001  0.311
tot  0.000  0.580  0.008  0.588
 
band   4 # energy   -0.17056153 # occ.  2.00000000
 
ion      s      p      d    tot
  1  0.000  0.270  0.007  0.277
  2  0.000  0.310  0.001  0.311
tot  0.000  0.580  0.008  0.588
 
band   5 # energy    3.87239538 # occ.  0.00000000
 
ion      s      p      d    tot
  1  0.000  0.210  0.055  0.265
  2  0.069  0.000  0.034  0.103
tot  0.069  0.210  0.089  0.368
 
band   6 # energy    3.99723843 # occ.  0.00000000
 
ion      s      p      d    tot
  1  0.208  0.000  0.058  0.266
  2  0.000  0.122  0.041  0.163
tot  0.208  0.122  0.100  0.429
 
band   7 # energy   12.05297628 # occ.  0.00000000
 
ion      s      p      d    tot
  1  0.000  0.378  0.043  0.421
  2  0.000  0.265  0.030  0.295
tot  0.000  0.643  0.074  0.717
 
band   8 # energy   12.05297650 # occ.  0.00000000
 
ion      s      p      d    tot
  1  0.000  0.378  0.043  0.421
  2  0.000  0.265  0.030  0.295
tot  0.000  0.643  0.074  0.717
 

 k-point   14 :    0.50000000 0.33333333 0.16666667     weight = 0.11111111

band   1 # energy   -8.45186140 # occ.  2.00000000
 
ion      s      p      d    tot
  1  0.103  0.053  0.009  0.165
  2  0.529  0.005  0.000  0.534
tot  0.632  0.058  0.009  0.699
 
band   2 # energy   -3.32003401 # occ.  2.00000000
 
ion      s      p      d    tot
  1  0.433  0.042  0.009  0.485
  2  0.081  0.144  0.005  0.229
tot  0.514  0.186  0.014  0.714
 
band   3 # energy   -0.66928587 # occ.  2.00000000
 
ion      s      p      d    tot
  1  0.021  0.231  0.012  0.264
  2  0.003  0.265  0.003  0.271
tot  0.024  0.496  0.016  0.536
 
band   4 # energy    0.41442456 # occ.  2.00000000
 
ion      s      p      d    tot
  1  0.006  0.243  0.020  0.269
  2  0.002  0.315  0.004  0.321
tot  0.008  0.558  0.025  0.590
 
band   5 # energy    5.63188213 # occ.  0.00000000
 
ion      s      p      d    tot
  1  0.196  0.030  0.052  0.278
  2  0.003  0.250  0.032  0.285
tot  0.200  0.280  0.083  0.563
 
band   6 # energy    6.05471501 # occ.  0.00000000
 
ion      s      p      d    tot
  1  0.030  0.282  0.034  0.346
  2  0.090  0.069  0.028  0.187
tot  0.119  0.351  0.062  0.533
 
band   7 # energy    7.39524756 # occ.  0.00000000
 
ion      s      p      d    tot
  1  0.000  0.186  0.074  0.260
  2  0.009  0.074  0.062  0.145
tot  0.009  0.260  0.136  0.405
 
band   8 # energy    9.87957884 # occ.  0.00000000
 
ion      s      p      d    tot
  1  0.006  0.339  0.065  0.410
  2  0.011  0.174  0.056  0.240
tot  0.017  0.512  0.121  0.650
 

 k-point   15 :   -0.33333333 0.33333333 0.16666667     weight = 0.11111111

band   1 # energy   -8.03604284 # occ.  2.00000000
 
ion      s      p      d    tot
  1  0.041  0.071  0.014  0.125
  2  0.587  0.001  0.000  0.588
tot  0.627  0.072  0.014  0.714
 
band   2 # energy   -3.92723040 # occ.  2.00000000
 
ion      s      p      d    tot
  1  0.511  0.026  0.002  0.539
  2  0.022  0.140  0.005  0.168
tot  0.533  0.167  0.007  0.707
 
band   3 # energy   -1.09440377 # occ.  2.00000000
 
ion      s      p      d    tot
  1  0.022  0.223  0.011  0.257
  2  0.007  0.252  0.002  0.261
tot  0.029  0.476  0.014  0.518
 
band   4 # energy    0.04050965 # occ.  2.00000000
 
ion      s      p      d    tot
  1  0.002  0.251  0.015  0.268
  2  0.000  0.298  0.004  0.302
tot  0.002  0.549  0.019  0.571
 
band   5 # energy    5.76088726 # occ.  0.00000000
 
ion      s      p      d    tot
  1  0.174  0.082  0.045  0.302
  2  0.039  0.214  0.027  0.280
tot  0.214  0.296  0.073  0.582
 
band   6 # energy    6.65571406 # occ.  0.00000000
 
ion      s      p      d    tot
  1  0.000  0.206  0.064  0.270
  2  0.030  0.077  0.048  0.155
tot  0.030  0.283  0.112  0.425
 
band   7 # energy    8.31635910 # occ.  0.00000000
 
ion      s      p      d    tot
  1  0.064  0.136  0.044  0.245
  2  0.010  0.240  0.042  0.293
tot  0.074  0.377  0.086  0.537
 
band   8 # energy    9.55585481 # occ.  0.00000000
 
ion      s      p      d    tot
  1  0.001  0.349  0.070  0.419
  2  0.034  0.021  0.055  0.109
tot  0.035  0.369  0.124  0.529
 

 k-point   16 :   -0.33333333 0.50000000 0.16666667     weight = 0.05555556

band   1 # energy   -7.83816002 # occ.  2.00000000
 
ion      s      p      d    tot
  1  0.000  0.084  0.015  0.100
  2  0.618  0.000  0.000  0.618
tot  0.618  0.084  0.016  0.718
 
band   2 # energy   -4.10785635 # occ.  2.00000000
 
ion      s      p      d    tot
  1  0.576  0.000  0.002  0.577
  2  0.000  0.138  0.006  0.144
tot  0.576  0.138  0.007  0.722
 
band   3 # energy   -0.79836083 # occ.  2.00000000
 
ion      s      p      d    tot
  1  0.005  0.219  0.016  0.240
  2  0.000  0.283  0.001  0.283
tot  0.005  0.502  0.017  0.524
 
band   4 # energy   -0.64120257 # occ.  2.00000000
 
ion      s      p      d    tot
  1  0.000  0.277  0.002  0.280
  2  0.001  0.258  0.004  0.263
tot  0.001  0.535  0.007  0.543
 
band   5 # energy    5.58782252 # occ.  0.00000000
 
ion      s      p      d    tot
  1  0.000  0.187  0.070  0.257
  2  0.054  0.083  0.032  0.169
tot  0.054  0.270  0.102  0.426
 
band   6 # energy    5.67193045 # occ.  0.00000000
 
ion      s      p      d    tot
  1  0.187  0.042  0.046  0.275
  2  0.000  0.205  0.041  0.246
tot  0.187  0.247  0.087  0.521
 
band   7 # energy    9.20977605 # occ.  0.00000000
 
ion      s      p      d    tot
  1  0.000  0.260  0.073  0.333
  2  0.050  0.135  0.031  0.217
tot  0.050  0.395  0.104  0.549
 
band   8 # energy    9.52888551 # occ.  0.00000000
 
ion      s      p      d    tot
  1  0.049  0.218  0.050  0.316
  2  0.000  0.133  0.073  0.207
tot  0.049  0.351  0.123  0.523
 
