  96  96   0   0
  0.2080188E+02  0.1257760E-08  0.1245754E-08  0.1274818E-08  0.5000000E-15
  1.000000000000000E-004
  CAR 
 MAPbI3-Cubic                            
     10.63914136    -19.68567530  301      1.59223772      1.00000000
    -19.686  0.0000E+00  0.0000E+00
    -19.585  0.0000E+00  0.0000E+00
    -19.484  0.0000E+00  0.0000E+00
    -19.382  0.0000E+00  0.0000E+00
    -19.281  0.0000E+00  0.0000E+00
    -19.180  0.0000E+00  0.0000E+00
    -19.079  0.0000E+00  0.0000E+00
    -18.978  0.0000E+00  0.0000E+00
    -18.877  0.0000E+00  0.0000E+00
    -18.776  0.0000E+00  0.0000E+00
    -18.675  0.0000E+00  0.0000E+00
    -18.574  0.0000E+00  0.0000E+00
    -18.473  0.0000E+00  0.0000E+00
    -18.372  0.0000E+00  0.0000E+00
    -18.271  0.0000E+00  0.1600E+02
    -18.169  0.0000E+00  0.1600E+02
    -18.068  0.0000E+00  0.1600E+02
    -17.967  0.0000E+00  0.1600E+02
    -17.866  0.0000E+00  0.1600E+02
    -17.765  0.0000E+00  0.1600E+02
    -17.664  0.0000E+00  0.1600E+02
    -17.563  0.0000E+00  0.1600E+02
    -17.462  0.0000E+00  0.1600E+02
    -17.361  0.0000E+00  0.1600E+02
    -17.260  0.0000E+00  0.1600E+02
    -17.159  0.0000E+00  0.1600E+02
    -17.058  0.0000E+00  0.1600E+02
    -16.956  0.0000E+00  0.1600E+02
    -16.855  0.0000E+00  0.1600E+02
    -16.754  0.0000E+00  0.1600E+02
    -16.653  0.0000E+00  0.1600E+02
    -16.552  0.0000E+00  0.1600E+02
    -16.451  0.0000E+00  0.1600E+02
    -16.350  0.0000E+00  0.4800E+02
    -16.249  0.0000E+00  0.4800E+02
    -16.148  0.0000E+00  0.4800E+02
    -16.047  0.0000E+00  0.4800E+02
    -15.946  0.0000E+00  0.4800E+02
    -15.845  0.0000E+00  0.4800E+02
    -15.743  0.0000E+00  0.4800E+02
    -15.642  0.0000E+00  0.4800E+02
    -15.541  0.0000E+00  0.4800E+02
    -15.440  0.0000E+00  0.4800E+02
    -15.339  0.0000E+00  0.4800E+02
    -15.238  0.0000E+00  0.4800E+02
    -15.137  0.0000E+00  0.4800E+02
    -15.036  0.0000E+00  0.4800E+02
    -14.935  0.0000E+00  0.4800E+02
    -14.834  0.0000E+00  0.4800E+02
    -14.733  0.0000E+00  0.4800E+02
    -14.632  0.0000E+00  0.4800E+02
    -14.530  0.0000E+00  0.4800E+02
    -14.429  0.0000E+00  0.4800E+02
    -14.328  0.0000E+00  0.4800E+02
    -14.227  0.0000E+00  0.4800E+02
    -14.126  0.0000E+00  0.4800E+02
    -14.025  0.0000E+00  0.4800E+02
    -13.924  0.0000E+00  0.4800E+02
    -13.823  0.1583E+03  0.9600E+02
    -13.722  0.0000E+00  0.9600E+02
    -13.621  0.0000E+00  0.9600E+02
    -13.520  0.0000E+00  0.9600E+02
    -13.419  0.0000E+00  0.9600E+02
    -13.317  0.0000E+00  0.9600E+02
    -13.216  0.0000E+00  0.9600E+02
    -13.115  0.0000E+00  0.9600E+02
    -13.014  0.0000E+00  0.9600E+02
    -12.913  0.0000E+00  0.9600E+02
    -12.812  0.0000E+00  0.9600E+02
    -12.711  0.0000E+00  0.9600E+02
    -12.610  0.0000E+00  0.9600E+02
    -12.509  0.0000E+00  0.9600E+02
    -12.408  0.0000E+00  0.9600E+02
    -12.307  0.0000E+00  0.9600E+02
    -12.206  0.0000E+00  0.9600E+02
    -12.104  0.0000E+00  0.9600E+02
    -12.003  0.0000E+00  0.9600E+02
    -11.902  0.0000E+00  0.9600E+02
    -11.801  0.0000E+00  0.9600E+02
    -11.700  0.0000E+00  0.9600E+02
    -11.599  0.0000E+00  0.9600E+02
    -11.498  0.0000E+00  0.9600E+02
    -11.397  0.7277E+00  0.9607E+02
    -11.296  0.0000E+00  0.1120E+03
    -11.195  0.0000E+00  0.1120E+03
    -11.094  0.0000E+00  0.1120E+03
    -10.993  0.0000E+00  0.1120E+03
    -10.891  0.0000E+00  0.1120E+03
    -10.790  0.2495E+01  0.1125E+03
    -10.689  0.2735E+01  0.1144E+03
    -10.588  0.7954E+01  0.1201E+03
    -10.487  0.3310E+01  0.1269E+03
    -10.386  0.0000E+00  0.1291E+03
    -10.285  0.8341E+01  0.1368E+03
    -10.184  0.3598E+01  0.1418E+03
    -10.083  0.1970E+02  0.1465E+03
     -9.982  0.1466E+01  0.1552E+03
     -9.881  0.0000E+00  0.1600E+03
     -9.780  0.0000E+00  0.1600E+03
     -9.678  0.0000E+00  0.1600E+03
     -9.577  0.0000E+00  0.1600E+03
     -9.476  0.0000E+00  0.1600E+03
     -9.375  0.0000E+00  0.1600E+03
     -9.274  0.0000E+00  0.1600E+03
     -9.173  0.0000E+00  0.1600E+03
     -9.072  0.0000E+00  0.1600E+03
     -8.971  0.0000E+00  0.1600E+03
     -8.870  0.0000E+00  0.1600E+03
     -8.769  0.0000E+00  0.1600E+03
     -8.668  0.0000E+00  0.1600E+03
     -8.567  0.0000E+00  0.1600E+03
     -8.465  0.0000E+00  0.1600E+03
     -8.364  0.0000E+00  0.1600E+03
     -8.263  0.0000E+00  0.1600E+03
     -8.162  0.0000E+00  0.1600E+03
     -8.061  0.0000E+00  0.1600E+03
     -7.960  0.0000E+00  0.1600E+03
     -7.859  0.0000E+00  0.1600E+03
     -7.758  0.0000E+00  0.1680E+03
     -7.657  0.0000E+00  0.1880E+03
     -7.556  0.0000E+00  0.1920E+03
     -7.455  0.0000E+00  0.1920E+03
     -7.354  0.0000E+00  0.1920E+03
     -7.253  0.0000E+00  0.1920E+03
     -7.151  0.0000E+00  0.1920E+03
     -7.050  0.0000E+00  0.1920E+03
     -6.949  0.7327E+00  0.1921E+03
     -6.848  0.0000E+00  0.1921E+03
     -6.747  0.0000E+00  0.1925E+03
     -6.646  0.0000E+00  0.1934E+03
     -6.545  0.2950E-02  0.1941E+03
     -6.444  0.3664E+01  0.1950E+03
     -6.343  0.1759E+00  0.1964E+03
     -6.242  0.2667E-06  0.1988E+03
     -6.141  0.0000E+00  0.2003E+03
     -6.040  0.4391E+01  0.2025E+03
     -5.938  0.2391E+01  0.2041E+03
     -5.837  0.9826E+01  0.2112E+03
     -5.736  0.1466E+01  0.2217E+03
     -5.635  0.0000E+00  0.2226E+03
     -5.534  0.0000E+00  0.2235E+03
     -5.433  0.1465E+01  0.2239E+03
     -5.332  0.0000E+00  0.2239E+03
     -5.231  0.0000E+00  0.2240E+03
     -5.130  0.0000E+00  0.2240E+03
     -5.029  0.0000E+00  0.2240E+03
     -4.928  0.0000E+00  0.2240E+03
     -4.827  0.0000E+00  0.2240E+03
     -4.725  0.0000E+00  0.2240E+03
     -4.624  0.0000E+00  0.2240E+03
     -4.523  0.0000E+00  0.2240E+03
     -4.422  0.0000E+00  0.2240E+03
     -4.321  0.0000E+00  0.2240E+03
     -4.220  0.0000E+00  0.2240E+03
     -4.119  0.0000E+00  0.2240E+03
     -4.018  0.0000E+00  0.2240E+03
     -3.917  0.0000E+00  0.2240E+03
     -3.816  0.0000E+00  0.2240E+03
     -3.715  0.0000E+00  0.2240E+03
     -3.614  0.1160E+02  0.2262E+03
     -3.512  0.8061E+01  0.2560E+03
     -3.411  0.0000E+00  0.2560E+03
     -3.310  0.0000E+00  0.2560E+03
     -3.209  0.0000E+00  0.2560E+03
     -3.108  0.0000E+00  0.2560E+03
     -3.007  0.0000E+00  0.2560E+03
     -2.906  0.0000E+00  0.2560E+03
     -2.805  0.0000E+00  0.2560E+03
     -2.704  0.0000E+00  0.2560E+03
     -2.603  0.0000E+00  0.2560E+03
     -2.502  0.0000E+00  0.2560E+03
     -2.401  0.0000E+00  0.2560E+03
     -2.299  0.0000E+00  0.2560E+03
     -2.198  0.2146E+01  0.2563E+03
     -2.097  0.1002E+01  0.2586E+03
     -1.996  0.1484E+01  0.2617E+03
     -1.895  0.2551E+01  0.2640E+03
     -1.794  0.4272E-02  0.2666E+03
     -1.693  0.5924E-04  0.2708E+03
     -1.592  0.4102E+01  0.2745E+03
     -1.491  0.7328E+00  0.2781E+03
     -1.390  0.1900E-01  0.2796E+03
     -1.289  0.3928E-09  0.2800E+03
     -1.188  0.2373E+01  0.2828E+03
     -1.086  0.0000E+00  0.2856E+03
     -0.985  0.4640E+01  0.2903E+03
     -0.884  0.9091E+00  0.2954E+03
     -0.783  0.2124E+01  0.2992E+03
     -0.682  0.1466E+01  0.3019E+03
     -0.581  0.2230E+01  0.3053E+03
     -0.480  0.3675E+01  0.3104E+03
     -0.379  0.7314E+01  0.3178E+03
     -0.278  0.3266E+01  0.3211E+03
     -0.177  0.7918E+01  0.3261E+03
     -0.076  0.1332E+02  0.3337E+03
      0.025  0.9233E+01  0.3423E+03
      0.127  0.4396E+01  0.3500E+03
      0.228  0.3224E+01  0.3532E+03
      0.329  0.6193E+01  0.3583E+03
      0.430  0.5124E+01  0.3627E+03
      0.531  0.4305E+01  0.3691E+03
      0.632  0.4137E+01  0.3762E+03
      0.733  0.9389E+01  0.3834E+03
      0.834  0.8934E+00  0.3908E+03
      0.935  0.1027E-08  0.3942E+03
      1.036  0.9380E-01  0.3965E+03
      1.137  0.1466E+01  0.3981E+03
      1.238  0.7328E+00  0.3993E+03
      1.340  0.0000E+00  0.3995E+03
      1.441  0.0000E+00  0.3999E+03
      1.542  0.1974E-02  0.3999E+03
      1.643  0.0000E+00  0.4000E+03
      1.744  0.0000E+00  0.4000E+03
      1.845  0.0000E+00  0.4000E+03
      1.946  0.0000E+00  0.4000E+03
      2.047  0.0000E+00  0.4000E+03
      2.148  0.0000E+00  0.4000E+03
      2.249  0.0000E+00  0.4001E+03
      2.350  0.1466E+01  0.4002E+03
      2.451  0.0000E+00  0.4003E+03
      2.553  0.0000E+00  0.4004E+03
      2.654  0.5689E-07  0.4006E+03
      2.755  0.0000E+00  0.4011E+03
      2.856  0.1466E+01  0.4018E+03
      2.957  0.0000E+00  0.4021E+03
      3.058  0.0000E+00  0.4028E+03
      3.159  0.1466E+01  0.4036E+03
      3.260  0.5149E-12  0.4044E+03
      3.361  0.7328E+00  0.4052E+03
      3.462  0.3670E+01  0.4065E+03
      3.563  0.4410E+01  0.4081E+03
      3.664  0.2093E-13  0.4090E+03
      3.766  0.0000E+00  0.4093E+03
      3.867  0.0000E+00  0.4104E+03
      3.968  0.0000E+00  0.4117E+03
      4.069  0.0000E+00  0.4131E+03
      4.170  0.3458E+01  0.4145E+03
      4.271  0.1464E+01  0.4161E+03
      4.372  0.3664E+01  0.4177E+03
      4.473  0.1466E+01  0.4198E+03
      4.574  0.0000E+00  0.4209E+03
      4.675  0.0000E+00  0.4220E+03
      4.776  0.0000E+00  0.4227E+03
      4.877  0.4068E-16  0.4236E+03
      4.979  0.2931E+01  0.4246E+03
      5.080  0.1331E+01  0.4252E+03
      5.181  0.4697E+00  0.4261E+03
      5.282  0.7328E+00  0.4272E+03
      5.383  0.1466E+01  0.4290E+03
      5.484  0.2931E+01  0.4315E+03
      5.585  0.0000E+00  0.4345E+03
      5.686  0.3982E+01  0.4374E+03
      5.787  0.7285E+00  0.4397E+03
      5.888  0.3664E+01  0.4426E+03
      5.989  0.1466E+01  0.4451E+03
      6.090  0.2250E+01  0.4490E+03
      6.192  0.6580E+01  0.4540E+03
      6.293  0.1428E+01  0.4581E+03
      6.394  0.4603E+01  0.4621E+03
      6.495  0.3234E+01  0.4678E+03
      6.596  0.1504E+01  0.4733E+03
      6.697  0.1466E+01  0.4774E+03
      6.798  0.3601E+01  0.4808E+03
      6.899  0.4362E+01  0.4847E+03
      7.000  0.2976E+01  0.4899E+03
      7.101  0.4292E+01  0.4934E+03
      7.202  0.7328E+00  0.4980E+03
      7.303  0.3580E+01  0.5026E+03
      7.404  0.5046E+01  0.5070E+03
      7.506  0.5842E+01  0.5113E+03
      7.607  0.7402E+00  0.5161E+03
      7.708  0.2509E+01  0.5222E+03
      7.809  0.8667E+01  0.5272E+03
      7.910  0.3659E+01  0.5333E+03
      8.011  0.4332E+01  0.5374E+03
      8.112  0.3221E+01  0.5419E+03
      8.213  0.2397E+01  0.5472E+03
      8.314  0.5334E+01  0.5534E+03
      8.415  0.2667E+01  0.5596E+03
      8.516  0.3824E+01  0.5657E+03
      8.617  0.2349E+01  0.5714E+03
      8.719  0.3854E+01  0.5777E+03
      8.820  0.5292E+01  0.5830E+03
      8.921  0.4750E+01  0.5890E+03
      9.022  0.3164E+01  0.5941E+03
      9.123  0.2722E+01  0.5977E+03
      9.224  0.1832E+01  0.5999E+03
      9.325  0.0000E+00  0.6000E+03
      9.426  0.0000E+00  0.6000E+03
      9.527  0.0000E+00  0.6000E+03
      9.628  0.0000E+00  0.6000E+03
      9.729  0.0000E+00  0.6000E+03
      9.830  0.0000E+00  0.6000E+03
      9.932  0.0000E+00  0.6000E+03
     10.033  0.0000E+00  0.6000E+03
     10.134  0.0000E+00  0.6000E+03
     10.235  0.0000E+00  0.6000E+03
     10.336  0.0000E+00  0.6000E+03
     10.437  0.0000E+00  0.6000E+03
     10.538  0.0000E+00  0.6000E+03
     10.639  0.0000E+00  0.6000E+03
