 vasp.5.4.1 24Jun15 (build Nov 25 2015 16:39:35) complex                        
  
 executed on         CrayXC-Intel date 2016.06.22  00:47:58
 running on  192 total cores
 distrk:  each k-point on  192 cores,    1 groups
 distr:  one band on NCORES_PER_BAND=  24 cores,    8 groups


--------------------------------------------------------------------------------------------------------


 INCAR:
 POTCAR:    PAW_PBE C 08Apr2002                   
 POTCAR:    PAW_PBE N 08Apr2002                   
 POTCAR:    PAW_PBE H 15Jun2001                   
 POTCAR:    PAW_PBE Pb_d 06Sep2000                
 POTCAR:    PAW_PBE I 08Apr2002                   
 POTCAR:    PAW_PBE C 08Apr2002                   
   VRHFIN =C: s2p2                                                              
   LEXCH  = PE                                                                  
   EATOM  =   147.1560 eV,   10.8157 Ry                                         
                                                                                
   TITEL  = PAW_PBE C 08Apr2002                                                 
   LULTRA =        F    use ultrasoft PP ?                                      
   IUNSCR =        1    unscreen: 0-lin 1-nonlin 2-no                           
   RPACOR =    1.200    partial core radius                                     
   POMASS =   12.011; ZVAL   =    4.000    mass and valenz                      
   RCORE  =    1.500    outmost cutoff radius                                   
   RWIGS  =    1.630; RWIGS  =    0.863    wigner-seitz radius (au A)           
   ENMAX  =  400.000; ENMIN  =  300.000 eV                                      
   ICORE  =        2    local potential                                         
   LCOR   =        T    correct aug charges                                     
   LPAW   =        T    paw PP                                                  
   EAUG   =  644.873                                                            
   DEXC   =    0.000                                                            
   RMAX   =    1.529    core radius for proj-oper                               
   RAUG   =    1.300    factor for augmentation sphere                          
   RDEP   =    1.501    radius for radial grids                                 
   RDEPT  =    1.300    core radius for aug-charge                              
                                                                                
   Atomic configuration                                                         
    4 entries                                                                   
     n  l   j            E        occ.                                          
     1  0  0.50      -273.3789   2.0000                                         
     2  0  0.50       -13.7508   2.0000                                         
     2  1  0.50        -5.2854   2.0000                                         
     3  2  1.50        -5.4423   0.0000                                         
   Description                                                                  
     l       E           TYP  RCUT    TYP  RCUT                                 
     0    -13.7508458     23  1.200                                             
     0     -8.2022199     23  1.200                                             
     1     -5.2854383     23  1.500                                             
     1     34.0145650     23  1.500                                             
     2     -5.4423304      7  1.500                                             
  local pseudopotential read in
  partial core-charges read in
  partial kinetic energy density read in
  atomic valenz-charges read in
  non local Contribution for L=           0  read in
    real space projection operators read in
  non local Contribution for L=           0  read in
    real space projection operators read in
  non local Contribution for L=           1  read in
    real space projection operators read in
  non local Contribution for L=           1  read in
    real space projection operators read in
    PAW grid and wavefunctions read in
 
   number of l-projection  operators is LMAX  =           4
   number of lm-projection operators is LMMAX =           8
 
 POTCAR:    PAW_PBE N 08Apr2002                   
   VRHFIN =N: s2p3                                                              
   LEXCH  = PE                                                                  
   EATOM  =   264.5486 eV,   19.4438 Ry                                         
                                                                                
   TITEL  = PAW_PBE N 08Apr2002                                                 
   LULTRA =        F    use ultrasoft PP ?                                      
   IUNSCR =        1    unscreen: 0-lin 1-nonlin 2-no                           
   RPACOR =    1.200    partial core radius                                     
   POMASS =   14.001; ZVAL   =    5.000    mass and valenz                      
   RCORE  =    1.500    outmost cutoff radius                                   
   RWIGS  =    1.400; RWIGS  =    0.741    wigner-seitz radius (au A)           
   ENMAX  =  400.000; ENMIN  =  300.000 eV                                      
   ICORE  =        2    local potential                                         
   LCOR   =        T    correct aug charges                                     
   LPAW   =        T    paw PP                                                  
   EAUG   =  627.112                                                            
   DEXC   =    0.000                                                            
   RMAX   =    1.529    core radius for proj-oper                               
   RAUG   =    1.300    factor for augmentation sphere                          
   RDEP   =    1.514    radius for radial grids                                 
   RDEPT  =    1.338    core radius for aug-charge                              
                                                                                
   Atomic configuration                                                         
    4 entries                                                                   
     n  l   j            E        occ.                                          
     1  0  0.50      -384.7179   2.0000                                         
     2  0  0.50       -18.5828   2.0000                                         
     2  1  0.50        -7.0898   3.0000                                         
     3  2  1.50        -6.8029   0.0000                                         
   Description                                                                  
     l       E           TYP  RCUT    TYP  RCUT                                 
     0    -18.5828119     23  1.200                                             
     0    -13.5018863     23  1.200                                             
     1     -7.0897853     23  1.500                                             
     1      9.5240782     23  1.500                                             
     2     -6.8029130      7  1.500                                             
  local pseudopotential read in
  partial core-charges read in
  partial kinetic energy density read in
  atomic valenz-charges read in
  non local Contribution for L=           0  read in
    real space projection operators read in
  non local Contribution for L=           0  read in
    real space projection operators read in
  non local Contribution for L=           1  read in
    real space projection operators read in
  non local Contribution for L=           1  read in
    real space projection operators read in
    PAW grid and wavefunctions read in
 
   number of l-projection  operators is LMAX  =           4
   number of lm-projection operators is LMMAX =           8
 
 POTCAR:    PAW_PBE H 15Jun2001                   
   VRHFIN =H: ultrasoft test                                                    
   LEXCH  = PE                                                                  
   EATOM  =    12.4884 eV,    0.9179 Ry                                         
                                                                                
   TITEL  = PAW_PBE H 15Jun2001                                                 
   LULTRA =        F    use ultrasoft PP ?                                      
   IUNSCR =        0    unscreen: 0-lin 1-nonlin 2-no                           
   RPACOR =    0.000    partial core radius                                     
   POMASS =    1.000; ZVAL   =    1.000    mass and valenz                      
   RCORE  =    1.100    outmost cutoff radius                                   
   RWIGS  =    0.700; RWIGS  =    0.370    wigner-seitz radius (au A)           
   ENMAX  =  250.000; ENMIN  =  200.000 eV                                      
   RCLOC  =    0.701    cutoff for local pot                                    
   LCOR   =        T    correct aug charges                                     
   LPAW   =        T    paw PP                                                  
   EAUG   =  400.000                                                            
   RMAX   =    1.123    core radius for proj-oper                               
   RAUG   =    1.200    factor for augmentation sphere                          
   RDEP   =    1.112    radius for radial grids                                 
   RDEPT  =    0.926    core radius for aug-charge                              
                                                                                
   Atomic configuration                                                         
    2 entries                                                                   
     n  l   j            E        occ.                                          
     1  0  0.50        -6.4927   1.0000                                         
     2  1  0.50        -3.4015   0.0000                                         
   Description                                                                  
     l       E           TYP  RCUT    TYP  RCUT                                 
     0     -6.4927494     23  1.100                                             
     0      6.8029130     23  1.100                                             
     1     -4.0817478     23  1.100                                             
  local pseudopotential read in
  atomic valenz-charges read in
  non local Contribution for L=           0  read in
    real space projection operators read in
  non local Contribution for L=           0  read in
    real space projection operators read in
  non local Contribution for L=           1  read in
    real space projection operators read in
    PAW grid and wavefunctions read in
 
   number of l-projection  operators is LMAX  =           3
   number of lm-projection operators is LMMAX =           5
 
 POTCAR:    PAW_PBE Pb_d 06Sep2000                
   VRHFIN =Pb:                                                                  
   LEXCH  = PE                                                                  
   EATOM  =  1661.6185 eV,  122.1255 Ry                                         
                                                                                
   TITEL  = PAW_PBE Pb_d 06Sep2000                                              
   LULTRA =        F    use ultrasoft PP ?                                      
   IUNSCR =        1    unscreen: 0-lin 1-nonlin 2-no                           
   RPACOR =    2.200    partial core radius                                     
   POMASS =  207.200; ZVAL   =   14.000    mass and valenz                      
   RCORE  =    2.500    outmost cutoff radius                                   
   RWIGS  =    3.260; RWIGS  =    1.725    wigner-seitz radius (au A)           
   ENMAX  =  237.835; ENMIN  =  178.376 eV                                      
   ICORE  =        3    local potential                                         
   LCOR   =        T    correct aug charges                                     
   LPAW   =        T    paw PP                                                  
   EAUG   =  391.914                                                            
   DEXC   =    0.000                                                            
   RMAX   =    2.565    core radius for proj-oper                               
   RAUG   =    1.300    factor for augmentation sphere                          
   RDEP   =    2.643    radius for radial grids                                 
   RDEPT  =    2.092    core radius for aug-charge                              
                                                                                
   Atomic configuration                                                         
   16 entries                                                                   
     n  l   j            E        occ.                                          
     1  0  0.50    -88091.8466   2.0000                                         
     2  0  0.50    -15753.4197   2.0000                                         
     2  1  1.50    -13508.1797   6.0000                                         
     3  0  0.50     -3781.7194   2.0000                                         
     3  1  1.50     -3138.2529   6.0000                                         
     3  2  2.50     -2483.2977  10.0000                                         
     4  0  0.50      -856.2895   2.0000                                         
     4  1  1.50      -645.4942   6.0000                                         
     4  2  2.50      -401.8768  10.0000                                         
     4  3  3.50      -132.9059  14.0000                                         
     5  0  0.50      -144.0950   2.0000                                         
     5  1  1.50       -85.7879   6.0000                                         
     5  2  2.50       -21.1769  10.0000                                         
     6  0  0.50       -12.0372   2.0000                                         
     6  1  1.50        -3.4971   2.0000                                         
     5  3  2.50        -2.7212   0.0000                                         
   Description                                                                  
     l       E           TYP  RCUT    TYP  RCUT                                 
     2    -21.1768523     23  2.500                                             
     2      1.3605826     23  2.500                                             
     0    -12.0371562     23  2.500                                             
     0     13.6058260     23  2.500                                             
     1     -3.4971339     23  2.500                                             
     1     13.6058260     23  2.500                                             
     3     -1.3605826      7  2.500                                             
  local pseudopotential read in
  partial core-charges read in
  partial kinetic energy density read in
  atomic valenz-charges read in
  non local Contribution for L=           2  read in
    real space projection operators read in
  non local Contribution for L=           2  read in
    real space projection operators read in
  non local Contribution for L=           0  read in
    real space projection operators read in
  non local Contribution for L=           0  read in
    real space projection operators read in
  non local Contribution for L=           1  read in
    real space projection operators read in
  non local Contribution for L=           1  read in
    real space projection operators read in
    PAW grid and wavefunctions read in
 
   number of l-projection  operators is LMAX  =           6
   number of lm-projection operators is LMMAX =          18
 
 POTCAR:    PAW_PBE I 08Apr2002                   
   VRHFIN =I : s2p5                                                             
   LEXCH  = PE                                                                  
   EATOM  =   315.8678 eV,   23.2156 Ry                                         
                                                                                
   TITEL  = PAW_PBE I 08Apr2002                                                 
   LULTRA =        F    use ultrasoft PP ?                                      
   IUNSCR =        1    unscreen: 0-lin 1-nonlin 2-no                           
   RPACOR =    2.200    partial core radius                                     
   POMASS =  126.904; ZVAL   =    7.000    mass and valenz                      
   RCORE  =    2.300    outmost cutoff radius                                   
   RWIGS  =    2.810; RWIGS  =    1.487    wigner-seitz radius (au A)           
   ENMAX  =  175.647; ENMIN  =  131.735 eV                                      
   ICORE  =        3    local potential                                         
   LCOR   =        T    correct aug charges                                     
   LPAW   =        T    paw PP                                                  
   EAUG   =  370.139                                                            
   DEXC   =    0.000                                                            
   RMAX   =    2.359    core radius for proj-oper                               
   RAUG   =    1.300    factor for augmentation sphere                          
   RDEP   =    2.392    radius for radial grids                                 
   RDEPT  =    2.170    core radius for aug-charge                              
                                                                                
   Atomic configuration                                                         
   13 entries                                                                   
     n  l   j            E        occ.                                          
     1  0  0.50    -32976.3739   2.0000                                         
     2  0  0.50     -5094.5933   2.0000                                         
     2  1  1.50     -4572.0131   6.0000                                         
     3  0  0.50     -1028.2813   2.0000                                         
     3  1  1.50      -859.0250   6.0000                                         
     3  2  2.50      -605.7620  10.0000                                         
     4  0  0.50      -180.5540   2.0000                                         
     4  1  1.50      -127.5306   6.0000                                         
     4  2  2.50       -50.2720  10.0000                                         
     5  0  0.50       -17.4058   2.0000                                         
     5  1  0.50        -7.0851   5.0000                                         
     5  2  1.50        -7.0750   0.0000                                         
     4  3  2.50        -7.0750   0.0000                                         
   Description                                                                  
     l       E           TYP  RCUT    TYP  RCUT                                 
     0    -17.4058016     23  2.300                                             
     0    -18.7663842     23  2.300                                             
     1     -7.0850686     23  2.300                                             
     1     -4.2150896     23  2.300                                             
     2     -7.0750295     23  2.300                                             
     3     -1.3605826     23  2.300                                             
  local pseudopotential read in
  partial core-charges read in
  partial kinetic energy density read in
  atomic valenz-charges read in
  non local Contribution for L=           0  read in
    real space projection operators read in
  non local Contribution for L=           0  read in
    real space projection operators read in
  non local Contribution for L=           1  read in
    real space projection operators read in
  non local Contribution for L=           1  read in
    real space projection operators read in
  non local Contribution for L=           2  read in
    real space projection operators read in
    PAW grid and wavefunctions read in
 
   number of l-projection  operators is LMAX  =           5
   number of lm-projection operators is LMMAX =          13
 

 ----------------------------------------------------------------------------- 
|                                                                             |
|  ADVICE TO THIS USER RUNNING 'VASP/VAMP'   (HEAR YOUR MASTER'S VOICE ...):  |
|                                                                             |
|      You have a (more or less) 'large supercell' and for larger cells       |
|      it might be more efficient to use real space projection opertators     |
|      So try LREAL= Auto  in the INCAR   file.                               |
|      Mind: At the moment your POTCAR file does not contain real space       |
|       projectors, and has to be modified,  BUT if you                       |
|      want to do an extremely  accurate calculation you might also keep the  |
|      reciprocal projection scheme          (i.e. LREAL=.FALSE.)             |
|                                                                             |
 ----------------------------------------------------------------------------- 


 ----------------------------------------------------------------------------- 
|                                                                             |
|  ADVICE TO THIS USER RUNNING 'VASP/VAMP'   (HEAR YOUR MASTER'S VOICE ...):  |
|                                                                             |
|      You enforced a specific xc-type in the INCAR file,                     |
|      a different type was found on the POTCAR file                          |
|          I HOPE YOU KNOW, WHAT YOU ARE  DOING                               |
|                                                                             |
 ----------------------------------------------------------------------------- 

  PAW_PBE C 08Apr2002                   :
 energy of atom  1       EATOM= -147.1560
 kinetic energy error for atom=    0.0032 (will be added to EATOM!!)
  PAW_PBE N 08Apr2002                   :
 energy of atom  2       EATOM= -264.5486
 kinetic energy error for atom=    0.0061 (will be added to EATOM!!)
  PAW_PBE H 15Jun2001                   :
 energy of atom  3       EATOM=  -12.4884
 kinetic energy error for atom=    0.0002 (will be added to EATOM!!)
  PAW_PBE Pb_d 06Sep2000                :
 energy of atom  4       EATOM=-1661.6185
 kinetic energy error for atom=    0.0012 (will be added to EATOM!!)
  PAW_PBE I 08Apr2002                   :
 energy of atom  5       EATOM= -315.8678
 kinetic energy error for atom=    0.0003 (will be added to EATOM!!)
 
 
 POSCAR: C N H Pb I                              
  positions in direct lattice
  No initial velocities read in
 exchange correlation table for  LEXCH =       14
   RHO(1)=    0.500       N(1)  =     2000
   RHO(2)=  100.500       N(2)  =     4000
 


--------------------------------------------------------------------------------------------------------


 ion  position               nearest neighbor table
   1  0.200  0.250  0.224-  25 1.10  33 1.10  17 1.10   9 1.48
   2  0.694  0.250  0.234-  26 1.10  34 1.10  18 1.10  10 1.48
   3  0.194  0.750  0.234-  27 1.10  35 1.10  19 1.10  11 1.48
   4  0.700  0.750  0.224-  28 1.10  36 1.10  20 1.10  12 1.48
   5  0.200  0.250  0.724-  29 1.10  37 1.10  21 1.10  13 1.48
   6  0.694  0.250  0.734-  30 1.10  38 1.10  22 1.10  14 1.48
   7  0.194  0.750  0.734-  31 1.10  39 1.10  23 1.10  15 1.48
   8  0.700  0.750  0.724-  32 1.10  40 1.10  24 1.10  16 1.48
   9  0.305  0.250  0.274-  57 1.04  41 1.05  49 1.05   1 1.48
  10  0.804  0.250  0.274-  58 1.05  42 1.05  50 1.05   2 1.48
  11  0.304  0.750  0.274-  59 1.05  43 1.05  51 1.05   3 1.48
  12  0.805  0.750  0.274-  60 1.04  44 1.05  52 1.05   4 1.48
  13  0.305  0.250  0.774-  61 1.04  45 1.05  53 1.05   5 1.48
  14  0.804  0.250  0.774-  62 1.05  46 1.05  54 1.05   6 1.48
  15  0.304  0.750  0.774-  63 1.05  47 1.05  55 1.05   7 1.48
  16  0.805  0.750  0.774-  64 1.04  48 1.05  56 1.05   8 1.48
  17  0.213  0.250  0.138-   1 1.10
  18  0.697  0.250  0.148-   2 1.10
  19  0.197  0.750  0.148-   3 1.10
  20  0.713  0.750  0.138-   4 1.10
  21  0.213  0.250  0.638-   5 1.10
  22  0.697  0.250  0.648-   6 1.10
  23  0.197  0.750  0.648-   7 1.10
  24  0.713  0.750  0.638-   8 1.10
  25  0.156  0.322  0.248-   1 1.10
  26  0.652  0.322  0.263-   2 1.10
  27  0.152  0.822  0.263-   3 1.10
  28  0.656  0.822  0.248-   4 1.10
  29  0.156  0.322  0.748-   5 1.10
  30  0.652  0.322  0.763-   6 1.10
  31  0.152  0.822  0.763-   7 1.10
  32  0.656  0.822  0.748-   8 1.10
  33  0.157  0.177  0.248-   1 1.10
  34  0.652  0.177  0.263-   2 1.10
  35  0.152  0.677  0.263-   3 1.10
  36  0.657  0.677  0.248-   4 1.10
  37  0.157  0.177  0.748-   5 1.10
  38  0.652  0.177  0.763-   6 1.10
  39  0.152  0.677  0.763-   7 1.10
  40  0.657  0.677  0.748-   8 1.10
  41  0.350  0.318  0.253-   9 1.05
  42  0.846  0.318  0.248-  10 1.05
  43  0.346  0.818  0.248-  11 1.05
  44  0.850  0.818  0.253-  12 1.05
  45  0.350  0.318  0.753-  13 1.05
  46  0.846  0.318  0.748-  14 1.05
  47  0.346  0.818  0.748-  15 1.05
  48  0.850  0.818  0.753-  16 1.05
  49  0.350  0.182  0.253-   9 1.05
  50  0.846  0.182  0.248-  10 1.05
  51  0.346  0.682  0.248-  11 1.05
  52  0.850  0.682  0.253-  12 1.05
  53  0.350  0.182  0.753-  13 1.05
  54  0.846  0.182  0.748-  14 1.05
  55  0.346  0.682  0.748-  15 1.05
  56  0.850  0.682  0.753-  16 1.05
  57  0.299  0.250  0.356-   9 1.04
  58  0.807  0.250  0.355-  10 1.05
  59  0.307  0.750  0.355-  11 1.05
  60  0.799  0.750  0.356-  12 1.04
  61  0.299  0.250  0.856-  13 1.04
  62  0.807  0.250  0.855-  14 1.05
  63  0.307  0.750  0.855-  15 1.05
  64  0.799  0.750  0.856-  16 1.04
  65  0.472  0.501  0.489-  90 3.08  85 3.14  87 3.15  77 3.17  73 3.22  89 3.25
  66  0.972  0.499  0.489-  89 3.08  88 3.14  86 3.15  78 3.17  74 3.22  90 3.25
  67  0.472  0.999  0.489-  92 3.08  85 3.14  87 3.15  79 3.17  75 3.22  91 3.25
  68  0.972  0.001  0.489-  91 3.08  88 3.14  86 3.15  80 3.17  76 3.22  92 3.25
  69  0.472  0.501  0.989-  94 3.08  81 3.14  83 3.15  73 3.17  77 3.22  93 3.25
  70  0.972  0.499  0.989-  93 3.08  84 3.14  82 3.15  74 3.17  78 3.22  94 3.25
  71  0.472  0.999  0.989-  96 3.08  81 3.14  83 3.15  75 3.17  79 3.22  95 3.25
  72  0.972  0.001  0.989-  95 3.08  84 3.14  82 3.15  76 3.17  80 3.22  96 3.25
  73  0.455  0.500  0.238-  69 3.17  65 3.22
  74  0.955  0.500  0.238-  70 3.17  66 3.22
  75  0.455  1.000  0.238-  71 3.17  67 3.22
  76  0.955  0.000  0.238-  72 3.17  68 3.22
  77  0.455  0.500  0.738-  65 3.17  69 3.22
  78  0.955  0.500  0.738-  66 3.17  70 3.22
  79  0.455  1.000  0.738-  67 3.17  71 3.22
  80  0.955  0.000  0.738-  68 3.17  72 3.22
  81  0.460  0.250  0.010-  71 3.14  69 3.14
  82  0.939  0.250  0.014-  72 3.15  70 3.15
  83  0.439  0.750  0.014-  69 3.15  71 3.15
  84  0.960  0.750  0.010-  70 3.14  72 3.14
  85  0.460  0.250  0.510-  67 3.14  65 3.14
  86  0.939  0.250  0.514-  68 3.15  66 3.15
  87  0.439  0.750  0.514-  65 3.15  67 3.15
  88  0.960  0.750  0.510-  66 3.14  68 3.14
  89  0.216  0.487  0.461-  66 3.08  65 3.25
  90  0.716  0.513  0.461-  65 3.08  66 3.25
  91  0.216  0.013  0.461-  68 3.08  67 3.25
  92  0.716  0.987  0.461-  67 3.08  68 3.25
  93  0.216  0.487  0.961-  70 3.08  69 3.25
  94  0.716  0.513  0.961-  69 3.08  70 3.25
  95  0.216  0.013  0.961-  72 3.08  71 3.25
  96  0.716  0.987  0.961-  71 3.08  72 3.25
 
  LATTYP: Found a triclinic cell.
 ALAT       =    17.8238589327
 B/A-ratio  =     0.6989248630
 C/A-ratio  =     1.0156975818
 COS(alpha) =     0.0001355172
 COS(beta)  =     0.5146378593
 COS(gamma) =     0.6988877578
  
  Lattice vectors:
  
 A1 = (  -0.1406063366, -12.4576271275, -12.7466742118)
 A2 = (  -0.0011956322, -12.4575380825,   0.0007464135)
 A3 = ( -12.7162481321,  -0.0020049566, -12.8856194186)


Analysis of symmetry for initial positions (statically):
=====================================================================
 Subroutine PRICEL returns following result:
 
  LATTYP: Found a triclinic cell.
 ALAT       =     8.8502626515
 B/A-ratio  =     1.4075896561
 C/A-ratio  =     0.7202149489
 COS(alpha) =     0.0000518785
 COS(beta)  =     0.0156138721
 COS(gamma) =     0.7036188608
  
  Lattice vectors:
  
 A1 = (  -6.2878208978,   6.2278110854,  -0.0694726034)
 A2 = (   0.0011956322,  12.4575380825,  -0.0007464135)
 A3 = (  -0.0697053522,  -0.0000445225,  -6.3737103126)
 
   4 primitive cells build up your supercell.
 

 Routine SETGRP: Setting up the symmetry group for a 
 triclinic supercell.


 Subroutine GETGRP returns: Found  1 space group operations
 (whereof  1 operations were pure point group operations)
 out of a pool of  2 trial point group operations.


The static configuration has the point symmetry C_1 .


Analysis of symmetry for dynamics (positions and initial velocities):
=====================================================================
 Subroutine PRICEL returns following result:
 
  LATTYP: Found a triclinic cell.
 ALAT       =     8.8502626515
 B/A-ratio  =     1.4075896561
 C/A-ratio  =     0.7202149489
 COS(alpha) =     0.0000518785
 COS(beta)  =     0.0156138721
 COS(gamma) =     0.7036188608
  
  Lattice vectors:
  
 A1 = (  -6.2878208978,   6.2278110854,  -0.0694726034)
 A2 = (   0.0011956322,  12.4575380825,  -0.0007464135)
 A3 = (  -0.0697053522,  -0.0000445225,  -6.3737103126)
 
   4 primitive cells build up your supercell.
 

 Routine SETGRP: Setting up the symmetry group for a 
 triclinic supercell.


 Subroutine GETGRP returns: Found  1 space group operations
 (whereof  1 operations were pure point group operations)
 out of a pool of  2 trial point group operations.


The dynamic configuration has the point symmetry C_1 .


Analysis of structural, dynamic, and magnetic symmetry:
=====================================================================
 Subroutine PRICEL returns following result:
 
  LATTYP: Found a triclinic cell.
 ALAT       =     8.8502626515
 B/A-ratio  =     1.4075896561
 C/A-ratio  =     0.7202149489
 COS(alpha) =     0.0000518785
 COS(beta)  =     0.0156138721
 COS(gamma) =     0.7036188608
  
  Lattice vectors:
  
 A1 = (  -6.2878208978,   6.2278110854,  -0.0694726034)
 A2 = (   0.0011956322,  12.4575380825,  -0.0007464135)
 A3 = (  -0.0697053522,  -0.0000445225,  -6.3737103126)
 
   4 primitive cells build up your supercell.
 

 Routine SETGRP: Setting up the symmetry group for a 
 triclinic supercell.


 Subroutine GETGRP returns: Found  1 space group operations
 (whereof  1 operations were pure point group operations)
 out of a pool of  2 trial point group operations.


The (compounded) configuration has the point symmetry C_1 .


 Subroutine INISYM returns: Found  1 space group operations
 (whereof  1 operations are pure point group operations),
 and found     4 'primitive' translations

 
 
 KPOINTS: Automatic 3x3x3                         

Automatic generation of k-mesh.
Space group operators:
 irot       det(A)        alpha          n_x          n_y          n_z        tau_x        tau_y        tau_z
    1     1.000000     0.000000     1.000000     0.000000     0.000000     0.000000     0.000000     0.000000
 
 Subroutine IBZKPT returns following result:
 ===========================================
 
 Found     27 irreducible k-points:
 
 Following reciprocal coordinates:
            Coordinates               Weight
  0.000000  0.000000  0.000000      1.000000
  0.333333 -0.000000 -0.000000      1.000000
 -0.333333  0.000000  0.000000      1.000000
  0.000000  0.333333 -0.000000      1.000000
  0.333333  0.333333  0.000000      1.000000
 -0.333333  0.333333  0.000000      1.000000
 -0.000000 -0.333333  0.000000      1.000000
  0.333333 -0.333333 -0.000000      1.000000
 -0.333333 -0.333333 -0.000000      1.000000
  0.000000  0.000000  0.333333      1.000000
  0.333333  0.000000  0.333333      1.000000
 -0.333333  0.000000  0.333333      1.000000
  0.000000  0.333333  0.333333      1.000000
  0.333333  0.333333  0.333333      1.000000
 -0.333333  0.333333  0.333333      1.000000
  0.000000 -0.333333  0.333333      1.000000
  0.333333 -0.333333  0.333333      1.000000
 -0.333333 -0.333333  0.333333      1.000000
  0.000000  0.000000 -0.333333      1.000000
  0.333333 -0.000000 -0.333333      1.000000
 -0.333333 -0.000000 -0.333333      1.000000
 -0.000000  0.333333 -0.333333      1.000000
  0.333333  0.333333 -0.333333      1.000000
 -0.333333  0.333333 -0.333333      1.000000
 -0.000000 -0.333333 -0.333333      1.000000
  0.333333 -0.333333 -0.333333      1.000000
 -0.333333 -0.333333 -0.333333      1.000000
 
 Following cartesian coordinates:
            Coordinates               Weight
  0.000000  0.000000  0.000000      1.000000
  0.026507 -0.000003 -0.000290      1.000000
 -0.026507  0.000003  0.000290      1.000000
 -0.000004  0.026758 -0.000000      1.000000
  0.026503  0.026755 -0.000290      1.000000
 -0.026511  0.026760  0.000290      1.000000
  0.000004 -0.026758  0.000000      1.000000
  0.026511 -0.026760 -0.000290      1.000000
 -0.026503 -0.026755  0.000290      1.000000
 -0.000287  0.000002  0.026152      1.000000
  0.026220 -0.000001  0.025862      1.000000
 -0.026794  0.000004  0.026442      1.000000
 -0.000291  0.026759  0.026152      1.000000
  0.026215  0.026757  0.025862      1.000000
 -0.026798  0.026762  0.026442      1.000000
 -0.000283 -0.026756  0.026152      1.000000
  0.026224 -0.026759  0.025862      1.000000
 -0.026790 -0.026753  0.026442      1.000000
  0.000287 -0.000002 -0.026152      1.000000
  0.026794 -0.000004 -0.026442      1.000000
 -0.026220  0.000001 -0.025862      1.000000
  0.000283  0.026756 -0.026152      1.000000
  0.026790  0.026753 -0.026442      1.000000
 -0.026224  0.026759 -0.025862      1.000000
  0.000291 -0.026759 -0.026152      1.000000
  0.026798 -0.026762 -0.026442      1.000000
 -0.026215 -0.026757 -0.025862      1.000000
 


--------------------------------------------------------------------------------------------------------




 Dimension of arrays:
   k-points           NKPTS =     27   k-points in BZ     NKDIM =     27   number of bands    NBANDS=    600
   number of dos      NEDOS =    301   number of ions     NIONS =     96
   non local maximal  LDIM  =      6   non local SUM 2l+1 LMDIM =     18
   total plane-waves  NPLWV = ******
   max r-space proj   IRMAX =      1   max aug-charges    IRDMAX= 314103
   dimension x,y,z NGX =   112 NGY =  108 NGZ =  112
   dimension x,y,z NGXF=   224 NGYF=  216 NGZF=  224
   support grid    NGXF=   448 NGYF=  432 NGZF=  448
   ions per type =               8   8  48   8  24
 NGX,Y,Z   is equivalent  to a cutoff of  14.80, 14.41, 14.61 a.u.
 NGXF,Y,Z  is equivalent  to a cutoff of  29.61, 28.83, 29.21 a.u.


 I would recommend the setting:
   dimension x,y,z NGX =   109 NGY =  107 NGZ =  110
 SYSTEM =  MAPbI3-Cubic                            
 POSCAR =  C N H Pb I                              

 Startparameter for this run:
   NWRITE =      2    write-flag & timer
   PREC   = accura    normal or accurate (medium, high low for compatibility)
   ISTART =      0    job   : 0-new  1-cont  2-samecut
   ICHARG =      2    charge: 1-file 2-atom 10-const
   ISPIN  =      1    spin polarized calculation?
   LNONCOLLINEAR =      T non collinear calculations
   LSORBIT =      T    spin-orbit coupling
   INIWAV =      1    electr: 0-lowe 1-rand  2-diag
   LASPH  =      F    aspherical Exc in radial PAW
   METAGGA=      F    non-selfconsistent MetaGGA calc.

 Electronic Relaxation 1
   ENCUT  =  700.0 eV  51.45 Ry    7.17 a.u.  27.13 26.87 27.50*2*pi/ulx,y,z
   ENINI  =  700.0     initial cutoff
   ENAUG  =  644.9 eV  augmentation charge cutoff
   NELM   =     60;   NELMIN=  2; NELMDL= -5     # of ELM steps 
   EDIFF  = 0.1E-07   stopping-criterion for ELM
   LREAL  =      F    real-space projection
   NLSPLINE    = F    spline interpolate recip. space projectors
   LCOMPAT=      F    compatible to vasp.4.4
   GGA_COMPAT  = T    GGA compatible to vasp.4.4-vasp.4.6
   LMAXPAW     = -100 max onsite density
   LMAXMIX     =    2 max onsite mixed and CHGCAR
   VOSKOWN=      0    Vosko Wilk Nusair interpolation
   ROPT   =    0.00000   0.00000   0.00000   0.00000
   ROPT   =    0.00000
 Ionic relaxation
   EDIFFG = 0.1E-06   stopping-criterion for IOM
   NSW    =      0    number of steps for IOM
   NBLOCK =      1;   KBLOCK =      1    inner block; outer block 
   IBRION =     -1    ionic relax: 0-MD 1-quasi-New 2-CG
   NFREE  =      0    steps in history (QN), initial steepest desc. (CG)
   ISIF   =      2    stress and relaxation
   IWAVPR =     10    prediction:  0-non 1-charg 2-wave 3-comb
   ISYM   =      2    0-nonsym 1-usesym 2-fastsym
   LCORR  =      T    Harris-Foulkes like correction to forces

   POTIM  = 0.5000    time-step for ionic-motion
   TEIN   =    0.0    initial temperature
   TEBEG  =    0.0;   TEEND  =   0.0 temperature during run
   SMASS  =  -3.00    Nose mass-parameter (am)
   estimated Nose-frequenzy (Omega)   =  0.10E-29 period in steps =****** mass=  -0.362E-26a.u.
   SCALEE = 1.0000    scale energy and forces
   NPACO  =    256;   APACO  = 16.0  distance and # of slots for P.C.
   PSTRESS=    0.0 pullay stress

  Mass of Ions in am
   POMASS =  12.01 14.00  1.00207.20126.90
  Ionic Valenz
   ZVAL   =   4.00  5.00  1.00 14.00  7.00
  Atomic Wigner-Seitz radii
   RWIGS  =  -1.00 -1.00 -1.00 -1.00 -1.00
  virtual crystal weights 
   VCA    =   1.00  1.00  1.00  1.00  1.00
   NELECT =     400.0000    total number of electrons
   NUPDOWN=      -1.0000    fix difference up-down

 DOS related values:
   EMIN   =  10.00;   EMAX   =-10.00  energy-range for DOS
   EFERMI =   0.00
   ISMEAR =     0;   SIGMA  =   0.00  broadening in eV -4-tet -1-fermi 0-gaus

 Electronic relaxation 2 (details)
   IALGO  =     38    algorithm
   LDIAG  =      T    sub-space diagonalisation (order eigenvalues)
   LSUBROT=      F    optimize rotation matrix (better conditioning)
   TURBO    =      0    0=normal 1=particle mesh
   IRESTART =      0    0=no restart 2=restart with 2 vectors
   NREBOOT  =      0    no. of reboots
   NMIN     =      0    reboot dimension
   EREF     =   0.00    reference energy to select bands
   IMIX   =      4    mixing-type and parameters
     AMIX     =   0.40;   BMIX     =  1.00
     AMIX_MAG =   1.60;   BMIX_MAG =  1.00
     AMIN     =   0.10
     WC   =   100.;   INIMIX=   1;  MIXPRE=   1;  MAXMIX= -45

 Intra band minimization:
   WEIMIN = 0.0000     energy-eigenvalue tresh-hold
   EBREAK =  0.42E-11  absolut break condition
   DEPER  =   0.30     relativ break condition  

   TIME   =   0.40     timestep for ELM

  volume/ion in A,a.u.               =      20.80       140.38
  Fermi-wavevector in a.u.,A,eV,Ry     =   0.957863  1.810099 12.483376  0.917502
  Thomas-Fermi vector in A             =   2.086919
 
 Write flags
   LWAVE  =      F    write WAVECAR
   LCHARG =      F    write CHGCAR
   LVTOT  =      F    write LOCPOT, total local potential
   LVHAR  =      F    write LOCPOT, Hartree potential only
   LELF   =      F    write electronic localiz. function (ELF)
   LORBIT =      0    0 simple, 1 ext, 2 COOP (PROOUT)


 Dipole corrections
   LMONO  =      F    monopole corrections only (constant potential shift)
   LDIPOL =      F    correct potential (dipole corrections)
   IDIPOL =      0    1-x, 2-y, 3-z, 4-all directions 
   EPSILON=  1.0000000 bulk dielectric constant

 Core level calculations are selected ICORELEVEL =  1
 Exchange correlation treatment:
   GGA     =    PS    GGA type
   LEXCH   =    14    internal setting for exchange type
   VOSKOWN=      0    Vosko Wilk Nusair interpolation
   LHFCALC =     F    Hartree Fock is set to
   LHFONE  =     F    Hartree Fock one center treatment
   AEXX    =    0.0000 exact exchange contribution

 Linear response parameters
   LEPSILON=     F    determine dielectric tensor
   LRPA    =     F    only Hartree local field effects (RPA)
   LNABLA  =     F    use nabla operator in PAW spheres
   LVEL    =     F    velocity operator in full k-point grid
   LINTERFAST=   F  fast interpolation
   KINTER  =     0    interpolate to denser k-point grid
   CSHIFT  =0.1000    complex shift for real part using Kramers Kronig
   OMEGAMAX=  -1.0    maximum frequency
   DEG_THRESHOLD= 0.2000000E-02 threshold for treating states as degnerate
   RTIME   =    0.100 relaxation time in fs

 Orbital magnetization related:
   ORBITALMAG=     F  switch on orbital magnetization
   LCHIMAG   =     F  perturbation theory with respect to B field
   DQ        =  0.001000  dq finite difference perturbation B field



--------------------------------------------------------------------------------------------------------


 Static calculation
 charge density and potential will be updated during run
 non collinear spin polarized calculation
 Variant of blocked Davidson
 Davidson routine will perform the subspace rotation
 perform sub-space diagonalisation
    after iterative eigenvector-optimisation
 modified Broyden-mixing scheme, WC =      100.0
 initial mixing is a Kerker type mixing with AMIX =  0.4000 and BMIX =      1.0000
 Hartree-type preconditioning will be used
 using additional bands          400
 reciprocal scheme for non local part
 use partial core corrections
 calculate Harris-corrections to forces 
   (improved forces if not selfconsistent)
 use gradient corrections 
 use of overlap-Matrix (Vanderbilt PP)
 Gauss-broadening in eV      SIGMA  =   0.00


--------------------------------------------------------------------------------------------------------


  energy-cutoff  :      700.00
  volume of cell :     1996.98
      direct lattice vectors                 reciprocal lattice vectors
    12.576837428  0.001915912  0.138198793     0.079520802 -0.000007684 -0.000869670
     0.001195632 12.457538083 -0.000746413    -0.000012224  0.080272684 -0.000000427
     0.139410704  0.000089045 12.747420625    -0.000862111  0.000004784  0.078456671

  length of vectors
    12.577596840 12.457538162 12.748182927     0.079525558  0.080272685  0.078461408


 
 k-points in units of 2pi/SCALE and weight: Automatic 3x3x3                         
   0.00000000  0.00000000  0.00000000       0.037
   0.02650693 -0.00000256 -0.00028989       0.037
  -0.02650693  0.00000256  0.00028989       0.037
  -0.00000407  0.02675756 -0.00000014       0.037
   0.02650286  0.02675500 -0.00029003       0.037
  -0.02651101  0.02676012  0.00028975       0.037
   0.00000407 -0.02675756  0.00000014       0.037
   0.02651101 -0.02676012 -0.00028975       0.037
  -0.02650286 -0.02675500  0.00029003       0.037
  -0.00028737  0.00000159  0.02615222       0.037
   0.02621956 -0.00000097  0.02586233       0.037
  -0.02679430  0.00000416  0.02644211       0.037
  -0.00029144  0.02675916  0.02615208       0.037
   0.02621549  0.02675659  0.02586219       0.037
  -0.02679838  0.02676172  0.02644197       0.037
  -0.00028330 -0.02675597  0.02615237       0.037
   0.02622364 -0.02675853  0.02586248       0.037
  -0.02679023 -0.02675341  0.02644226       0.037
   0.00028737 -0.00000159 -0.02615222       0.037
   0.02679430 -0.00000416 -0.02644211       0.037
  -0.02621956  0.00000097 -0.02586233       0.037
   0.00028330  0.02675597 -0.02615237       0.037
   0.02679023  0.02675341 -0.02644226       0.037
  -0.02622364  0.02675853 -0.02586248       0.037
   0.00029144 -0.02675916 -0.02615208       0.037
   0.02679838 -0.02676172 -0.02644197       0.037
  -0.02621549 -0.02675659 -0.02586219       0.037
 
 k-points in reciprocal lattice and weights: Automatic 3x3x3                         
   0.00000000  0.00000000  0.00000000       0.037
   0.33333333 -0.00000000 -0.00000000       0.037
  -0.33333333  0.00000000  0.00000000       0.037
   0.00000000  0.33333333 -0.00000000       0.037
   0.33333333  0.33333333  0.00000000       0.037
  -0.33333333  0.33333333  0.00000000       0.037
  -0.00000000 -0.33333333  0.00000000       0.037
   0.33333333 -0.33333333 -0.00000000       0.037
  -0.33333333 -0.33333333 -0.00000000       0.037
   0.00000000  0.00000000  0.33333333       0.037
   0.33333333  0.00000000  0.33333333       0.037
  -0.33333333  0.00000000  0.33333333       0.037
   0.00000000  0.33333333  0.33333333       0.037
   0.33333333  0.33333333  0.33333333       0.037
  -0.33333333  0.33333333  0.33333333       0.037
   0.00000000 -0.33333333  0.33333333       0.037
   0.33333333 -0.33333333  0.33333333       0.037
  -0.33333333 -0.33333333  0.33333333       0.037
   0.00000000  0.00000000 -0.33333333       0.037
   0.33333333 -0.00000000 -0.33333333       0.037
  -0.33333333 -0.00000000 -0.33333333       0.037
  -0.00000000  0.33333333 -0.33333333       0.037
   0.33333333  0.33333333 -0.33333333       0.037
  -0.33333333  0.33333333 -0.33333333       0.037
  -0.00000000 -0.33333333 -0.33333333       0.037
   0.33333333 -0.33333333 -0.33333333       0.037
  -0.33333333 -0.33333333 -0.33333333       0.037
 
 position of ions in fractional coordinates (direct lattice) 
   0.20033950  0.24992222  0.22370503
   0.69364877  0.24989433  0.23412568
   0.19364877  0.74989433  0.23412568
   0.70033950  0.74992222  0.22370503
   0.20033950  0.24992222  0.72370503
   0.69364877  0.24989433  0.73412568
   0.19364877  0.74989433  0.73412568
   0.70033950  0.74992222  0.72370503
   0.30545783  0.25001422  0.27417901
   0.80361661  0.24999306  0.27358958
   0.30361661  0.74999306  0.27358958
   0.80545783  0.75001422  0.27417901
   0.30545783  0.25001422  0.77417901
   0.80361661  0.24999306  0.77358958
   0.30361661  0.74999306  0.77358958
   0.80545783  0.75001422  0.77417901
   0.21294680  0.24982065  0.13799485
   0.69720354  0.24982154  0.14778241
   0.19720354  0.74982154  0.14778241
   0.71294680  0.74982065  0.13799485
   0.21294680  0.24982065  0.63799485
   0.69720354  0.24982154  0.64778241
   0.19720354  0.74982154  0.64778241
   0.71294680  0.74982065  0.63799485
   0.15642877  0.32240423  0.24821508
   0.65224684  0.32230014  0.26281555
   0.15224684  0.82230014  0.26281555
   0.65642877  0.82240423  0.24821508
   0.15642877  0.32240423  0.74821508
   0.65224684  0.32230014  0.76281555
   0.15224684  0.82230014  0.76281555
   0.65642877  0.82240423  0.74821508
   0.15651256  0.17746808  0.24837514
   0.65237311  0.17748406  0.26292628
   0.15237311  0.67748406  0.26292628
   0.65651256  0.67746808  0.24837514
   0.15651256  0.17746808  0.74837514
   0.65237311  0.17748406  0.76292628
   0.15237311  0.67748406  0.76292628
   0.65651256  0.67746808  0.74837514
   0.35011444  0.31798585  0.25324386
   0.84615471  0.31776271  0.24826912
   0.34615471  0.81776271  0.24826912
   0.85011444  0.81798585  0.25324386
   0.35011444  0.31798585  0.75324386
   0.84615471  0.31776271  0.74826912
   0.34615471  0.81776271  0.74826912
   0.85011444  0.81798585  0.75324386
   0.35016454  0.18199811  0.25340399
   0.84624606  0.18221166  0.24837780
   0.34624606  0.68221166  0.24837780
   0.85016454  0.68199811  0.25340399
   0.35016454  0.18199811  0.75340399
   0.84624606  0.18221166  0.74837780
   0.34624606  0.68221166  0.74837780
   0.85016454  0.68199811  0.75340399
   0.29941326  0.25012244  0.35575829
   0.80692689  0.25006460  0.35546020
   0.30692689  0.75006460  0.35546020
   0.79941326  0.75012244  0.35575829
   0.29941326  0.25012244  0.85575829
   0.80692689  0.25006460  0.85546020
   0.30692689  0.75006460  0.85546020
   0.79941326  0.75012244  0.85575829
   0.47244471  0.50053531  0.48881072
   0.97243884  0.49944428  0.48881217
   0.47243884  0.99944428  0.48881217
   0.97244471  0.00053531  0.48881072
   0.47244471  0.50053531  0.98881072
   0.97243884  0.49944428  0.98881217
   0.47243884  0.99944428  0.98881217
   0.97244471  0.00053531  0.98881072
   0.45475180  0.50028152  0.23757101
   0.95473555  0.49970058  0.23757447
   0.45473555  0.99970058  0.23757447
   0.95475180  0.00028152  0.23757101
   0.45475180  0.50028152  0.73757101
   0.95473555  0.49970058  0.73757447
   0.45473555  0.99970058  0.73757447
   0.95475180  0.00028152  0.73757101
   0.46014385  0.24997693  0.00985744
   0.93912703  0.24998109  0.01380699
   0.43912703  0.74998109  0.01380699
   0.96014385  0.74997693  0.00985744
   0.46014385  0.24997693  0.50985744
   0.93912703  0.24998109  0.51380699
   0.43912703  0.74998109  0.51380699
   0.96014385  0.74997693  0.50985744
   0.21617398  0.48745494  0.46123970
   0.71616890  0.51253993  0.46123970
   0.21616890  0.01253993  0.46123970
   0.71617398  0.98745494  0.46123970
   0.21617398  0.48745494  0.96123970
   0.71616890  0.51253993  0.96123970
   0.21616890  0.01253993  0.96123970
   0.71617398  0.98745494  0.96123970
 
 position of ions in cartesian coordinates  (Angst):
   2.55112295  3.11381938  2.87916227
   8.75684621  3.11441789  3.08017338
   2.46902532  9.34222898  3.01070077
   8.84013948  9.34354638  2.94788846
   2.62082831  3.11386391  9.25287259
   8.82655157  3.11446242  9.45388369
   2.53873067  9.34227350  9.38441108
   8.90984484  9.34359090  9.32159878
   3.88021591  3.11517136  3.53710245
  10.14539562  3.11586205  3.59843374
   3.85757473  9.34367314  3.52896114
  10.16923244  9.34489836  3.60582864
   3.94992126  3.11521588  9.91081276
  10.21510098  3.11590658  9.97214406
   3.92728008  9.34371766  9.90267145
  10.23893779  9.34494288  9.97953895
   2.69773390  3.11257057  1.78832087
   8.78951669  3.11351029  1.98001071
   2.50169579  9.34132137  1.91053810
   8.98675043  9.34229757  1.85704706
   2.76743925  3.11261509  8.16203118
   8.85922204  3.11355481  8.35372102
   2.57140114  9.34136589  8.28424842
   9.05645578  9.34234209  8.23075737
   2.00236856  4.01668477  3.18547971
   8.24022713  4.01633937  3.44011957
   1.95240624 10.24415046  3.37064697
   8.29138509 10.24641176  3.25420590
   2.07207391  4.01672929  9.55919002
   8.30993249  4.01638390  9.81382988
   2.02211159 10.24419498  9.74435728
   8.36109044 10.24645629  9.62791621
   2.00327138  2.21113739  3.18763974
   8.24165743  2.21228778  3.44165652
   1.95383653  8.44009887  3.37218392
   8.29228791  8.44086439  3.25636593
   2.07297674  2.21118191  9.56135005
   8.31136278  2.21233230  9.81536684
   2.02354189  8.44014339  9.74589423
   8.36199327  8.44090891  9.63007624
   4.43901755  3.96201420  3.27635404
  10.67694153  3.96018437  3.28149132
   4.38912063 10.18799545  3.21201871
  10.72803408 10.19174120  3.34508023
   4.50872290  3.96205873  9.65006435
  10.74664688  3.96022889  9.65520163
   4.45882599 10.18803998  9.58572903
  10.79773943 10.19178572  9.71879054
   4.43950734  2.26794190  3.27850378
  10.67794350  2.27155214  3.28299053
   4.39012260  8.49936323  3.21351793
  10.72852387  8.49766889  3.34722997
   4.50921269  2.26798642  9.65221409
  10.74764885  2.27159667  9.65670085
   4.45982795  8.49940775  9.58722824
  10.79822922  8.49771342  9.72094028
   3.81556741  3.11651516  4.57619241
  10.19844225  3.11676696  4.64253036
   3.91062135  9.34457805  4.57305776
  10.10458394  9.34624216  4.64491860
   3.88527277  3.11655968 10.94990272
  10.26814760  3.11681148 11.01624067
   3.98032671  9.34462257 10.94676807
  10.17428930  9.34628668 11.01862891
   6.01060420  6.23638640  6.29599353
  12.29894804  6.22375274  6.36511147
   6.01112714 12.45156382  6.29563887
  12.29842510  0.00857532  6.36546614
   6.08030955  6.23643093 12.66970385
  12.36865339  6.22379726 12.73882179
   6.08083250 12.45160835 12.66934918
  12.36813045  0.00861984 12.73917645
   5.75305760  6.23316848  3.09089037
  12.04127162  6.22688936  3.16003203
   5.75345072 12.45470045  3.09055942
  12.04087849  0.00535739  3.16036297
   5.82276295  6.23321300  9.46460068
  12.11097697  6.22693389  9.53374234
   5.82315608 12.45474497  9.46426973
  12.11058385  0.00540192  9.53407328
   5.78882754  3.11497966  0.18906172
  11.81347167  3.11594942  0.30560317
   5.52565077  9.34376050  0.23613056
  12.07784407  9.34470665  0.25778791
   5.85853289  3.11502418  6.56277203
  11.88317702  3.11599394  6.67931348
   5.59535612  9.34380503  6.60984087
  12.14754942  9.34475118  6.63149822
   2.78366951  6.07294376  5.90912760
   9.07205441  6.38639887  5.97820762
   2.78303788  0.15667188  5.90948143
   9.07268604 12.30267076  5.97785379
   2.85337486  6.07298829 12.28283792
   9.14175976  6.38644340 12.35191794
   2.85274323  0.15671640 12.28319175
   9.14239139 12.30271528 12.35156411
 
 Euler angles ALPHA=     0.0000000  BETA=     0.0000000

 transformation matrix from SAXIS to cartesian coordinates
 ---------------------------------------------------------
     1.0000000 m_x     0.0000000 m_y     0.0000000 m_z
     0.0000000 m_x     1.0000000 m_y     0.0000000 m_z
     0.0000000 m_x     0.0000000 m_y     1.0000000 m_z

 transformation matrix from cartesian coordinates to SAXIS
 ---------------------------------------------------------
     1.0000000 m_x     0.0000000 m_y     0.0000000 m_z
     0.0000000 m_x     1.0000000 m_y     0.0000000 m_z
     0.0000000 m_x     0.0000000 m_y     1.0000000 m_z




--------------------------------------------------------------------------------------------------------


 k-point  1 :   0.0000 0.0000 0.0000  plane waves:  168014
 k-point  2 :   0.3333-0.0000-0.0000  plane waves:  168006
 k-point  3 :  -0.3333 0.0000 0.0000  plane waves:  168006
 k-point  4 :   0.0000 0.3333-0.0000  plane waves:  167990
 k-point  5 :   0.3333 0.3333 0.0000  plane waves:  168036
 k-point  6 :  -0.3333 0.3333 0.0000  plane waves:  168038
 k-point  7 :  -0.0000-0.3333 0.0000  plane waves:  167990
 k-point  8 :   0.3333-0.3333-0.0000  plane waves:  168038
 k-point  9 :  -0.3333-0.3333-0.0000  plane waves:  168036
 k-point 10 :   0.0000 0.0000 0.3333  plane waves:  167920
 k-point 11 :   0.3333 0.0000 0.3333  plane waves:  167874
 k-point 12 :  -0.3333 0.0000 0.3333  plane waves:  167964
 k-point 13 :   0.0000 0.3333 0.3333  plane waves:  167968
 k-point 14 :   0.3333 0.3333 0.3333  plane waves:  168024
 k-point 15 :  -0.3333 0.3333 0.3333  plane waves:  167940
 k-point 16 :   0.0000-0.3333 0.3333  plane waves:  167954
 k-point 17 :   0.3333-0.3333 0.3333  plane waves:  168026
 k-point 18 :  -0.3333-0.3333 0.3333  plane waves:  167946
 k-point 19 :   0.0000 0.0000-0.3333  plane waves:  167920
 k-point 20 :   0.3333-0.0000-0.3333  plane waves:  167964
 k-point 21 :  -0.3333-0.0000-0.3333  plane waves:  167874
 k-point 22 :  -0.0000 0.3333-0.3333  plane waves:  167954
 k-point 23 :   0.3333 0.3333-0.3333  plane waves:  167946
 k-point 24 :  -0.3333 0.3333-0.3333  plane waves:  168026
 k-point 25 :  -0.0000-0.3333-0.3333  plane waves:  167968
 k-point 26 :   0.3333-0.3333-0.3333  plane waves:  167940
 k-point 27 :  -0.3333-0.3333-0.3333  plane waves:  168024

 maximum and minimum number of plane-waves per node :      7122     6820

 maximum number of plane-waves:    168038
 maximum index in each direction: 
   IXMAX=   27   IYMAX=   27   IZMAX=   27
   IXMIN=  -27   IYMIN=  -27   IZMIN=  -27

 NGX is ok and might be reduce to 110
 WARNING: aliasing errors must be expected set NGY to 110 to avoid them
 NGZ is ok and might be reduce to 110
 aliasing errors are usually negligible using standard VASP settings
 and one can safely disregard these warnings

 parallel 3D FFT for wavefunctions:
    minimum data exchange during FFTs selected (reduces bandwidth)
 parallel 3D FFT for charge:
    minimum data exchange during FFTs selected (reduces bandwidth)


 total amount of memory used by VASP on root node   392927. kBytes
========================================================================

   base      :      30000. kBytes
   nonl-proj :      73667. kBytes
   fftplans  :      22714. kBytes
   grid      :      35610. kBytes
   one-center:        248. kBytes
   wavefun   :     230688. kBytes
 
     INWAV:  cpu time    0.0000: real time    0.0000
 Broyden mixing: mesh for mixing (old mesh)
   NGX = 55   NGY = 53   NGZ = 55
  (NGX  =224   NGY  =216   NGZ  =224)
  gives a total of 160325 points

 initial charge density was supplied:
 charge density of overlapping atoms calculated
 number of electron     400.0000000 magnetization      96.0000000     96.0000000     96.0000000
 keeping initial charge density in first step


--------------------------------------------------------------------------------------------------------


 Maximum index for augmentation-charges         5323 (set IRDMAX)


--------------------------------------------------------------------------------------------------------


 First call to EWALD:  gamma=   0.141
 Maximum number of real-space cells 3x 3x 3
 Maximum number of reciprocal cells 3x 3x 3

 FEWALD executed in parallel
    FEWALD:  cpu time    0.0080: real time    0.0069


----------------------------------------- Iteration    1(   1)  ---------------------------------------


    POTLOK:  cpu time    0.6280: real time    0.6255
    SETDIJ:  cpu time    2.1441: real time    2.1485
     EDDAV:  cpu time  236.2388: real time  236.3963
       DOS:  cpu time    0.0080: real time    0.0068
    --------------------------------------------
      LOOP:  cpu time  239.0189: real time  239.2164

 eigenvalue-minimisations  : 32544
 total energy-change (2. order) : 0.4232297E+04  (-0.1930576E+05)
 number of electron     400.0000000 magnetization      96.0000000     96.0000000     96.0000000
 augmentation part      400.0000000 magnetization      96.0000000     96.0000000     96.0000000

 Free energy of the ion-electron system (eV)
  ---------------------------------------------------
  alpha Z        PSCENC =       370.05370877
  Ewald energy   TEWEN  =    -15514.32937400
  -Hartree energ DENC   =     -8132.09243735
  -exchange      EXHF   =         0.00000000
  -V(xc)+E(xc)   XCENC  =       673.95793417
  PAW double counting   =     20172.90621935   -19413.33347658
  entropy T*S    EENTRO =        -0.00002126
  eigenvalues    EBANDS =      1326.12800979
  atomic energy  EATOM  =     24749.00668030
  Solvation  Ediel_sol  =         0.00000000
  ---------------------------------------------------
  free energy    TOTEN  =      4232.29724319 eV

  energy without entropy =     4232.29726445  energy(sigma->0) =     4232.29725382


--------------------------------------------------------------------------------------------------------




----------------------------------------- Iteration    1(   2)  ---------------------------------------


     EDDAV:  cpu time  252.6558: real time  252.8213
       DOS:  cpu time    0.0080: real time    0.0066
    --------------------------------------------
      LOOP:  cpu time  252.6638: real time  252.8657

 eigenvalue-minimisations  : 35648
 total energy-change (2. order) :-0.3387252E+04  (-0.3136782E+04)
 number of electron     400.0000000 magnetization      96.0000000     96.0000000     96.0000000
 augmentation part      400.0000000 magnetization      96.0000000     96.0000000     96.0000000

 Free energy of the ion-electron system (eV)
  ---------------------------------------------------
  alpha Z        PSCENC =       370.05370877
  Ewald energy   TEWEN  =    -15514.32937400
  -Hartree energ DENC   =     -8132.09243735
  -exchange      EXHF   =         0.00000000
  -V(xc)+E(xc)   XCENC  =       673.95793417
  PAW double counting   =     20172.90621935   -19413.33347658
  entropy T*S    EENTRO =        -0.00000523
  eigenvalues    EBANDS =     -2061.12351306
  atomic energy  EATOM  =     24749.00668030
  Solvation  Ediel_sol  =         0.00000000
  ---------------------------------------------------
  free energy    TOTEN  =       845.04573636 eV

  energy without entropy =      845.04574159  energy(sigma->0) =      845.04573898


--------------------------------------------------------------------------------------------------------




----------------------------------------- Iteration    1(   3)  ---------------------------------------


     EDDAV:  cpu time  297.2426: real time  297.4376
       DOS:  cpu time    0.0080: real time    0.0071
    --------------------------------------------
      LOOP:  cpu time  297.2506: real time  297.4894

 eigenvalue-minimisations  : 43984
 total energy-change (2. order) :-0.6097551E+03  (-0.5896023E+03)
 number of electron     400.0000000 magnetization      96.0000000     96.0000000     96.0000000
 augmentation part      400.0000000 magnetization      96.0000000     96.0000000     96.0000000

 Free energy of the ion-electron system (eV)
  ---------------------------------------------------
  alpha Z        PSCENC =       370.05370877
  Ewald energy   TEWEN  =    -15514.32937400
  -Hartree energ DENC   =     -8132.09243735
  -exchange      EXHF   =         0.00000000
  -V(xc)+E(xc)   XCENC  =       673.95793417
  PAW double counting   =     20172.90621935   -19413.33347658
  entropy T*S    EENTRO =        -0.00002713
  eigenvalues    EBANDS =     -2670.87855337
  atomic energy  EATOM  =     24749.00668030
  Solvation  Ediel_sol  =         0.00000000
  ---------------------------------------------------
  free energy    TOTEN  =       235.29067416 eV

  energy without entropy =      235.29070129  energy(sigma->0) =      235.29068772


--------------------------------------------------------------------------------------------------------




----------------------------------------- Iteration    1(   4)  ---------------------------------------


     EDDAV:  cpu time  298.1506: real time  298.3502
       DOS:  cpu time    0.0080: real time    0.0074
    --------------------------------------------
      LOOP:  cpu time  298.1626: real time  298.4114

 eigenvalue-minimisations  : 44128
 total energy-change (2. order) :-0.4561645E+02  (-0.4456442E+02)
 number of electron     400.0000000 magnetization      96.0000000     96.0000000     96.0000000
 augmentation part      400.0000000 magnetization      96.0000000     96.0000000     96.0000000

 Free energy of the ion-electron system (eV)
  ---------------------------------------------------
  alpha Z        PSCENC =       370.05370877
  Ewald energy   TEWEN  =    -15514.32937400
  -Hartree energ DENC   =     -8132.09243735
  -exchange      EXHF   =         0.00000000
  -V(xc)+E(xc)   XCENC  =       673.95793417
  PAW double counting   =     20172.90621935   -19413.33347658
  entropy T*S    EENTRO =        -0.00021519
  eigenvalues    EBANDS =     -2716.49481446
  atomic energy  EATOM  =     24749.00668030
  Solvation  Ediel_sol  =         0.00000000
  ---------------------------------------------------
  free energy    TOTEN  =       189.67422501 eV

  energy without entropy =      189.67444020  energy(sigma->0) =      189.67433261


--------------------------------------------------------------------------------------------------------




----------------------------------------- Iteration    1(   5)  ---------------------------------------


     EDDAV:  cpu time  331.1887: real time  331.4087
       DOS:  cpu time    0.0080: real time    0.0070
    CHARGE:  cpu time   11.5807: real time   11.5894
    MIXING:  cpu time    0.0160: real time    0.0143
    --------------------------------------------
      LOOP:  cpu time  342.7934: real time  343.1370

 eigenvalue-minimisations  : 50288
 total energy-change (2. order) :-0.2299102E+01  (-0.2286500E+01)
 number of electron     400.0000000 magnetization      67.0958475     67.0944469     67.0937608
 augmentation part        7.0029515 magnetization      63.4653498     63.4687067     63.4699861

 Broyden mixing:
  rms(total) = 0.98124E+01    rms(broyden)= 0.98122E+01
  rms(prec ) = 0.10314E+02
  weight for this iteration     100.00

 Free energy of the ion-electron system (eV)
  ---------------------------------------------------
  alpha Z        PSCENC =       370.05370877
  Ewald energy   TEWEN  =    -15514.32937400
  -Hartree energ DENC   =     -8132.09243735
  -exchange      EXHF   =         0.00000000
  -V(xc)+E(xc)   XCENC  =       673.95793417
  PAW double counting   =     20172.90621935   -19413.33347658
  entropy T*S    EENTRO =        -0.00018622
  eigenvalues    EBANDS =     -2718.79394533
  atomic energy  EATOM  =     24749.00668030
  Solvation  Ediel_sol  =         0.00000000
  ---------------------------------------------------
  free energy    TOTEN  =       187.37512311 eV

  energy without entropy =      187.37530933  energy(sigma->0) =      187.37521622


--------------------------------------------------------------------------------------------------------




----------------------------------------- Iteration    1(   6)  ---------------------------------------


    POTLOK:  cpu time    0.6000: real time    0.6007
    SETDIJ:  cpu time    2.1721: real time    2.1724
     EDDAV:  cpu time  260.4323: real time  260.6073
       DOS:  cpu time    0.0040: real time    0.0047
    CHARGE:  cpu time   11.8247: real time   11.8333
    MIXING:  cpu time    0.0160: real time    0.0145
    --------------------------------------------
      LOOP:  cpu time  275.0492: real time  275.2786

 eigenvalue-minimisations  : 36976
 total energy-change (2. order) :-0.1325355E+03  (-0.1528895E+03)
 number of electron     400.0000000 magnetization      50.1971334     50.1938859     50.1961063
 augmentation part        5.9450143 magnetization      50.9838352     50.9898883     50.9805958

 Broyden mixing:
  rms(total) = 0.48326E+01    rms(broyden)= 0.48325E+01
  rms(prec ) = 0.50162E+01
  weight for this iteration     100.00

 eigenvalues of (default mixing * dielectric matrix)
  average eigenvalue GAMMA=   0.7617
  0.7617

 Free energy of the ion-electron system (eV)
  ---------------------------------------------------
  alpha Z        PSCENC =       370.05370877
  Ewald energy   TEWEN  =    -15514.32937400
  -Hartree energ DENC   =     -8491.46589429
  -exchange      EXHF   =         0.00000000
  -V(xc)+E(xc)   XCENC  =       691.55606769
  PAW double counting   =     24209.88048789   -23472.99262385
  entropy T*S    EENTRO =        -0.00000000
  eigenvalues    EBANDS =     -2486.86943128
  atomic energy  EATOM  =     24749.00668030
  Solvation  Ediel_sol  =         0.00000000
  ---------------------------------------------------
  free energy    TOTEN  =        54.83962121 eV

  energy without entropy =       54.83962121  energy(sigma->0) =       54.83962121


--------------------------------------------------------------------------------------------------------




----------------------------------------- Iteration    1(   7)  ---------------------------------------


    POTLOK:  cpu time    0.6040: real time    0.6024
    SETDIJ:  cpu time    2.1521: real time    2.1531
     EDDAV:  cpu time  272.7530: real time  272.9359
       DOS:  cpu time    0.0080: real time    0.0068
    CHARGE:  cpu time   11.8167: real time   11.8254
    MIXING:  cpu time    0.0120: real time    0.0146
    --------------------------------------------
      LOOP:  cpu time  287.3500: real time  287.5954

 eigenvalue-minimisations  : 39288
 total energy-change (2. order) :-0.1494440E+03  (-0.1595172E+02)
 number of electron     400.0000000 magnetization      34.1050033     34.0992661     34.1083414
 augmentation part        5.6224082 magnetization      35.1203665     35.1267113     35.1076209

 Broyden mixing:
  rms(total) = 0.28241E+01    rms(broyden)= 0.28240E+01
  rms(prec ) = 0.29771E+01
  weight for this iteration     100.00

 eigenvalues of (default mixing * dielectric matrix)
  average eigenvalue GAMMA=   0.8446
  0.8446  0.8446

 Free energy of the ion-electron system (eV)
  ---------------------------------------------------
  alpha Z        PSCENC =       370.05370877
  Ewald energy   TEWEN  =    -15514.32937400
  -Hartree energ DENC   =     -8540.52731917
  -exchange      EXHF   =         0.00000000
  -V(xc)+E(xc)   XCENC  =       592.43864220
  PAW double counting   =     26670.74091527   -25934.01155795
  entropy T*S    EENTRO =        -0.00001917
  eigenvalues    EBANDS =     -2487.97601319
  atomic energy  EATOM  =     24749.00668030
  Solvation  Ediel_sol  =         0.00000000
  ---------------------------------------------------
  free energy    TOTEN  =       -94.60433693 eV

  energy without entropy =      -94.60431777  energy(sigma->0) =      -94.60432735


--------------------------------------------------------------------------------------------------------




----------------------------------------- Iteration    1(   8)  ---------------------------------------


    POTLOK:  cpu time    0.6000: real time    0.5991
    SETDIJ:  cpu time    2.1761: real time    2.1776
     EDDAV:  cpu time  262.8124: real time  262.9897
       DOS:  cpu time    0.0040: real time    0.0042
    CHARGE:  cpu time   11.8527: real time   11.8605
    MIXING:  cpu time    0.0160: real time    0.0157
    --------------------------------------------
      LOOP:  cpu time  277.4613: real time  277.7128

 eigenvalue-minimisations  : 37320
 total energy-change (2. order) :-0.1088087E+03  (-0.6457722E+01)
 number of electron     400.0000000 magnetization      15.5851371     15.5741920     15.5882515
 augmentation part        6.6829765 magnetization      16.7451998     16.7524274     16.7481366

 Broyden mixing:
  rms(total) = 0.18235E+01    rms(broyden)= 0.18235E+01
  rms(prec ) = 0.18779E+01
  weight for this iteration     100.00

 eigenvalues of (default mixing * dielectric matrix)
  average eigenvalue GAMMA=   1.0152
  1.4436  0.9694  0.6325

 Free energy of the ion-electron system (eV)
  ---------------------------------------------------
  alpha Z        PSCENC =       370.05370877
  Ewald energy   TEWEN  =    -15514.32937400
  -Hartree energ DENC   =     -8574.49528755
  -exchange      EXHF   =         0.00000000
  -V(xc)+E(xc)   XCENC  =       528.86275136
  PAW double counting   =     28701.21931358   -27966.59236152
  entropy T*S    EENTRO =        -0.00000000
  eigenvalues    EBANDS =     -2497.13851428
  atomic energy  EATOM  =     24749.00668030
  Solvation  Ediel_sol  =         0.00000000
  ---------------------------------------------------
  free energy    TOTEN  =      -203.41308334 eV

  energy without entropy =     -203.41308334  energy(sigma->0) =     -203.41308334


--------------------------------------------------------------------------------------------------------




----------------------------------------- Iteration    1(   9)  ---------------------------------------


    POTLOK:  cpu time    0.5960: real time    0.5992
    SETDIJ:  cpu time    2.1801: real time    2.1818
     EDDAV:  cpu time  260.1843: real time  260.3591
       DOS:  cpu time    0.0040: real time    0.0041
    CHARGE:  cpu time   11.8807: real time   11.8864
    MIXING:  cpu time    0.0160: real time    0.0155
    --------------------------------------------
      LOOP:  cpu time  274.8652: real time  275.0883

 eigenvalue-minimisations  : 36832
 total energy-change (2. order) :-0.1318325E+03  (-0.1232821E+02)
 number of electron     400.0000000 magnetization      10.2142808     10.2013847     10.2137746
 augmentation part        7.9406968 magnetization      11.0199858     11.0280070     11.0332984

 Broyden mixing:
  rms(total) = 0.90397E+00    rms(broyden)= 0.90396E+00
  rms(prec ) = 0.95598E+00
  weight for this iteration     100.00

 eigenvalues of (default mixing * dielectric matrix)
  average eigenvalue GAMMA=   1.0839
  1.8349  1.1033  0.6986  0.6986

 Free energy of the ion-electron system (eV)
  ---------------------------------------------------
  alpha Z        PSCENC =       370.05370877
  Ewald energy   TEWEN  =    -15514.32937400
  -Hartree energ DENC   =     -8605.90989302
  -exchange      EXHF   =         0.00000000
  -V(xc)+E(xc)   XCENC  =       463.17078797
  PAW double counting   =     30795.74949410   -30062.23526936
  entropy T*S    EENTRO =         0.00000000
  eigenvalues    EBANDS =     -2530.75173999
  atomic energy  EATOM  =     24749.00668030
  Solvation  Ediel_sol  =         0.00000000
  ---------------------------------------------------
  free energy    TOTEN  =      -335.24560523 eV

  energy without entropy =     -335.24560523  energy(sigma->0) =     -335.24560523


--------------------------------------------------------------------------------------------------------




----------------------------------------- Iteration    1(  10)  ---------------------------------------


    POTLOK:  cpu time    0.6000: real time    0.5993
    SETDIJ:  cpu time    2.1721: real time    2.1728
     EDDAV:  cpu time  262.7324: real time  262.9077
       DOS:  cpu time    0.0040: real time    0.0042
    CHARGE:  cpu time   11.8527: real time   11.8620
    MIXING:  cpu time    0.0160: real time    0.0160
    --------------------------------------------
      LOOP:  cpu time  277.3773: real time  277.5900

 eigenvalue-minimisations  : 37304
 total energy-change (2. order) :-0.4787082E+02  (-0.5050012E+01)
 number of electron     400.0000000 magnetization       6.4364290      6.4265736      6.4341045
 augmentation part        8.2519001 magnetization       6.9551323      6.9532829      6.9582607

 Broyden mixing:
  rms(total) = 0.66680E+00    rms(broyden)= 0.66680E+00
  rms(prec ) = 0.74403E+00
  weight for this iteration     100.00

 eigenvalues of (default mixing * dielectric matrix)
  average eigenvalue GAMMA=   1.1359
  1.7009  1.7009  0.8316  0.8316  0.6146

 Free energy of the ion-electron system (eV)
  ---------------------------------------------------
  alpha Z        PSCENC =       370.05370877
  Ewald energy   TEWEN  =    -15514.32937400
  -Hartree energ DENC   =     -8591.89536484
  -exchange      EXHF   =         0.00000000
  -V(xc)+E(xc)   XCENC  =       442.86167612
  PAW double counting   =     31131.69297021   -30396.61112877
  entropy T*S    EENTRO =        -0.00000000
  eigenvalues    EBANDS =     -2573.89559705
  atomic energy  EATOM  =     24749.00668030
  Solvation  Ediel_sol  =         0.00000000
  ---------------------------------------------------
  free energy    TOTEN  =      -383.11642926 eV

  energy without entropy =     -383.11642926  energy(sigma->0) =     -383.11642926


--------------------------------------------------------------------------------------------------------




----------------------------------------- Iteration    1(  11)  ---------------------------------------


    POTLOK:  cpu time    0.6000: real time    0.6026
    SETDIJ:  cpu time    2.1481: real time    2.1486
     EDDAV:  cpu time  266.0366: real time  266.2159
       DOS:  cpu time    0.0040: real time    0.0037
    CHARGE:  cpu time   11.9127: real time   11.9207
    MIXING:  cpu time    0.0200: real time    0.0170
    --------------------------------------------
      LOOP:  cpu time  280.7255: real time  280.9385

 eigenvalue-minimisations  : 38000
 total energy-change (2. order) :-0.2644901E+02  (-0.3525437E+01)
 number of electron     400.0000000 magnetization       3.1346456      3.1284097      3.1324392
 augmentation part        8.1002778 magnetization       3.3626388      3.3584789      3.3611401

 Broyden mixing:
  rms(total) = 0.38465E+00    rms(broyden)= 0.38464E+00
  rms(prec ) = 0.43750E+00
  weight for this iteration     100.00

 eigenvalues of (default mixing * dielectric matrix)
  average eigenvalue GAMMA=   1.2072
  2.0523  2.0523  0.9500  0.9500  0.6617  0.5765

 Free energy of the ion-electron system (eV)
  ---------------------------------------------------
  alpha Z        PSCENC =       370.05370877
  Ewald energy   TEWEN  =    -15514.32937400
  -Hartree energ DENC   =     -8539.45866454
  -exchange      EXHF   =         0.00000000
  -V(xc)+E(xc)   XCENC  =       429.16053201
  PAW double counting   =     31051.10207154   -30312.66902788
  entropy T*S    EENTRO =         0.00000000
  eigenvalues    EBANDS =     -2642.43136399
  atomic energy  EATOM  =     24749.00668030
  Solvation  Ediel_sol  =         0.00000000
  ---------------------------------------------------
  free energy    TOTEN  =      -409.56543779 eV

  energy without entropy =     -409.56543779  energy(sigma->0) =     -409.56543779


--------------------------------------------------------------------------------------------------------




----------------------------------------- Iteration    1(  12)  ---------------------------------------


    POTLOK:  cpu time    0.6000: real time    0.5987
    SETDIJ:  cpu time    2.1481: real time    2.1487
     EDDAV:  cpu time  278.2854: real time  278.4711
       DOS:  cpu time    0.0040: real time    0.0042
    CHARGE:  cpu time   11.8687: real time   11.8764
    MIXING:  cpu time    0.0160: real time    0.0163
    --------------------------------------------
      LOOP:  cpu time  292.9223: real time  293.1752

 eigenvalue-minimisations  : 40280
 total energy-change (2. order) :-0.1153419E+02  (-0.1764081E+01)
 number of electron     400.0000000 magnetization       2.5270063      2.5219907      2.5254619
 augmentation part        7.9053157 magnetization       2.5908185      2.5856145      2.5881868

 Broyden mixing:
  rms(total) = 0.25477E+00    rms(broyden)= 0.25477E+00
  rms(prec ) = 0.29328E+00
  weight for this iteration     100.00

 eigenvalues of (default mixing * dielectric matrix)
  average eigenvalue GAMMA=   1.1563
  2.0778  2.0778  0.9902  0.9902  0.6796  0.6796  0.5991

 Free energy of the ion-electron system (eV)
  ---------------------------------------------------
  alpha Z        PSCENC =       370.05370877
  Ewald energy   TEWEN  =    -15514.32937400
  -Hartree energ DENC   =     -8491.79424742
  -exchange      EXHF   =         0.00000000
  -V(xc)+E(xc)   XCENC  =       422.57779876
  PAW double counting   =     30905.04271776   -30163.85039590
  entropy T*S    EENTRO =         0.00000000
  eigenvalues    EBANDS =     -2697.80651191
  atomic energy  EATOM  =     24749.00668030
  Solvation  Ediel_sol  =         0.00000000
  ---------------------------------------------------
  free energy    TOTEN  =      -421.09962365 eV

  energy without entropy =     -421.09962365  energy(sigma->0) =     -421.09962365


--------------------------------------------------------------------------------------------------------




----------------------------------------- Iteration    1(  13)  ---------------------------------------


    POTLOK:  cpu time    0.6000: real time    0.6039
    SETDIJ:  cpu time    2.2041: real time    2.2052
     EDDAV:  cpu time  278.0174: real time  278.2041
       DOS:  cpu time    0.0040: real time    0.0033
    CHARGE:  cpu time   11.8487: real time   11.8588
    MIXING:  cpu time    0.0200: real time    0.0194
    --------------------------------------------
      LOOP:  cpu time  292.6983: real time  292.9058

 eigenvalue-minimisations  : 40280
 total energy-change (2. order) :-0.1671549E+01  (-0.2482132E+00)
 number of electron     400.0000000 magnetization       1.7319765      1.7291036      1.7311991
 augmentation part        7.9097391 magnetization       1.7826894      1.7806797      1.7822297

 Broyden mixing:
  rms(total) = 0.20779E+00    rms(broyden)= 0.20779E+00
  rms(prec ) = 0.24448E+00
  weight for this iteration     100.00

 eigenvalues of (default mixing * dielectric matrix)
  average eigenvalue GAMMA=   1.1795
  2.2005  2.2005  1.0480  1.0480  0.8713  0.8713  0.6239  0.5721

 Free energy of the ion-electron system (eV)
  ---------------------------------------------------
  alpha Z        PSCENC =       370.05370877
  Ewald energy   TEWEN  =    -15514.32937400
  -Hartree energ DENC   =     -8480.49033150
[...]
     0.0000000     0.0000000     0.0000000     0.0000000     0.0000000     0.0000000     0.0000000
     0.0000000     0.0000000     0.0000000     0.0000000     0.0000000     0.0000000     0.0000000
     0.0000000     0.0000000     0.0000000     0.0000000     0.0000000     0.0000000     0.0000000
     0.0000000     0.0000000     0.0000000     0.0000000     0.0000000     0.0000000     0.0000000

 Ion:   82  E_soc:     -0.2788167
 l=   1
     0.0000000    -0.0480493    -0.0483644
    -0.0480493     0.0000000    -0.0430153
    -0.0483644    -0.0430153     0.0000000
 l=   2
     0.0000000    -0.0000097     0.0000000    -0.0000031     0.0000233
    -0.0000097     0.0000000     0.0000049    -0.0000026     0.0000125
     0.0000000     0.0000049     0.0000000    -0.0000034     0.0000000
    -0.0000031    -0.0000026    -0.0000034     0.0000000    -0.0000013
     0.0000233     0.0000125     0.0000000    -0.0000013     0.0000000
 l=   3
     0.0000000     0.0000000     0.0000000     0.0000000     0.0000000     0.0000000     0.0000000
     0.0000000     0.0000000     0.0000000     0.0000000     0.0000000     0.0000000     0.0000000
     0.0000000     0.0000000     0.0000000     0.0000000     0.0000000     0.0000000     0.0000000
     0.0000000     0.0000000     0.0000000     0.0000000     0.0000000     0.0000000     0.0000000
     0.0000000     0.0000000     0.0000000     0.0000000     0.0000000     0.0000000     0.0000000
     0.0000000     0.0000000     0.0000000     0.0000000     0.0000000     0.0000000     0.0000000
     0.0000000     0.0000000     0.0000000     0.0000000     0.0000000     0.0000000     0.0000000

 Ion:   83  E_soc:     -0.2788167
 l=   1
     0.0000000    -0.0480493    -0.0483644
    -0.0480493     0.0000000    -0.0430153
    -0.0483644    -0.0430153     0.0000000
 l=   2
     0.0000000    -0.0000097     0.0000000    -0.0000031     0.0000233
    -0.0000097     0.0000000     0.0000049    -0.0000026     0.0000125
     0.0000000     0.0000049     0.0000000    -0.0000034     0.0000000
    -0.0000031    -0.0000026    -0.0000034     0.0000000    -0.0000013
     0.0000233     0.0000125     0.0000000    -0.0000013     0.0000000
 l=   3
     0.0000000     0.0000000     0.0000000     0.0000000     0.0000000     0.0000000     0.0000000
     0.0000000     0.0000000     0.0000000     0.0000000     0.0000000     0.0000000     0.0000000
     0.0000000     0.0000000     0.0000000     0.0000000     0.0000000     0.0000000     0.0000000
     0.0000000     0.0000000     0.0000000     0.0000000     0.0000000     0.0000000     0.0000000
     0.0000000     0.0000000     0.0000000     0.0000000     0.0000000     0.0000000     0.0000000
     0.0000000     0.0000000     0.0000000     0.0000000     0.0000000     0.0000000     0.0000000
     0.0000000     0.0000000     0.0000000     0.0000000     0.0000000     0.0000000     0.0000000

 Ion:   84  E_soc:     -0.2805990
 l=   1
     0.0000000    -0.0486718    -0.0487002
    -0.0486718     0.0000000    -0.0429520
    -0.0487002    -0.0429520     0.0000000
 l=   2
     0.0000000    -0.0000108     0.0000000    -0.0000031     0.0000249
    -0.0000108     0.0000000     0.0000059    -0.0000024     0.0000143
     0.0000000     0.0000059     0.0000000    -0.0000032     0.0000000
    -0.0000031    -0.0000024    -0.0000032     0.0000000    -0.0000010
     0.0000249     0.0000143     0.0000000    -0.0000010     0.0000000
 l=   3
     0.0000000     0.0000000     0.0000000     0.0000000     0.0000000     0.0000000     0.0000000
     0.0000000     0.0000000     0.0000000     0.0000000     0.0000000     0.0000000     0.0000000
     0.0000000     0.0000000     0.0000000     0.0000000     0.0000000     0.0000000     0.0000000
     0.0000000     0.0000000     0.0000000     0.0000000     0.0000000     0.0000000     0.0000000
     0.0000000     0.0000000     0.0000000     0.0000000     0.0000000     0.0000000     0.0000000
     0.0000000     0.0000000     0.0000000     0.0000000     0.0000000     0.0000000     0.0000000
     0.0000000     0.0000000     0.0000000     0.0000000     0.0000000     0.0000000     0.0000000

 Ion:   85  E_soc:     -0.2805990
 l=   1
     0.0000000    -0.0486718    -0.0487002
    -0.0486718     0.0000000    -0.0429520
    -0.0487002    -0.0429520     0.0000000
 l=   2
     0.0000000    -0.0000108     0.0000000    -0.0000031     0.0000249
    -0.0000108     0.0000000     0.0000059    -0.0000024     0.0000143
     0.0000000     0.0000059     0.0000000    -0.0000032     0.0000000
    -0.0000031    -0.0000024    -0.0000032     0.0000000    -0.0000010
     0.0000249     0.0000143     0.0000000    -0.0000010     0.0000000
 l=   3
     0.0000000     0.0000000     0.0000000     0.0000000     0.0000000     0.0000000     0.0000000
     0.0000000     0.0000000     0.0000000     0.0000000     0.0000000     0.0000000     0.0000000
     0.0000000     0.0000000     0.0000000     0.0000000     0.0000000     0.0000000     0.0000000
     0.0000000     0.0000000     0.0000000     0.0000000     0.0000000     0.0000000     0.0000000
     0.0000000     0.0000000     0.0000000     0.0000000     0.0000000     0.0000000     0.0000000
     0.0000000     0.0000000     0.0000000     0.0000000     0.0000000     0.0000000     0.0000000
     0.0000000     0.0000000     0.0000000     0.0000000     0.0000000     0.0000000     0.0000000

 Ion:   86  E_soc:     -0.2788167
 l=   1
     0.0000000    -0.0480493    -0.0483644
    -0.0480493     0.0000000    -0.0430153
    -0.0483644    -0.0430153     0.0000000
 l=   2
     0.0000000    -0.0000097     0.0000000    -0.0000031     0.0000233
    -0.0000097     0.0000000     0.0000049    -0.0000026     0.0000125
     0.0000000     0.0000049     0.0000000    -0.0000034     0.0000000
    -0.0000031    -0.0000026    -0.0000034     0.0000000    -0.0000013
     0.0000233     0.0000125     0.0000000    -0.0000013     0.0000000
 l=   3
     0.0000000     0.0000000     0.0000000     0.0000000     0.0000000     0.0000000     0.0000000
     0.0000000     0.0000000     0.0000000     0.0000000     0.0000000     0.0000000     0.0000000
     0.0000000     0.0000000     0.0000000     0.0000000     0.0000000     0.0000000     0.0000000
     0.0000000     0.0000000     0.0000000     0.0000000     0.0000000     0.0000000     0.0000000
     0.0000000     0.0000000     0.0000000     0.0000000     0.0000000     0.0000000     0.0000000
     0.0000000     0.0000000     0.0000000     0.0000000     0.0000000     0.0000000     0.0000000
     0.0000000     0.0000000     0.0000000     0.0000000     0.0000000     0.0000000     0.0000000

 Ion:   87  E_soc:     -0.2788167
 l=   1
     0.0000000    -0.0480493    -0.0483644
    -0.0480493     0.0000000    -0.0430153
    -0.0483644    -0.0430153     0.0000000
 l=   2
     0.0000000    -0.0000097     0.0000000    -0.0000031     0.0000233
    -0.0000097     0.0000000     0.0000049    -0.0000026     0.0000125
     0.0000000     0.0000049     0.0000000    -0.0000034     0.0000000
    -0.0000031    -0.0000026    -0.0000034     0.0000000    -0.0000013
     0.0000233     0.0000125     0.0000000    -0.0000013     0.0000000
 l=   3
     0.0000000     0.0000000     0.0000000     0.0000000     0.0000000     0.0000000     0.0000000
     0.0000000     0.0000000     0.0000000     0.0000000     0.0000000     0.0000000     0.0000000
     0.0000000     0.0000000     0.0000000     0.0000000     0.0000000     0.0000000     0.0000000
     0.0000000     0.0000000     0.0000000     0.0000000     0.0000000     0.0000000     0.0000000
     0.0000000     0.0000000     0.0000000     0.0000000     0.0000000     0.0000000     0.0000000
     0.0000000     0.0000000     0.0000000     0.0000000     0.0000000     0.0000000     0.0000000
     0.0000000     0.0000000     0.0000000     0.0000000     0.0000000     0.0000000     0.0000000

 Ion:   88  E_soc:     -0.2805990
 l=   1
     0.0000000    -0.0486718    -0.0487002
    -0.0486718     0.0000000    -0.0429520
    -0.0487002    -0.0429520     0.0000000
 l=   2
     0.0000000    -0.0000108     0.0000000    -0.0000031     0.0000249
    -0.0000108     0.0000000     0.0000059    -0.0000024     0.0000143
     0.0000000     0.0000059     0.0000000    -0.0000032     0.0000000
    -0.0000031    -0.0000024    -0.0000032     0.0000000    -0.0000010
     0.0000249     0.0000143     0.0000000    -0.0000010     0.0000000
 l=   3
     0.0000000     0.0000000     0.0000000     0.0000000     0.0000000     0.0000000     0.0000000
     0.0000000     0.0000000     0.0000000     0.0000000     0.0000000     0.0000000     0.0000000
     0.0000000     0.0000000     0.0000000     0.0000000     0.0000000     0.0000000     0.0000000
     0.0000000     0.0000000     0.0000000     0.0000000     0.0000000     0.0000000     0.0000000
     0.0000000     0.0000000     0.0000000     0.0000000     0.0000000     0.0000000     0.0000000
     0.0000000     0.0000000     0.0000000     0.0000000     0.0000000     0.0000000     0.0000000
     0.0000000     0.0000000     0.0000000     0.0000000     0.0000000     0.0000000     0.0000000

 Ion:   89  E_soc:     -0.2859411
 l=   1
     0.0000000    -0.0429750    -0.0495357
    -0.0429750     0.0000000    -0.0504823
    -0.0495357    -0.0504823     0.0000000
 l=   2
     0.0000000    -0.0000022     0.0000000    -0.0000084     0.0000205
    -0.0000022     0.0000000    -0.0000024    -0.0000025    -0.0000014
     0.0000000    -0.0000024     0.0000000     0.0000054     0.0000000
    -0.0000084    -0.0000025     0.0000054     0.0000000     0.0000135
     0.0000205    -0.0000014     0.0000000     0.0000135     0.0000000
 l=   3
     0.0000000     0.0000000     0.0000000     0.0000000     0.0000000     0.0000000     0.0000000
     0.0000000     0.0000000     0.0000000     0.0000000     0.0000000     0.0000000     0.0000000
     0.0000000     0.0000000     0.0000000     0.0000000     0.0000000     0.0000000     0.0000000
     0.0000000     0.0000000     0.0000000     0.0000000     0.0000000     0.0000000     0.0000000
     0.0000000     0.0000000     0.0000000     0.0000000     0.0000000     0.0000000     0.0000000
     0.0000000     0.0000000     0.0000000     0.0000000     0.0000000     0.0000000     0.0000000
     0.0000000     0.0000000     0.0000000     0.0000000     0.0000000     0.0000000     0.0000000

 Ion:   90  E_soc:     -0.2859466
 l=   1
     0.0000000    -0.0429751    -0.0495375
    -0.0429751     0.0000000    -0.0504832
    -0.0495375    -0.0504832     0.0000000
 l=   2
     0.0000000    -0.0000022     0.0000000    -0.0000084     0.0000205
    -0.0000022     0.0000000    -0.0000024    -0.0000025    -0.0000014
     0.0000000    -0.0000024     0.0000000     0.0000054     0.0000000
    -0.0000084    -0.0000025     0.0000054     0.0000000     0.0000135
     0.0000205    -0.0000014     0.0000000     0.0000135     0.0000000
 l=   3
     0.0000000     0.0000000     0.0000000     0.0000000     0.0000000     0.0000000     0.0000000
     0.0000000     0.0000000     0.0000000     0.0000000     0.0000000     0.0000000     0.0000000
     0.0000000     0.0000000     0.0000000     0.0000000     0.0000000     0.0000000     0.0000000
     0.0000000     0.0000000     0.0000000     0.0000000     0.0000000     0.0000000     0.0000000
     0.0000000     0.0000000     0.0000000     0.0000000     0.0000000     0.0000000     0.0000000
     0.0000000     0.0000000     0.0000000     0.0000000     0.0000000     0.0000000     0.0000000
     0.0000000     0.0000000     0.0000000     0.0000000     0.0000000     0.0000000     0.0000000

 Ion:   91  E_soc:     -0.2859466
 l=   1
     0.0000000    -0.0429751    -0.0495375
    -0.0429751     0.0000000    -0.0504832
    -0.0495375    -0.0504832     0.0000000
 l=   2
     0.0000000    -0.0000022     0.0000000    -0.0000084     0.0000205
    -0.0000022     0.0000000    -0.0000024    -0.0000025    -0.0000014
     0.0000000    -0.0000024     0.0000000     0.0000054     0.0000000
    -0.0000084    -0.0000025     0.0000054     0.0000000     0.0000135
     0.0000205    -0.0000014     0.0000000     0.0000135     0.0000000
 l=   3
     0.0000000     0.0000000     0.0000000     0.0000000     0.0000000     0.0000000     0.0000000
     0.0000000     0.0000000     0.0000000     0.0000000     0.0000000     0.0000000     0.0000000
     0.0000000     0.0000000     0.0000000     0.0000000     0.0000000     0.0000000     0.0000000
     0.0000000     0.0000000     0.0000000     0.0000000     0.0000000     0.0000000     0.0000000
     0.0000000     0.0000000     0.0000000     0.0000000     0.0000000     0.0000000     0.0000000
     0.0000000     0.0000000     0.0000000     0.0000000     0.0000000     0.0000000     0.0000000
     0.0000000     0.0000000     0.0000000     0.0000000     0.0000000     0.0000000     0.0000000

 Ion:   92  E_soc:     -0.2859411
 l=   1
     0.0000000    -0.0429750    -0.0495357
    -0.0429750     0.0000000    -0.0504823
    -0.0495357    -0.0504823     0.0000000
 l=   2
     0.0000000    -0.0000022     0.0000000    -0.0000084     0.0000205
    -0.0000022     0.0000000    -0.0000024    -0.0000025    -0.0000014
     0.0000000    -0.0000024     0.0000000     0.0000054     0.0000000
    -0.0000084    -0.0000025     0.0000054     0.0000000     0.0000135
     0.0000205    -0.0000014     0.0000000     0.0000135     0.0000000
 l=   3
     0.0000000     0.0000000     0.0000000     0.0000000     0.0000000     0.0000000     0.0000000
     0.0000000     0.0000000     0.0000000     0.0000000     0.0000000     0.0000000     0.0000000
     0.0000000     0.0000000     0.0000000     0.0000000     0.0000000     0.0000000     0.0000000
     0.0000000     0.0000000     0.0000000     0.0000000     0.0000000     0.0000000     0.0000000
     0.0000000     0.0000000     0.0000000     0.0000000     0.0000000     0.0000000     0.0000000
     0.0000000     0.0000000     0.0000000     0.0000000     0.0000000     0.0000000     0.0000000
     0.0000000     0.0000000     0.0000000     0.0000000     0.0000000     0.0000000     0.0000000

 Ion:   93  E_soc:     -0.2859411
 l=   1
     0.0000000    -0.0429750    -0.0495357
    -0.0429750     0.0000000    -0.0504823
    -0.0495357    -0.0504823     0.0000000
 l=   2
     0.0000000    -0.0000022     0.0000000    -0.0000084     0.0000205
    -0.0000022     0.0000000    -0.0000024    -0.0000025    -0.0000014
     0.0000000    -0.0000024     0.0000000     0.0000054     0.0000000
    -0.0000084    -0.0000025     0.0000054     0.0000000     0.0000135
     0.0000205    -0.0000014     0.0000000     0.0000135     0.0000000
 l=   3
     0.0000000     0.0000000     0.0000000     0.0000000     0.0000000     0.0000000     0.0000000
     0.0000000     0.0000000     0.0000000     0.0000000     0.0000000     0.0000000     0.0000000
     0.0000000     0.0000000     0.0000000     0.0000000     0.0000000     0.0000000     0.0000000
     0.0000000     0.0000000     0.0000000     0.0000000     0.0000000     0.0000000     0.0000000
     0.0000000     0.0000000     0.0000000     0.0000000     0.0000000     0.0000000     0.0000000
     0.0000000     0.0000000     0.0000000     0.0000000     0.0000000     0.0000000     0.0000000
     0.0000000     0.0000000     0.0000000     0.0000000     0.0000000     0.0000000     0.0000000

 Ion:   94  E_soc:     -0.2859466
 l=   1
     0.0000000    -0.0429751    -0.0495375
    -0.0429751     0.0000000    -0.0504832
    -0.0495375    -0.0504832     0.0000000
 l=   2
     0.0000000    -0.0000022     0.0000000    -0.0000084     0.0000205
    -0.0000022     0.0000000    -0.0000024    -0.0000025    -0.0000014
     0.0000000    -0.0000024     0.0000000     0.0000054     0.0000000
    -0.0000084    -0.0000025     0.0000054     0.0000000     0.0000135
     0.0000205    -0.0000014     0.0000000     0.0000135     0.0000000
 l=   3
     0.0000000     0.0000000     0.0000000     0.0000000     0.0000000     0.0000000     0.0000000
     0.0000000     0.0000000     0.0000000     0.0000000     0.0000000     0.0000000     0.0000000
     0.0000000     0.0000000     0.0000000     0.0000000     0.0000000     0.0000000     0.0000000
     0.0000000     0.0000000     0.0000000     0.0000000     0.0000000     0.0000000     0.0000000
     0.0000000     0.0000000     0.0000000     0.0000000     0.0000000     0.0000000     0.0000000
     0.0000000     0.0000000     0.0000000     0.0000000     0.0000000     0.0000000     0.0000000
     0.0000000     0.0000000     0.0000000     0.0000000     0.0000000     0.0000000     0.0000000

 Ion:   95  E_soc:     -0.2859466
 l=   1
     0.0000000    -0.0429751    -0.0495375
    -0.0429751     0.0000000    -0.0504832
    -0.0495375    -0.0504832     0.0000000
 l=   2
     0.0000000    -0.0000022     0.0000000    -0.0000084     0.0000205
    -0.0000022     0.0000000    -0.0000024    -0.0000025    -0.0000014
     0.0000000    -0.0000024     0.0000000     0.0000054     0.0000000
    -0.0000084    -0.0000025     0.0000054     0.0000000     0.0000135
     0.0000205    -0.0000014     0.0000000     0.0000135     0.0000000
 l=   3
     0.0000000     0.0000000     0.0000000     0.0000000     0.0000000     0.0000000     0.0000000
     0.0000000     0.0000000     0.0000000     0.0000000     0.0000000     0.0000000     0.0000000
     0.0000000     0.0000000     0.0000000     0.0000000     0.0000000     0.0000000     0.0000000
     0.0000000     0.0000000     0.0000000     0.0000000     0.0000000     0.0000000     0.0000000
     0.0000000     0.0000000     0.0000000     0.0000000     0.0000000     0.0000000     0.0000000
     0.0000000     0.0000000     0.0000000     0.0000000     0.0000000     0.0000000     0.0000000
     0.0000000     0.0000000     0.0000000     0.0000000     0.0000000     0.0000000     0.0000000

 Ion:   96  E_soc:     -0.2859411
 l=   1
     0.0000000    -0.0429750    -0.0495357
    -0.0429750     0.0000000    -0.0504823
    -0.0495357    -0.0504823     0.0000000
 l=   2
     0.0000000    -0.0000022     0.0000000    -0.0000084     0.0000205
    -0.0000022     0.0000000    -0.0000024    -0.0000025    -0.0000014
     0.0000000    -0.0000024     0.0000000     0.0000054     0.0000000
    -0.0000084    -0.0000025     0.0000054     0.0000000     0.0000135
     0.0000205    -0.0000014     0.0000000     0.0000135     0.0000000
 l=   3
     0.0000000     0.0000000     0.0000000     0.0000000     0.0000000     0.0000000     0.0000000
     0.0000000     0.0000000     0.0000000     0.0000000     0.0000000     0.0000000     0.0000000
     0.0000000     0.0000000     0.0000000     0.0000000     0.0000000     0.0000000     0.0000000
     0.0000000     0.0000000     0.0000000     0.0000000     0.0000000     0.0000000     0.0000000
     0.0000000     0.0000000     0.0000000     0.0000000     0.0000000     0.0000000     0.0000000
     0.0000000     0.0000000     0.0000000     0.0000000     0.0000000     0.0000000     0.0000000
     0.0000000     0.0000000     0.0000000     0.0000000     0.0000000     0.0000000     0.0000000

 total amount of memory used by VASP on root node   392927. kBytes
========================================================================

   base      :      30000. kBytes
   nonl-proj :      73667. kBytes
   fftplans  :      22714. kBytes
   grid      :      35610. kBytes
   one-center:        248. kBytes
   wavefun   :     230688. kBytes
 
  
  
 General timing and accounting informations for this job:
 ========================================================
  
                  Total CPU time used (sec):     8683.267
                            User time (sec):     8670.006
                          System time (sec):       13.261
                         Elapsed time (sec):     8695.626
  
                   Maximum memory used (kb):      412060.
                   Average memory used (kb):           0.
  
                          Minor page faults:       594089
                          Major page faults:            0
                 Voluntary context switches:        17714
