  96  96   0   0
  0.2080188E+02  0.1257760E-08  0.1245754E-08  0.1274818E-08  0.5000000E-15
  1.000000000000000E-004
  CAR 
 MAPbI3-Cubic                            
      8.87463224    -19.45356894  301      1.36765893      1.00000000
    -19.454  0.0000E+00  0.0000E+00
    -19.359  0.0000E+00  0.0000E+00
    -19.265  0.0000E+00  0.0000E+00
    -19.170  0.0000E+00  0.0000E+00
    -19.076  0.0000E+00  0.0000E+00
    -18.981  0.0000E+00  0.0000E+00
    -18.887  0.0000E+00  0.0000E+00
    -18.793  0.0000E+00  0.0000E+00
    -18.698  0.0000E+00  0.0000E+00
    -18.604  0.0000E+00  0.0000E+00
    -18.509  0.0000E+00  0.0000E+00
    -18.415  0.0000E+00  0.0000E+00
    -18.320  0.0000E+00  0.0000E+00
    -18.226  0.0000E+00  0.0000E+00
    -18.132  0.0000E+00  0.1600E+02
    -18.037  0.0000E+00  0.1600E+02
    -17.943  0.0000E+00  0.1600E+02
    -17.848  0.0000E+00  0.1600E+02
    -17.754  0.0000E+00  0.1600E+02
    -17.659  0.0000E+00  0.1600E+02
    -17.565  0.0000E+00  0.1600E+02
    -17.471  0.0000E+00  0.1600E+02
    -17.376  0.0000E+00  0.1600E+02
    -17.282  0.0000E+00  0.1600E+02
    -17.187  0.0000E+00  0.1600E+02
    -17.093  0.0000E+00  0.1600E+02
    -16.998  0.0000E+00  0.1600E+02
    -16.904  0.0000E+00  0.1600E+02
    -16.810  0.0000E+00  0.1600E+02
    -16.715  0.0000E+00  0.1600E+02
    -16.621  0.0000E+00  0.1600E+02
    -16.526  0.0000E+00  0.1600E+02
    -16.432  0.0000E+00  0.1600E+02
    -16.337  0.0000E+00  0.1600E+02
    -16.243  0.0000E+00  0.1600E+02
    -16.149  0.0000E+00  0.1600E+02
    -16.054  0.0000E+00  0.1600E+02
    -15.960  0.0000E+00  0.1600E+02
    -15.865  0.0000E+00  0.1600E+02
    -15.771  0.0000E+00  0.1600E+02
    -15.676  0.0000E+00  0.1600E+02
    -15.582  0.0000E+00  0.1600E+02
    -15.488  0.0000E+00  0.1600E+02
    -15.393  0.0000E+00  0.1600E+02
    -15.299  0.0000E+00  0.1600E+02
    -15.204  0.0000E+00  0.1600E+02
    -15.110  0.8615E+02  0.2813E+02
    -15.015  0.0000E+00  0.9600E+02
    -14.921  0.0000E+00  0.9600E+02
    -14.827  0.0000E+00  0.9600E+02
    -14.732  0.0000E+00  0.9600E+02
    -14.638  0.0000E+00  0.9600E+02
    -14.543  0.0000E+00  0.9600E+02
    -14.449  0.0000E+00  0.9600E+02
    -14.354  0.0000E+00  0.9600E+02
    -14.260  0.0000E+00  0.9600E+02
    -14.166  0.0000E+00  0.9600E+02
    -14.071  0.0000E+00  0.9600E+02
    -13.977  0.0000E+00  0.9600E+02
    -13.882  0.0000E+00  0.9600E+02
    -13.788  0.0000E+00  0.9600E+02
    -13.694  0.0000E+00  0.9600E+02
    -13.599  0.0000E+00  0.9600E+02
    -13.505  0.0000E+00  0.9600E+02
    -13.410  0.0000E+00  0.9600E+02
    -13.316  0.0000E+00  0.9600E+02
    -13.221  0.0000E+00  0.9600E+02
    -13.127  0.0000E+00  0.9600E+02
    -13.033  0.0000E+00  0.9600E+02
    -12.938  0.0000E+00  0.9600E+02
    -12.844  0.0000E+00  0.9600E+02
    -12.749  0.0000E+00  0.9600E+02
    -12.655  0.0000E+00  0.9600E+02
    -12.560  0.0000E+00  0.9600E+02
    -12.466  0.0000E+00  0.9600E+02
    -12.372  0.0000E+00  0.9600E+02
    -12.277  0.0000E+00  0.9600E+02
    -12.183  0.0000E+00  0.9600E+02
    -12.088  0.0000E+00  0.9600E+02
    -11.994  0.0000E+00  0.9600E+02
    -11.899  0.0000E+00  0.9600E+02
    -11.805  0.0000E+00  0.9600E+02
    -11.711  0.0000E+00  0.9600E+02
    -11.616  0.0000E+00  0.9600E+02
    -11.522  0.0000E+00  0.9600E+02
    -11.427  0.0000E+00  0.9600E+02
    -11.333  0.8018E+00  0.9608E+02
    -11.238  0.1235E-04  0.1040E+03
    -11.144  0.0000E+00  0.1120E+03
    -11.050  0.0000E+00  0.1120E+03
    -10.955  0.0000E+00  0.1120E+03
    -10.861  0.0000E+00  0.1120E+03
    -10.766  0.2175E+00  0.1125E+03
    -10.672  0.1124E+01  0.1151E+03
    -10.577  0.1844E-01  0.1215E+03
    -10.483  0.3265E+01  0.1272E+03
    -10.389  0.1498E-13  0.1291E+03
    -10.294  0.9413E+01  0.1364E+03
    -10.200  0.2104E-07  0.1400E+03
    -10.105  0.1569E+01  0.1442E+03
    -10.011  0.1818E+02  0.1530E+03
     -9.916  0.1569E+01  0.1596E+03
     -9.822  0.0000E+00  0.1600E+03
     -9.728  0.0000E+00  0.1600E+03
     -9.633  0.0000E+00  0.1600E+03
     -9.539  0.0000E+00  0.1600E+03
     -9.444  0.0000E+00  0.1600E+03
     -9.350  0.0000E+00  0.1600E+03
     -9.255  0.0000E+00  0.1600E+03
     -9.161  0.0000E+00  0.1600E+03
     -9.067  0.0000E+00  0.1600E+03
     -8.972  0.0000E+00  0.1600E+03
     -8.878  0.0000E+00  0.1600E+03
     -8.783  0.0000E+00  0.1600E+03
     -8.689  0.0000E+00  0.1600E+03
     -8.594  0.0000E+00  0.1600E+03
     -8.500  0.0000E+00  0.1600E+03
     -8.406  0.0000E+00  0.1600E+03
     -8.311  0.0000E+00  0.1600E+03
     -8.217  0.0000E+00  0.1600E+03
     -8.122  0.0000E+00  0.1600E+03
     -8.028  0.0000E+00  0.1600E+03
     -7.933  0.0000E+00  0.1600E+03
     -7.839  0.0000E+00  0.1600E+03
     -7.745  0.0000E+00  0.1600E+03
     -7.650  0.0000E+00  0.1680E+03
     -7.556  0.6115E+00  0.1854E+03
     -7.461  0.0000E+00  0.1920E+03
     -7.367  0.0000E+00  0.1920E+03
     -7.272  0.0000E+00  0.1920E+03
     -7.178  0.0000E+00  0.1920E+03
     -7.084  0.0000E+00  0.1920E+03
     -6.989  0.0000E+00  0.1921E+03
     -6.895  0.0000E+00  0.1925E+03
     -6.800  0.3133E+01  0.1928E+03
     -6.706  0.0000E+00  0.1934E+03
     -6.611  0.0000E+00  0.1944E+03
     -6.517  0.2760E-06  0.1956E+03
     -6.423  0.3138E+01  0.1976E+03
     -6.328  0.0000E+00  0.1991E+03
     -6.234  0.1569E+01  0.2009E+03
     -6.139  0.0000E+00  0.2030E+03
     -6.045  0.3138E+01  0.2041E+03
     -5.950  0.3219E+01  0.2058E+03
     -5.856  0.0000E+00  0.2066E+03
     -5.762  0.5286E+00  0.2133E+03
     -5.667  0.0000E+00  0.2226E+03
     -5.573  0.1569E+01  0.2236E+03
     -5.478  0.0000E+00  0.2239E+03
     -5.384  0.0000E+00  0.2240E+03
     -5.289  0.0000E+00  0.2240E+03
     -5.195  0.0000E+00  0.2240E+03
     -5.101  0.0000E+00  0.2240E+03
     -5.006  0.0000E+00  0.2240E+03
     -4.912  0.0000E+00  0.2240E+03
     -4.817  0.0000E+00  0.2240E+03
     -4.723  0.0000E+00  0.2240E+03
     -4.628  0.0000E+00  0.2240E+03
     -4.534  0.0000E+00  0.2240E+03
     -4.440  0.0000E+00  0.2240E+03
     -4.345  0.0000E+00  0.2240E+03
     -4.251  0.0000E+00  0.2240E+03
     -4.156  0.0000E+00  0.2240E+03
     -4.062  0.0000E+00  0.2240E+03
     -3.967  0.0000E+00  0.2240E+03
     -3.873  0.0000E+00  0.2240E+03
     -3.779  0.0000E+00  0.2240E+03
     -3.684  0.0000E+00  0.2240E+03
     -3.590  0.1569E+01  0.2242E+03
     -3.495  0.1578E+02  0.2467E+03
     -3.401  0.0000E+00  0.2560E+03
     -3.306  0.0000E+00  0.2560E+03
     -3.212  0.0000E+00  0.2560E+03
     -3.118  0.0000E+00  0.2560E+03
     -3.023  0.0000E+00  0.2560E+03
     -2.929  0.0000E+00  0.2560E+03
     -2.834  0.0000E+00  0.2560E+03
     -2.740  0.0000E+00  0.2560E+03
     -2.646  0.0000E+00  0.2560E+03
     -2.551  0.0000E+00  0.2560E+03
     -2.457  0.0000E+00  0.2560E+03
     -2.362  0.0000E+00  0.2560E+03
     -2.268  0.0000E+00  0.2560E+03
     -2.173  0.0000E+00  0.2560E+03
     -2.079  0.0000E+00  0.2567E+03
     -1.985  0.0000E+00  0.2591E+03
     -1.890  0.0000E+00  0.2616E+03
     -1.796  0.7797E+00  0.2636E+03
     -1.701  0.1631E+01  0.2663E+03
     -1.607  0.6619E+01  0.2695E+03
     -1.512  0.4870E+01  0.2731E+03
     -1.418  0.6215E+01  0.2766E+03
     -1.324  0.3138E+01  0.2791E+03
     -1.229  0.3785E-03  0.2799E+03
     -1.135  0.0000E+00  0.2800E+03
     -1.040  0.0000E+00  0.2801E+03
     -0.946  0.4092E+01  0.2822E+03
     -0.851  0.1285E+02  0.2880E+03
     -0.757  0.4707E+01  0.2936E+03
     -0.663  0.6276E+01  0.2995E+03
     -0.568  0.3135E+01  0.3033E+03
     -0.474  0.3822E+01  0.3064E+03
     -0.379  0.3186E+01  0.3110E+03
     -0.285  0.1577E+01  0.3159E+03
     -0.190  0.8702E+00  0.3224E+03
     -0.096  0.7784E+01  0.3293E+03
     -0.002  0.9367E+01  0.3357E+03
      0.093  0.7548E+01  0.3415E+03
      0.187  0.7191E+01  0.3502E+03
      0.282  0.9837E+01  0.3596E+03
      0.376  0.5029E+01  0.3658E+03
      0.471  0.8903E+01  0.3732E+03
      0.565  0.1088E+02  0.3829E+03
      0.659  0.1172E+02  0.3892E+03
      0.754  0.1569E+01  0.3941E+03
      0.848  0.3138E+01  0.3967E+03
      0.943  0.4306E+01  0.3986E+03
      1.037  0.0000E+00  0.3993E+03
      1.132  0.2062E-06  0.3996E+03
      1.226  0.0000E+00  0.3999E+03
      1.320  0.0000E+00  0.3999E+03
      1.415  0.0000E+00  0.4000E+03
      1.509  0.0000E+00  0.4000E+03
      1.604  0.0000E+00  0.4000E+03
      1.698  0.0000E+00  0.4000E+03
      1.793  0.0000E+00  0.4000E+03
      1.887  0.0000E+00  0.4000E+03
      1.981  0.0000E+00  0.4000E+03
      2.076  0.0000E+00  0.4000E+03
      2.170  0.0000E+00  0.4000E+03
      2.265  0.0000E+00  0.4000E+03
      2.359  0.0000E+00  0.4000E+03
      2.454  0.0000E+00  0.4000E+03
      2.548  0.0000E+00  0.4000E+03
      2.642  0.0000E+00  0.4000E+03
      2.737  0.0000E+00  0.4000E+03
      2.831  0.0000E+00  0.4000E+03
      2.926  0.0000E+00  0.4000E+03
      3.020  0.1564E+01  0.4007E+03
      3.115  0.0000E+00  0.4007E+03
      3.209  0.1354E+01  0.4020E+03
      3.303  0.0000E+00  0.4033E+03
      3.398  0.7845E+00  0.4041E+03
      3.492  0.0000E+00  0.4060E+03
      3.587  0.8709E-16  0.4067E+03
      3.681  0.9228E+00  0.4079E+03
      3.776  0.1655E-04  0.4084E+03
      3.870  0.0000E+00  0.4093E+03
      3.964  0.0000E+00  0.4107E+03
      4.059  0.3138E+01  0.4124E+03
      4.153  0.3139E+01  0.4144E+03
      4.248  0.0000E+00  0.4161E+03
      4.342  0.1102E+01  0.4188E+03
      4.437  0.6275E+01  0.4222E+03
      4.531  0.1213E-07  0.4231E+03
      4.625  0.0000E+00  0.4239E+03
      4.720  0.0000E+00  0.4240E+03
      4.814  0.0000E+00  0.4240E+03
      4.909  0.0000E+00  0.4240E+03
      5.003  0.0000E+00  0.4240E+03
      5.098  0.0000E+00  0.4241E+03
      5.192  0.3138E+01  0.4248E+03
      5.286  0.1569E+01  0.4267E+03
      5.381  0.1929E+01  0.4292E+03
      5.475  0.2916E+01  0.4335E+03
      5.570  0.3138E+01  0.4369E+03
      5.664  0.0000E+00  0.4390E+03
      5.759  0.4614E-03  0.4409E+03
      5.853  0.1565E+01  0.4435E+03
      5.947  0.2017E+01  0.4462E+03
      6.042  0.1475E+01  0.4495E+03
      6.136  0.7858E+01  0.4539E+03
      6.231  0.1574E+01  0.4577E+03
      6.325  0.7060E+01  0.4614E+03
      6.420  0.3138E+01  0.4644E+03
      6.514  0.6328E+01  0.4685E+03
      6.608  0.3443E+01  0.4738E+03
      6.703  0.3043E+01  0.4775E+03
      6.797  0.2489E+01  0.4814E+03
      6.892  0.1569E+01  0.4849E+03
      6.986  0.1569E+01  0.4879E+03
      7.081  0.1432E+01  0.4927E+03
      7.175  0.3115E-01  0.4973E+03
      7.269  0.3138E+01  0.5005E+03
      7.364  0.3561E+01  0.5052E+03
      7.458  0.0000E+00  0.5093E+03
      7.553  0.8694E+00  0.5115E+03
      7.647  0.0000E+00  0.5120E+03
      7.742  0.0000E+00  0.5120E+03
      7.836  0.0000E+00  0.5120E+03
      7.930  0.0000E+00  0.5120E+03
      8.025  0.0000E+00  0.5120E+03
      8.119  0.0000E+00  0.5120E+03
      8.214  0.0000E+00  0.5120E+03
      8.308  0.0000E+00  0.5120E+03
      8.402  0.0000E+00  0.5120E+03
      8.497  0.0000E+00  0.5120E+03
      8.591  0.0000E+00  0.5120E+03
      8.686  0.0000E+00  0.5120E+03
      8.780  0.0000E+00  0.5120E+03
      8.875  0.0000E+00  0.5120E+03
