 running on   24 total cores
 distrk:  each k-point on   24 cores,    1 groups
 distr:  one band on    3 cores,    8 groups
 using from now: INCAR     
 vasp.5.4.1 24Jun15 (build Nov 25 2015 16:01:35) complex                        
  
 POSCAR found type information on POSCAR  C  N  H  Pb I 
 POSCAR found :  5 types and      96 ions
 scaLAPACK will be used

 ----------------------------------------------------------------------------- 
|                                                                             |
|  ADVICE TO THIS USER RUNNING 'VASP/VAMP'   (HEAR YOUR MASTER'S VOICE ...):  |
|                                                                             |
|      You have a (more or less) 'large supercell' and for larger cells       |
|      it might be more efficient to use real space projection opertators     |
|      So try LREAL= Auto  in the INCAR   file.                               |
|      Mind: At the moment your POTCAR file does not contain real space       |
|       projectors, and has to be modified,  BUT if you                       |
|      want to do an extremely  accurate calculation you might also keep the  |
|      reciprocal projection scheme          (i.e. LREAL=.FALSE.)             |
|                                                                             |
 ----------------------------------------------------------------------------- 


 ----------------------------------------------------------------------------- 
|                                                                             |
|  ADVICE TO THIS USER RUNNING 'VASP/VAMP'   (HEAR YOUR MASTER'S VOICE ...):  |
|                                                                             |
|      You enforced a specific xc-type in the INCAR file,                     |
|      a different type was found on the POTCAR file                          |
|          I HOPE YOU KNOW, WHAT YOU ARE  DOING                               |
|                                                                             |
 ----------------------------------------------------------------------------- 

 LDA part: xc-table for Pade appr. of Perdew
 POSCAR, INCAR and KPOINTS ok, starting setup
 WARNING: small aliasing (wrap around) errors must be expected
 FFT: planning ...
 WAVECAR not read
 entering main loop
       N       E                     dE             d eps       ncg     rms          rms(c)
DAV:   1     0.359619192187E+04    0.35962E+04   -0.18943E+05  7176   0.170E+03
DAV:   2     0.196603810330E+03   -0.33996E+04   -0.32100E+04  8016   0.354E+02
DAV:   3    -0.398201404577E+03   -0.59481E+03   -0.58622E+03  9440   0.171E+02
DAV:   4    -0.438315985449E+03   -0.40115E+02   -0.39940E+02  9640   0.490E+01
DAV:   5    -0.439836855511E+03   -0.15209E+01   -0.15186E+01  9776   0.925E+00    0.294E+01
DAV:   6    -0.419512629295E+03    0.20324E+02   -0.41100E+01  9624   0.103E+01    0.155E+01
DAV:   7    -0.417053995362E+03    0.24586E+01   -0.14551E+01 10256   0.639E+00    0.775E+00
DAV:   8    -0.416881210537E+03    0.17278E+00   -0.30680E+00  8576   0.320E+00    0.182E+00
DAV:   9    -0.416809203592E+03    0.72007E-01   -0.74060E-01  9344   0.174E+00    0.727E-01
DAV:  10    -0.416821607857E+03   -0.12404E-01   -0.11551E-01  9008   0.602E-01    0.475E-01
DAV:  11    -0.416821047195E+03    0.56066E-03   -0.13945E-02  9744   0.275E-01    0.211E-01
DAV:  12    -0.416822442256E+03   -0.13951E-02   -0.10236E-02  9840   0.162E-01    0.110E-01
DAV:  13    -0.416822593419E+03   -0.15116E-03   -0.14534E-03  8384   0.822E-02    0.774E-02
DAV:  14    -0.416822640411E+03   -0.46992E-04   -0.27606E-04  8624   0.293E-02    0.377E-02
DAV:  15    -0.416822685299E+03   -0.44888E-04   -0.21226E-04  8264   0.239E-02    0.140E-02
DAV:  16    -0.416822689886E+03   -0.45874E-05   -0.21517E-05 10136   0.961E-03    0.146E-02
DAV:  17    -0.416822689583E+03    0.30346E-06   -0.34428E-06  7984   0.345E-03    0.770E-03
DAV:  18    -0.416822689341E+03    0.24239E-06   -0.12300E-05  9080   0.553E-03    0.359E-03
DAV:  19    -0.416822689440E+03   -0.98971E-07   -0.12784E-06  8096   0.257E-03    0.304E-03
DAV:  20    -0.416822689440E+03   -0.36380E-09   -0.42757E-07  8296   0.109E-03    0.627E-04
DAV:  21    -0.416822689500E+03   -0.60532E-07   -0.82604E-08  7488   0.538E-04    0.384E-04
DAV:  22    -0.416822689485E+03    0.15316E-07   -0.46395E-09  4896   0.243E-04    0.241E-04
DAV:  23    -0.416822689483E+03    0.16807E-08   -0.34290E-10  4664   0.175E-04
   1 F= -.41682269E+03 E0= -.41682269E+03  d E =0.000000E+00
Application 22054459 resources: utime ~172796s, stime ~98s, Rss ~640352, inblocks ~184891, outblocks ~194557
