    2    2    1    1
  0.3405476E+02  0.4583961E-09  0.4583961E-09  0.4583961E-09  0.5000000E-15
  1.000000000000000E-004
  CAR 
 Name                                    
     18    145     16
 
  0.0000000E+00  0.0000000E+00  0.0000000E+00  0.4629630E-02
    1      -10.310345   1.000000
    2       -7.752661   1.000000
    3       -7.752661   1.000000
    4       -7.752661   1.000000
    5       -7.489072   1.000000
    6       -7.489072   1.000000
    7        1.831481   1.000000
    8        1.831481   1.000000
    9        1.831481   1.000000
   10        3.375721   0.000000
   11        7.302939   0.000000
   12        7.302939   0.000000
   13        7.302939   0.000000
   14       10.335291   0.000000
   15       12.171860   0.000000
   16       12.171977   0.000000
 
  0.1666667E+00  0.0000000E+00  0.0000000E+00  0.3703704E-01
    1      -10.207458   1.000000
    2       -7.734344   1.000000
    3       -7.734344   1.000000
    4       -7.651023   1.000000
    5       -7.490251   1.000000
    6       -7.490252   1.000000
    7        0.067397   1.000000
    8        1.590504   1.000000
    9        1.590504   1.000000
   10        4.459400   0.000000
   11        7.407002   0.000000
   12        7.664490   0.000000
   13        7.664491   0.000000
   14       11.231023   0.000000
   15       11.231023   0.000000
   16       11.303817   0.000000
 
  0.3333333E+00  0.0000000E+00  0.0000000E+00  0.3703704E-01
    1      -10.011223   1.000000
    2       -7.702363   1.000000
    3       -7.702363   1.000000
    4       -7.486996   1.000000
    5       -7.486996   1.000000
    6       -7.321847   1.000000
    7       -1.982138   1.000000
    8        1.181681   1.000000
    9        1.181681   1.000000
   10        4.561320   0.000000
   11        7.942756   0.000000
   12        7.942757   0.000000
   13        9.032533   0.000000
   14       10.852985   0.000000
   15       11.694283   0.000000
   16       11.694284   0.000000
 
  0.5000000E+00  0.0000000E+00  0.0000000E+00  0.1851852E-01
    1       -9.921022   1.000000
    2       -7.689555   1.000000
    3       -7.689555   1.000000
    4       -7.481659   1.000000
    5       -7.481659   1.000000
    6       -7.043994   1.000000
    7       -2.906904   1.000000
    8        1.002683   1.000000
    9        1.002683   1.000000
   10        4.442879   0.000000
   11        7.884727   0.000000
   12        7.884727   0.000000
   13        9.809650   0.000000
   14       11.579420   0.000000
   15       13.248110   0.000000
   16       13.248466   0.000000
 
  0.1666667E+00  0.1666667E+00  0.0000000E+00  0.2777778E-01
    1      -10.173909   1.000000
    2       -7.715771   1.000000
    3       -7.715770   1.000000
    4       -7.646392   1.000000
    5       -7.494801   1.000000
    6       -7.481914   1.000000
    7        0.085612   1.000000
    8        1.191603   1.000000
    9        1.191603   1.000000
   10        5.118564   0.000000
   11        6.337541   0.000000
   12        8.312260   0.000000
   13        8.312260   0.000000
   14        9.859580   0.000000
   15       12.151321   0.000000
   16       12.429113   0.000000
 
  0.3333333E+00  0.1666667E+00  0.0000000E+00  0.1111111E+00
    1      -10.011734   1.000000
    2       -7.689957   1.000000
    3       -7.680004   1.000000
    4       -7.530015   1.000000
    5       -7.476700   1.000000
    6       -7.357928   1.000000
    7       -1.469194   1.000000
    8        0.656930   1.000000
    9        0.751513   1.000000
   10        5.533021   0.000000
   11        6.704754   0.000000
   12        8.399440   0.000000
   13        8.904723   0.000000
   14       10.715895   0.000000
   15       12.612163   0.000000
   16       12.632018   0.000000
 
  0.5000000E+00  0.1666667E+00  0.0000000E+00  0.1111111E+00
    1       -9.893180   1.000000
    2       -7.674740   1.000000
    3       -7.664406   1.000000
    4       -7.504659   1.000000
    5       -7.478642   1.000000
    6       -7.009721   1.000000
    7       -2.668494   1.000000
    8        0.096843   1.000000
    9        0.660392   1.000000
   10        5.430624   0.000000
   11        7.369399   0.000000
   12        8.688849   0.000000
   13        9.356451   0.000000
   14       11.674406   0.000000
   15       12.924421   0.000000
   16       13.330558   0.000000
 
 -0.3333333E+00  0.1666667E+00  0.0000000E+00  0.1111111E+00
    1       -9.921804   1.000000
    2       -7.678505   1.000000
    3       -7.676022   1.000000
    4       -7.492870   1.000000
    5       -7.491312   1.000000
    6       -7.103513   1.000000
    7       -2.377997   1.000000
    8       -0.052879   1.000000
    9        0.978805   1.000000
   10        5.509203   0.000000
   11        7.607041   0.000000
   12        8.386673   0.000000
   13        9.131615   0.000000
   14       11.260817   0.000000
   15       12.081803   0.000000
   16       13.229157   0.000000
 
 -0.1666667E+00  0.1666667E+00  0.0000000E+00  0.5555556E-01
    1      -10.075038   1.000000
    2       -7.713581   1.000000
    3       -7.698682   1.000000
    4       -7.512698   1.000000
    5       -7.498326   1.000000
    6       -7.446075   1.000000
    7       -1.014378   1.000000
    8        0.515413   1.000000
    9        1.459664   1.000000
   10        5.350173   0.000000
   11        7.351890   0.000000
   12        7.921621   0.000000
   13        8.212788   0.000000
   14       10.431551   0.000000
   15       11.837620   0.000000
   16       12.711649   0.000000
 
  0.3333333E+00  0.3333333E+00  0.0000000E+00  0.2777778E-01
    1       -9.921193   1.000000
    2       -7.636382   1.000000
    3       -7.636381   1.000000
    4       -7.568325   1.000000
    5       -7.467573   1.000000
    6       -7.208869   1.000000
    7       -1.854016   1.000000
    8        0.229234   1.000000
    9        0.229234   1.000000
   10        5.325748   0.000000
   11        5.763665   0.000000
   12       10.126540   0.000000
   13       10.410889   0.000000
   14       10.410890   0.000000
   15       13.136106   0.000000
   16       15.002820   0.000000
 
  0.5000000E+00  0.3333333E+00  0.0000000E+00  0.1111111E+00
    1       -9.837983   1.000000
    2       -7.631002   1.000000
    3       -7.615757   1.000000
    4       -7.551225   1.000000
    5       -7.468673   1.000000
    6       -6.920389   1.000000
    7       -2.536614   1.000000
    8       -0.473810   1.000000
    9        0.083974   1.000000
   10        5.408014   0.000000
   11        6.359412   0.000000
   12        9.793002   0.000000
   13       10.590010   0.000000
   14       12.082799   0.000000
   15       13.623674   0.000000
   16       14.448415   0.000000
 
 -0.3333333E+00  0.3333333E+00  0.0000000E+00  0.5555556E-01
    1       -9.839036   1.000000
    2       -7.650243   1.000000
    3       -7.634379   1.000000
    4       -7.515865   1.000000
    5       -7.484889   1.000000
    6       -6.859811   1.000000
    7       -2.561200   1.000000
    8       -0.970724   1.000000
    9        0.416726   1.000000
   10        5.676584   0.000000
   11        7.903620   0.000000
   12        9.687713   0.000000
   13        9.741870   0.000000
   14       10.311361   0.000000
   15       11.809674   0.000000
   16       15.161825   0.000000
 
  0.5000000E+00  0.5000000E+00  0.0000000E+00  0.1388889E-01
    1       -9.810801   1.000000
    2       -7.593512   1.000000
    3       -7.593512   1.000000
    4       -7.584187   1.000000
    5       -7.460355   1.000000
    6       -6.859514   1.000000
    7       -2.770692   1.000000
    8       -0.168084   1.000000
    9       -0.168084   1.000000
   10        5.100752   0.000000
   11        5.295152   0.000000
   12       11.806280   0.000000
   13       12.200713   0.000000
   14       12.200722   0.000000
   15       13.725322   0.000000
   16       14.475176   0.000000
 
  0.5000000E+00  0.3333333E+00  0.1666667E+00  0.1111111E+00
    1       -9.893336   1.000000
    2       -7.658608   1.000000
    3       -7.649672   1.000000
    4       -7.527308   1.000000
    5       -7.477476   1.000000
    6       -7.070005   1.000000
    7       -2.187750   1.000000
    8       -0.376869   1.000000
    9        0.431630   1.000000
   10        6.327009   0.000000
   11        6.753136   0.000000
   12        7.957608   0.000000
   13       10.286843   0.000000
   14       11.023035   0.000000
   15       13.213397   0.000000
   16       14.464630   0.000000
 
 -0.3333333E+00  0.3333333E+00  0.1666667E+00  0.1111111E+00
    1       -9.839040   1.000000
    2       -7.649916   1.000000
    3       -7.635798   1.000000
    4       -7.513404   1.000000
    5       -7.486347   1.000000
    6       -6.859234   1.000000
    7       -2.605505   1.000000
    8       -0.719574   1.000000
    9        0.126499   1.000000
   10        6.444486   0.000000
   11        7.242970   0.000000
   12        8.535821   0.000000
   13       10.040022   0.000000
   14       10.839883   0.000000
   15       13.398836   0.000000
   16       14.171293   0.000000
 
 -0.3333333E+00  0.5000000E+00  0.1666667E+00  0.5555556E-01
    1       -9.812395   1.000000
    2       -7.623832   1.000000
    3       -7.619150   1.000000
    4       -7.536210   1.000000
    5       -7.477029   1.000000
    6       -6.798869   1.000000
    7       -2.653375   1.000000
    8       -0.552367   1.000000
    9       -0.423954   1.000000
   10        6.347264   0.000000
   11        6.448429   0.000000
   12        9.481436   0.000000
   13        9.766077   0.000000
   14       12.653350   0.000000
   15       14.061706   0.000000
   16       14.307288   0.000000
 
  0.0000000E+00  0.0000000E+00  0.0000000E+00  0.0000000E+00
    1      -10.310345   1.000000
    2       -7.752661   1.000000
    3       -7.752661   1.000000
    4       -7.752661   1.000000
    5       -7.489072   1.000000
    6       -7.489072   1.000000
    7        1.831481   1.000000
    8        1.831481   1.000000
    9        1.831481   1.000000
   10        3.375721   0.000000
   11        7.302939   0.000000
   12        7.302939   0.000000
   13        7.302939   0.000000
   14       10.335291   0.000000
   15       12.171865   0.000000
   16       12.172253   0.000000
 
  0.1612903E-01  0.0000000E+00  0.1612903E-01  0.0000000E+00
    1      -10.308940   1.000000
    2       -7.752292   1.000000
    3       -7.752292   1.000000
    4       -7.751689   1.000000
    5       -7.489201   1.000000
    6       -7.489000   1.000000
    7        1.794303   1.000000
    8        1.823916   1.000000
    9        1.823917   1.000000
   10        3.413936   0.000000
   11        7.287748   0.000000
   12        7.313949   0.000000
   13        7.313950   0.000000
   14       10.357706   0.000000
   15       12.084358   0.000000
   16       12.174498   0.000000
 
  0.3225807E-01  0.0000000E+00  0.3225807E-01  0.0000000E+00
    1      -10.304702   1.000000
    2       -7.751178   1.000000
    3       -7.751178   1.000000
    4       -7.748765   1.000000
    5       -7.489563   1.000000
    6       -7.488778   1.000000
    7        1.693676   1.000000
    8        1.801616   1.000000
    9        1.801616   1.000000
   10        3.517634   0.000000
   11        7.243581   0.000000
   12        7.346609   0.000000
   13        7.346610   0.000000
   14       10.423250   0.000000
   15       11.875483   0.000000
   16       12.181744   0.000000
 
  0.4838710E-01  0.0000000E+00  0.4838710E-01  0.0000000E+00
    1      -10.297687   1.000000
    2       -7.749341   1.000000
    3       -7.749341   1.000000
    4       -7.743874   1.000000
    5       -7.490161   1.000000
    6       -7.488416   1.000000
    7        1.547684   1.000000
    8        1.765119   1.000000
    9        1.765119   1.000000
   10        3.668380   0.000000
   11        7.174208   0.000000
   12        7.400359   0.000000
   13        7.400360   0.000000
   14       10.526894   0.000000
   15       11.626119   0.000000
   16       12.194017   0.000000
 
  0.6451613E-01  0.0000000E+00  0.6451613E-01  0.0000000E+00
    1      -10.287976   1.000000
    2       -7.746792   1.000000
    3       -7.746792   1.000000
    4       -7.736981   1.000000
    5       -7.490967   1.000000
    6       -7.487912   1.000000
    7        1.373829   1.000000
    8        1.715502   1.000000
    9        1.715502   1.000000
   10        3.848158   0.000000
   11        7.084679   0.000000
   12        7.474128   0.000000
   13        7.474129   0.000000
   14       10.658962   0.000000
   15       11.371775   0.000000
   16       12.210870   0.000000
 
  0.8064516E-01  0.0000000E+00  0.8064516E-01  0.0000000E+00
    1      -10.275684   1.000000
    2       -7.743548   1.000000
    3       -7.743548   1.000000
    4       -7.728054   1.000000
    5       -7.491929   1.000000
    6       -7.487273   1.000000
    7        1.183523   1.000000
    8        1.654090   1.000000
    9        1.654090   1.000000
   10        4.044759   0.000000
   11        6.980259   0.000000
   12        7.566601   0.000000
   13        7.566602   0.000000
   14       10.786703   0.000000
   15       11.152177   0.000000
   16       12.232716   0.000000
 
  0.9677421E-01  0.0000000E+00  0.9677421E-01  0.0000000E+00
    1      -10.260974   1.000000
    2       -7.739636   1.000000
    3       -7.739636   1.000000
    4       -7.717063   1.000000
    5       -7.492982   1.000000
    6       -7.486506   1.000000
    7        0.983727   1.000000
    8        1.582394   1.000000
    9        1.582394   1.000000
   10        4.250122   0.000000
   11        6.865745   0.000000
   12        7.676281   0.000000
   13        7.676281   0.000000
   14       10.740594   0.000000
   15       11.138706   0.000000
   16       12.259327   0.000000
 
  0.1129032E+00  0.0000000E+00  0.1129032E+00  0.0000000E+00
    1      -10.244009   1.000000
    2       -7.735086   1.000000
    3       -7.735085   1.000000
    4       -7.703989   1.000000
    5       -7.494032   1.000000
    6       -7.485622   1.000000
    7        0.778694   1.000000
    8        1.502009   1.000000
    9        1.502009   1.000000
   10        4.458541   0.000000
   11        6.745179   0.000000
   12        7.801579   0.000000
   13        7.801580   0.000000
   14       10.532266   0.000000
   15       11.320316   0.000000
   16       12.290763   0.000000
 
  0.1290323E+00  0.0000000E+00  0.1290323E+00  0.0000000E+00
    1      -10.224981   1.000000
    2       -7.729927   1.000000
    3       -7.729926   1.000000
    4       -7.688854   1.000000
    5       -7.494926   1.000000
    6       -7.484624   1.000000
    7        0.571093   1.000000
    8        1.414550   1.000000
    9        1.414550   1.000000
   10        4.665468   0.000000
   11        6.621852   0.000000
   12        7.940921   0.000000
   13        7.940921   0.000000
   14       10.311133   0.000000
   15       11.548099   0.000000
   16       12.326869   0.000000
 
  0.1451613E+00  0.0000000E+00  0.1451613E+00  0.0000000E+00
    1      -10.204125   1.000000
    2       -7.724204   1.000000
    3       -7.724204   1.000000
    4       -7.671762   1.000000
    5       -7.495443   1.000000
    6       -7.483524   1.000000
    7        0.362664   1.000000
    8        1.321555   1.000000
    9        1.321555   1.000000
   10        4.866698   0.000000
   11        6.498434   0.000000
   12        8.092798   0.000000
   13        8.092798   0.000000
   14       10.103169   0.000000
   15       11.797051   0.000000
   16       12.367639   0.000000
 
  0.1612903E+00  0.0000000E+00  0.1612903E+00  0.0000000E+00
    1      -10.181688   1.000000
    2       -7.717956   1.000000
    3       -7.717956   1.000000
    4       -7.652957   1.000000
    5       -7.495168   1.000000
    6       -7.482329   1.000000
    7        0.154691   1.000000
    8        1.224587   1.000000
    9        1.224587   1.000000
   10        5.057884   0.000000
   11        6.377141   0.000000
   12        8.255715   0.000000
   13        8.255716   0.000000
   14        9.916253   0.000000
   15       12.060752   0.000000
   16       12.412993   0.000000
 
  0.1774194E+00  0.0000000E+00  0.1774194E+00  0.0000000E+00
    1      -10.157977   1.000000
    2       -7.711256   1.000000
    3       -7.711256   1.000000
    4       -7.632995   1.000000
    5       -7.493450   1.000000
    6       -7.481061   1.000000
    7       -0.052000   1.000000
    8        1.124931   1.000000
    9        1.124931   1.000000
   10        5.234176   0.000000
   11        6.260052   0.000000
   12        8.428431   0.000000
   13        8.428431   0.000000
   14        9.755786   0.000000
   15       12.335839   0.000000
   16       12.462825   0.000000
 
  0.1935484E+00  0.0000000E+00  0.1935484E+00  0.0000000E+00
    1      -10.133263   1.000000
    2       -7.704149   1.000000
    3       -7.704149   1.000000
    4       -7.612925   1.000000
    5       -7.489096   1.000000
    6       -7.479729   1.000000
    7       -0.256635   1.000000
    8        1.023881   1.000000
    9        1.023881   1.000000
   10        5.389842   0.000000
   11        6.149496   0.000000
   12        8.609729   0.000000
   13        8.609729   0.000000
   14        9.626660   0.000000
   15       12.517031   0.000000
   16       12.619817   0.000000
 
  0.2096774E+00  0.0000000E+00  0.2096774E+00  0.0000000E+00
    1      -10.107839   1.000000
    2       -7.696707   1.000000
    3       -7.696707   1.000000
    4       -7.594538   1.000000
    5       -7.480240   1.000000
    6       -7.478348   1.000000
    7       -0.458602   1.000000
    8        0.922557   1.000000
    9        0.922557   1.000000
   10        5.517593   0.000000
   11        6.049061   0.000000
   12        8.798569   0.000000
   13        8.798569   0.000000
   14        9.533529   0.000000
   15       12.575462   0.000000
   16       12.910380   0.000000
 
  0.2258065E+00  0.0000000E+00  0.2258065E+00  0.0000000E+00
    1      -10.082014   1.000000
    2       -7.688996   1.000000
    3       -7.688996   1.000000
    4       -7.580032   1.000000
    5       -7.476930   1.000000
    6       -7.464624   1.000000
    7       -0.657327   1.000000
    8        0.821985   1.000000
    9        0.821985   1.000000
   10        5.606634   0.000000
   11        5.966081   0.000000
   12        8.994002   0.000000
   13        8.994003   0.000000
   14        9.480398   0.000000
   15       12.637946   0.000000
   16       13.205132   0.000000
 
  0.2419355E+00  0.0000000E+00  0.2419355E+00  0.0000000E+00
    1      -10.056094   1.000000
    2       -7.681084   1.000000
    3       -7.681084   1.000000
    4       -7.570628   1.000000
    5       -7.475487   1.000000
    6       -7.441011   1.000000
    7       -0.852245   1.000000
    8        0.723083   1.000000
    9        0.723083   1.000000
   10        5.640694   0.000000
   11        5.914436   0.000000
   12        9.195208   0.000000
   13        9.195208   0.000000
   14        9.469955   0.000000
   15       12.704280   0.000000
   16       13.501340   0.000000
 
  0.2580645E+00  0.0000000E+00  0.2580645E+00  0.0000000E+00
    1      -10.030397   1.000000
    2       -7.673048   1.000000
    3       -7.673048   1.000000
    4       -7.565729   1.000000
    5       -7.474034   1.000000
    6       -7.410054   1.000000
    7       -1.042795   1.000000
    8        0.626661   1.000000
    9        0.626661   1.000000
   10        5.615452   0.000000
   11        5.897876   0.000000
   12        9.401436   0.000000
   13        9.401437   0.000000
   14        9.502822   0.000000
   15       12.774191   0.000000
   16       13.795668   0.000000
 
  0.2741936E+00  0.0000000E+00  0.2741936E+00  0.0000000E+00
    1      -10.005206   1.000000
    2       -7.664968   1.000000
    3       -7.664968   1.000000
    4       -7.563903   1.000000
    5       -7.472587   1.000000
    6       -7.373301   1.000000
    7       -1.228344   1.000000
    8        0.533464   1.000000
    9        0.533464   1.000000
   10        5.557723   0.000000
   11        5.891235   0.000000
   12        9.577166   0.000000
   13        9.612013   0.000000
   14        9.612014   0.000000
   15       12.847364   0.000000
   16       14.084051   0.000000
 
  0.2903226E+00  0.0000000E+00  0.2903226E+00  0.0000000E+00
    1       -9.980777   1.000000
    2       -7.656931   1.000000
    3       -7.656931   1.000000
    4       -7.563957   1.000000
    5       -7.471160   1.000000
    6       -7.332169   1.000000
    7       -1.408203   1.000000
    8        0.444149   1.000000
    9        0.444149   1.000000
   10        5.491128   0.000000
   11        5.874542   0.000000
   12        9.688977   0.000000
   13        9.826299   0.000000
   14        9.826299   0.000000
   15       12.923401   0.000000
   16       14.361565   0.000000
 
  0.3064516E+00  0.0000000E+00  0.3064516E+00  0.0000000E+00
    1       -9.957361   1.000000
    2       -7.649026   1.000000
    3       -7.649026   1.000000
    4       -7.565118   1.000000
    5       -7.469769   1.000000
    6       -7.287749   1.000000
    7       -1.581620   1.000000
    8        0.359306   1.000000
    9        0.359306   1.000000
   10        5.425231   0.000000
   11        5.843148   0.000000
   12        9.832735   0.000000
   13       10.043664   0.000000
   14       10.043665   0.000000
   15       13.001825   0.000000
   16       14.622813   0.000000
 
  0.3225806E+00  0.0000000E+00  0.3225806E+00  0.0000000E+00
    1       -9.935187   1.000000
    2       -7.641342   1.000000
    3       -7.641341   1.000000
    4       -7.566921   1.000000
    5       -7.468430   1.000000
    6       -7.240956   1.000000
    7       -1.747760   1.000000
    8        0.279456   1.000000
    9        0.279456   1.000000
   10        5.363631   0.000000
   11        5.798764   0.000000
   12       10.002266   0.000000
   13       10.263423   0.000000
   14       10.263424   0.000000
   15       13.082017   0.000000
   16       14.860498   0.000000
 
  0.3387097E+00  0.0000000E+00  0.3387097E+00  0.0000000E+00
    1       -9.914457   1.000000
    2       -7.633962   1.000000
    3       -7.633961   1.000000
    4       -7.569067   1.000000
    5       -7.467156   1.000000
    6       -7.192658   1.000000
    7       -1.905689   1.000000
    8        0.205072   1.000000
    9        0.205073   1.000000
   10        5.307864   0.000000
   11        5.744879   0.000000
   12       10.191384   0.000000
   13       10.484815   0.000000
   14       10.484815   0.000000
   15       13.163246   0.000000
   16       15.068113   0.000000
 
  0.3548387E+00  0.0000000E+00  0.3548387E+00  0.0000000E+00
    1       -9.895349   1.000000
    2       -7.626973   1.000000
    3       -7.626973   1.000000
    4       -7.571368   1.000000
    5       -7.465961   1.000000
    6       -7.143766   1.000000
    7       -2.054389   1.000000
    8        0.136563   1.000000
    9        0.136563   1.000000
   10        5.258681   0.000000
   11        5.685159   0.000000
   12       10.394188   0.000000
   13       10.706914   0.000000
   14       10.706914   0.000000
   15       13.244607   0.000000
   16       15.236832   0.000000
 
  0.3709677E+00  0.0000000E+00  0.3709677E+00  0.0000000E+00
    1       -9.877982   1.000000
    2       -7.620445   1.000000
    3       -7.620445   1.000000
    4       -7.573659   1.000000
    5       -7.464852   1.000000
    6       -7.095256   1.000000
    7       -2.192661   1.000000
    8        0.074317   1.000000
    9        0.074317   1.000000
   10        5.216414   0.000000
   11        5.622842   0.000000
   12       10.605075   0.000000
   13       10.928487   0.000000
   14       10.928487   0.000000
   15       13.324974   0.000000
   16       15.357849   0.000000
 
  0.3870968E+00  0.0000000E+00  0.3870968E+00  0.0000000E+00
    1       -9.862466   1.000000
    2       -7.614479   1.000000
    3       -7.614479   1.000000
    4       -7.575873   1.000000
    5       -7.463846   1.000000
    6       -7.048220   1.000000
    7       -2.319310   1.000000
    8        0.018642   1.000000
    9        0.018642   1.000000
   10        5.181228   0.000000
   11        5.560689   0.000000
   12       10.818581   0.000000
   13       11.147889   0.000000
   14       11.147889   0.000000
   15       13.403004   0.000000
   16       15.432854   0.000000
 
  0.4032258E+00  0.0000000E+00  0.4032258E+00  0.0000000E+00
    1       -9.848887   1.000000
    2       -7.609142   1.000000
    3       -7.609142   1.000000
    4       -7.577921   1.000000
    5       -7.462951   1.000000
    6       -7.003829   1.000000
    7       -2.432996   1.000000
    8       -0.030175   1.000000
    9       -0.030175   1.000000
   10        5.153081   0.000000
   11        5.500967   0.000000
   12       11.029025   0.000000
   13       11.362727   0.000000
   14       11.362728   0.000000
   15       13.477081   0.000000
   16       15.456612   0.000000
 
  0.4193549E+00  0.0000000E+00  0.4193549E+00  0.0000000E+00
    1       -9.837314   1.000000
    2       -7.604504   1.000000
    3       -7.604504   1.000000
    4       -7.579745   1.000000
    5       -7.462177   1.000000
    6       -6.963324   1.000000
    7       -2.532358   1.000000
    8       -0.071889   1.000000
    9       -0.071889   1.000000
   10        5.131764   0.000000
   11        5.445592   0.000000
   12       11.230152   0.000000
   13       11.569490   0.000000
   14       11.569490   0.000000
   15       13.545337   0.000000
   16       15.210740   0.000000
 
  0.4354839E+00  0.0000000E+00  0.4354839E+00  0.0000000E+00
    1       -9.827811   1.000000
    2       -7.600627   1.000000
    3       -7.600627   1.000000
    4       -7.581305   1.000000
    5       -7.461532   1.000000
    6       -6.927963   1.000000
    7       -2.616035   1.000000
    8       -0.106294   1.000000
    9       -0.106294   1.000000
   10        5.116853   0.000000
   11        5.396278   0.000000
   12       11.414705   0.000000
   13       11.762904   0.000000
   14       11.762905   0.000000
   15       13.605663   0.000000
   16       14.980537   0.000000
 
  0.4516129E+00  0.0000000E+00  0.4516129E+00  0.0000000E+00
    1       -9.820394   1.000000
    2       -7.597556   1.000000
    3       -7.597555   1.000000
    4       -7.582551   1.000000
    5       -7.461024   1.000000
    6       -6.898948   1.000000
    7       -2.682724   1.000000
    8       -0.133230   1.000000
    9       -0.133230   1.000000
   10        5.107606   0.000000
   11        5.354700   0.000000
   12       11.574111   0.000000
   13       11.935074   0.000000
   14       11.935074   0.000000
   15       13.656087   0.000000
   16       14.785958   0.000000
 
  0.4677419E+00  0.0000000E+00  0.4677419E+00  0.0000000E+00
    1       -9.815076   1.000000
    2       -7.595322   1.000000
    3       -7.595322   1.000000
    4       -7.583457   1.000000
    5       -7.460654   1.000000
    6       -6.877350   1.000000
    7       -2.731277   1.000000
    8       -0.152562   1.000000
    9       -0.152562   1.000000
   10        5.102875   0.000000
   11        5.322683   0.000000
   12       11.698688   0.000000
   13       12.074762   0.000000
   14       12.074765   0.000000
   15       13.693656   0.000000
   16       14.618727   0.000000
 
  0.4838710E+00  0.0000000E+00  0.4838710E+00  0.0000000E+00
    1       -9.811874   1.000000
    2       -7.593970   1.000000
    3       -7.593969   1.000000
    4       -7.584009   1.000000
    5       -7.460432   1.000000
    6       -6.864023   1.000000
    7       -2.760800   1.000000
    8       -0.164201   1.000000
    9       -0.164201   1.000000
   10        5.101118   0.000000
   11        5.302231   0.000000
   12       11.778641   0.000000
   13       12.167782   0.000000
   14       12.167784   0.000000
   15       13.717192   0.000000
   16       14.512827   0.000000
 
  0.5000000E+00  0.0000000E+00  0.5000000E+00  0.0000000E+00
    1       -9.810801   1.000000
    2       -7.593512   1.000000
    3       -7.593512   1.000000
    4       -7.584187   1.000000
    5       -7.460355   1.000000
    6       -6.859514   1.000000
    7       -2.770692   1.000000
    8       -0.168084   1.000000
    9       -0.168084   1.000000
   10        5.100752   0.000000
   11        5.295152   0.000000
   12       11.806280   0.000000
   13       12.200713   0.000000
   14       12.200724   0.000000
   15       13.725220   0.000000
   16       14.476177   0.000000
 
  0.4937500E+00  0.1875000E-01  0.5125000E+00  0.0000000E+00
    1       -9.810992   1.000000
    2       -7.595595   1.000000
    3       -7.594187   1.000000
    4       -7.581823   1.000000
    5       -7.460598   1.000000
    6       -6.859042   1.000000
    7       -2.767277   1.000000
    8       -0.174923   1.000000
    9       -0.172615   1.000000
   10        5.118766   0.000000
   11        5.313806   0.000000
   12       11.734662   0.000000
   13       12.121412   0.000000
   14       12.232891   0.000000
   15       13.744496   0.000000
   16       14.447082   0.000000
 
  0.4875000E+00  0.3750000E-01  0.5250000E+00  0.0000000E+00
    1       -9.811548   1.000000
    2       -7.599430   1.000000
    3       -7.596142   1.000000
    4       -7.577128   1.000000
    5       -7.461299   1.000000
    6       -6.857648   1.000000
    7       -2.757230   1.000000
    8       -0.194979   1.000000
    9       -0.185303   1.000000
   10        5.172365   0.000000
   11        5.368836   0.000000
   12       11.550286   0.000000
   13       11.923964   0.000000
   14       12.290364   0.000000
   15       13.792986   0.000000
   16       14.388560   0.000000
 
  0.4812500E+00  0.5625000E-01  0.5375000E+00  0.0000000E+00
    1       -9.812446   1.000000
    2       -7.603455   1.000000
    3       -7.599261   1.000000
    4       -7.571696   1.000000
    5       -7.462451   1.000000