       N       E                     dE             d eps       ncg     rms          ort
DAV:   1     0.638506055837E+03    0.63851E+03   -0.43412E+04  2320   0.188E+03
DAV:   2     0.944774149596E+02   -0.54403E+03   -0.50423E+03  2320   0.626E+02
DAV:   3     0.308008324571E+02   -0.63677E+02   -0.60526E+02  2320   0.157E+02
DAV:   4     0.279054122589E+02   -0.28954E+01   -0.28895E+01  2320   0.328E+01
DAV:   5     0.278530174107E+02   -0.52395E-01   -0.52387E-01  2320   0.370E+00
SDA:   6    -0.459153645919E+01   -0.32445E+02   -0.52387E-01  2320   0.714E+01 0.000E+00
CGA:   7    -0.579789753385E+01   -0.12064E+01   -0.12152E+01  2320   0.319E+00 0.855E-01
CGA:   8    -0.596841721980E+01   -0.17052E+00   -0.16003E+00  2320   0.967E-01 0.379E-01
CGA:   9    -0.601313104944E+01   -0.44714E-01   -0.44044E-01  2320   0.294E-01 0.323E-02
CGA:  10    -0.602375329023E+01   -0.10622E-01   -0.10526E-01  2320   0.725E-02 0.648E-03
CGA:  11    -0.602574635498E+01   -0.19931E-02   -0.19928E-02  2320   0.877E-03 0.721E-05
CGA:  12    -0.602612608753E+01   -0.37973E-03   -0.38281E-03  2320   0.253E-03-0.152E-04
CGA:  13    -0.602622657829E+01   -0.10049E-03   -0.10121E-03  2320   0.664E-04-0.429E-05
CGA:  14    -0.602625205861E+01   -0.25480E-04   -0.25866E-04  2320   0.154E-04-0.261E-05
CGA:  15    -0.602625753426E+01   -0.54757E-05   -0.57034E-05  2320   0.448E-05-0.177E-05
CGA:  16    -0.602625891828E+01   -0.13840E-05   -0.14066E-05  2320   0.921E-06-0.246E-06
CGA:  17    -0.602625928828E+01   -0.37000E-06   -0.42961E-06  2320   0.522E-06-0.271E-06
   1 F= -.60262593E+01 E0= -.60262593E+01  d E =-.736673E-51
