       N       E                     dE             d eps       ncg     rms          rms(c)
DAV:   1     0.356892489411E+04    0.35689E+04   -0.18910E+05  7176   0.170E+03
DAV:   2     0.201542355901E+03   -0.33674E+04   -0.31520E+04  8056   0.353E+02
DAV:   3    -0.391762081401E+03   -0.59330E+03   -0.58389E+03  9472   0.171E+02
DAV:   4    -0.432354548336E+03   -0.40592E+02   -0.40409E+02  9688   0.489E+01
DAV:   5    -0.433833945171E+03   -0.14794E+01   -0.14760E+01  9776   0.906E+00    0.278E+01
DAV:   6    -0.414635162736E+03    0.19199E+02   -0.37168E+01 10008   0.107E+01    0.148E+01
DAV:   7    -0.412429670494E+03    0.22055E+01   -0.16721E+01  9880   0.715E+00    0.755E+00
DAV:   8    -0.412231903477E+03    0.19777E+00   -0.32696E+00  8704   0.353E+00    0.186E+00
DAV:   9    -0.412182035054E+03    0.49868E-01   -0.53626E-01  8960   0.171E+00    0.641E-01
DAV:  10    -0.412195013139E+03   -0.12978E-01   -0.13608E-01  8816   0.653E-01    0.486E-01
DAV:  11    -0.412193626982E+03    0.13862E-02   -0.16079E-02  9296   0.322E-01    0.247E-01
DAV:  12    -0.412195096497E+03   -0.14695E-02   -0.11786E-02 10112   0.176E-01    0.108E-01
DAV:  13    -0.412195457942E+03   -0.36144E-03   -0.12273E-03  8080   0.809E-02    0.772E-02
DAV:  14    -0.412195479533E+03   -0.21591E-04   -0.20255E-04  9536   0.292E-02    0.424E-02
DAV:  15    -0.412195517132E+03   -0.37599E-04   -0.20030E-04  8648   0.244E-02    0.101E-02
DAV:  16    -0.412195526834E+03   -0.97026E-05   -0.38098E-05 10504   0.122E-02    0.148E-02
DAV:  17    -0.412195526576E+03    0.25874E-06   -0.50014E-06  8440   0.423E-03    0.639E-03
DAV:  18    -0.412195526937E+03   -0.36176E-06   -0.11934E-05 10200   0.579E-03    0.485E-03
DAV:  19    -0.412195526877E+03    0.59954E-07   -0.13923E-06  8528   0.286E-03    0.278E-03
DAV:  20    -0.412195526943E+03   -0.65822E-07   -0.39585E-07  9640   0.105E-03    0.747E-04
DAV:  21    -0.412195527005E+03   -0.61704E-07   -0.11014E-07  9032   0.640E-04    0.548E-04
DAV:  22    -0.412195526991E+03    0.13519E-07   -0.12661E-08  8360   0.274E-04    0.360E-04
DAV:  23    -0.412195526981E+03    0.10834E-07   -0.61163E-09  8608   0.203E-04    0.242E-04
DAV:  24    -0.412195526980E+03    0.73851E-09    0.10464E-09  7872   0.877E-05    0.209E-04
DAV:  25    -0.412195526984E+03   -0.41109E-08    0.10829E-09  6896   0.702E-05    0.159E-04
DAV:  26    -0.412195526985E+03   -0.97134E-09    0.15901E-09  6016   0.557E-05    0.162E-04
DAV:  27    -0.412195526983E+03    0.16771E-08    0.16906E-09  4592   0.279E-05    0.159E-04
DAV:  28    -0.412195526983E+03    0.65120E-09    0.19297E-09  4408   0.255E-05    0.154E-04
DAV:  29    -0.412195526983E+03    0.12005E-09    0.18036E-09  4304   0.135E-05    0.154E-04
DAV:  30    -0.412195526983E+03   -0.39290E-09    0.16936E-09  4296   0.872E-06    0.154E-04
DAV:  31    -0.412195526983E+03    0.14188E-09    0.16689E-09  4256   0.520E-06    0.154E-04
DAV:  32    -0.412195526983E+03   -0.64028E-09    0.14911E-09  4256   0.111E-05    0.154E-04
DAV:  33    -0.412195526983E+03    0.22919E-09    0.17000E-09  4256   0.762E-06    0.154E-04
DAV:  34    -0.412195526983E+03   -0.58208E-10    0.17058E-09  4256   0.343E-06    0.154E-04
DAV:  35    -0.412195526983E+03   -0.15643E-09    0.16200E-09  4256   0.194E-06    0.154E-04
DAV:  36    -0.412195526983E+03    0.80036E-10    0.16040E-09  4256   0.132E-06    0.154E-04
DAV:  37    -0.412195526983E+03    0.80036E-10    0.16211E-09  4216   0.120E-06    0.154E-04
DAV:  38    -0.412195526983E+03    0.30195E-09    0.16153E-09  4208   0.256E-06    0.154E-04
DAV:  39    -0.412195526983E+03   -0.36380E-11    0.16575E-09  4176   0.376E-06    0.154E-04
DAV:  40    -0.412195526982E+03    0.46930E-09    0.16837E-09  4112   0.304E-06    0.154E-04
DAV:  41    -0.412195526983E+03   -0.13824E-09    0.17258E-09  4056   0.261E-06    0.154E-04
DAV:  42    -0.412195526983E+03   -0.24374E-09    0.18038E-09  4040   0.297E-06    0.154E-04
DAV:  43    -0.412195526983E+03    0.32378E-09    0.17158E-09  4040   0.850E-07    0.154E-04
DAV:  44    -0.412195526983E+03   -0.20736E-09    0.16690E-09  4040   0.122E-06    0.154E-04
DAV:  45    -0.412195526983E+03   -0.87311E-10    0.17617E-09  4040   0.246E-06    0.154E-04
DAV:  46    -0.412195526983E+03    0.16007E-09    0.19059E-09  4040   0.258E-06    0.154E-04
DAV:  47    -0.412195526982E+03    0.27285E-09    0.17868E-09  4040   0.904E-07    0.154E-04
DAV:  48    -0.412195526983E+03   -0.10914E-09    0.17765E-09  4024   0.714E-07    0.154E-04
DAV:  49    -0.412195526983E+03   -0.58208E-10    0.18411E-09  4016   0.122E-06    0.155E-04
DAV:  50    -0.412195526983E+03   -0.46202E-09    0.17817E-09  3992   0.618E-06    0.154E-04
DAV:  51    -0.412195526983E+03    0.22919E-09    0.14345E-09  3952   0.295E-06    0.154E-04
DAV:  52    -0.412195526983E+03   -0.37471E-09    0.12431E-09  3944   0.155E-06    0.154E-04
DAV:  53    -0.412195526983E+03    0.10914E-10    0.12248E-09  3944   0.104E-06    0.154E-04
DAV:  54    -0.412195526983E+03   -0.47294E-10    0.12465E-09  3928   0.611E-07    0.154E-04
DAV:  55    -0.412195526983E+03    0.12733E-09    0.12361E-09  3920   0.578E-07    0.154E-04
DAV:  56    -0.412195526983E+03    0.21828E-10    0.12245E-09  3920   0.166E-06    0.154E-04
DAV:  57    -0.412195526983E+03    0.76398E-10    0.11446E-09  3920   0.367E-06    0.155E-04
DAV:  58    -0.412195526983E+03    0.10186E-09    0.11882E-09  3920   0.195E-06    0.155E-04
DAV:  59    -0.412195526983E+03    0.15643E-09    0.11811E-09  3920   0.102E-06    0.155E-04
DAV:  60    -0.412195526983E+03   -0.72760E-10    0.12233E-09  3920   0.844E-07
   1 F= -.41219553E+03 E0= -.41219553E+03  d E =0.000000E+00
