 vasp.5.4.1 24Jun15 (build Nov 25 2015 16:01:35) complex                        
  
 executed on         CrayXC-Intel date 2016.07.12  03:58:47
 running on   96 total cores
 distrk:  each k-point on   24 cores,    4 groups
 distr:  one band on NCORES_PER_BAND=   3 cores,    8 groups


--------------------------------------------------------------------------------------------------------


 INCAR:
 POTCAR:    PAW_PBE C 08Apr2002                   
 POTCAR:    PAW_PBE N 08Apr2002                   
 POTCAR:    PAW_PBE H 15Jun2001                   
 POTCAR:    PAW_PBE Pb_d 06Sep2000                
 POTCAR:    PAW_PBE I 08Apr2002                   

 ----------------------------------------------------------------------------- 
|                                                                             |
|           W    W    AA    RRRRR   N    N  II  N    N   GGGG   !!!           |
|           W    W   A  A   R    R  NN   N  II  NN   N  G    G  !!!           |
|           W    W  A    A  R    R  N N  N  II  N N  N  G       !!!           |
|           W WW W  AAAAAA  RRRRR   N  N N  II  N  N N  G  GGG   !            |
|           WW  WW  A    A  R   R   N   NN  II  N   NN  G    G                |
|           W    W  A    A  R    R  N    N  II  N    N   GGGG   !!!           |
|                                                                             |
|      For optimal performance we recommend to set                            |
|        NCORE= 4 - approx SQRT( number of cores)                             |
|      NCORE specifies how many cores store one orbital (NPAR=cpu/NCORE).     |
|      This setting can  greatly improve the performance of VASP for DFT.     |
|      The default, NPAR=number of cores might be grossly inefficient         |
|      on modern multi-core architectures or massively parallel machines.     |
|      Do your own testing !!!!                                               |
|      Unfortunately you need to use the default for GW and RPA calculations. |
|      (for HF NCORE is supported but not extensively tested yet)             |
|                                                                             |
 ----------------------------------------------------------------------------- 


 ----------------------------------------------------------------------------- 
|                                                                             |
|           W    W    AA    RRRRR   N    N  II  N    N   GGGG   !!!           |
|           W    W   A  A   R    R  NN   N  II  NN   N  G    G  !!!           |
|           W    W  A    A  R    R  N N  N  II  N N  N  G       !!!           |
|           W WW W  AAAAAA  RRRRR   N  N N  II  N  N N  G  GGG   !            |
|           WW  WW  A    A  R   R   N   NN  II  N   NN  G    G                |
|           W    W  A    A  R    R  N    N  II  N    N   GGGG   !!!           |
|                                                                             |
|      You have enabled k-point parallelism (KPAR>1).                         |
|      This developmental code was originally  written by Paul Kent at ORNL,  |
|      and carefully double checked in Vienna.                                |
|      GW as well as linear response parallelism added by Martijn Marsman     |
|      and Georg Kresse.                                                      |
|      Carefully verify results versus KPAR=1.                                |
|      Report problems to Paul Kent and Vienna.                               |
|                                                                             |
 ----------------------------------------------------------------------------- 

 POTCAR:    PAW_PBE C 08Apr2002                   
   VRHFIN =C: s2p2                                                              
   LEXCH  = PE                                                                  
   EATOM  =   147.1560 eV,   10.8157 Ry                                         
                                                                                
   TITEL  = PAW_PBE C 08Apr2002                                                 
   LULTRA =        F    use ultrasoft PP ?                                      
   IUNSCR =        1    unscreen: 0-lin 1-nonlin 2-no                           
   RPACOR =    1.200    partial core radius                                     
   POMASS =   12.011; ZVAL   =    4.000    mass and valenz                      
   RCORE  =    1.500    outmost cutoff radius                                   
   RWIGS  =    1.630; RWIGS  =    0.863    wigner-seitz radius (au A)           
   ENMAX  =  400.000; ENMIN  =  300.000 eV                                      
   ICORE  =        2    local potential                                         
   LCOR   =        T    correct aug charges                                     
   LPAW   =        T    paw PP                                                  
   EAUG   =  644.873                                                            
   DEXC   =    0.000                                                            
   RMAX   =    1.529    core radius for proj-oper                               
   RAUG   =    1.300    factor for augmentation sphere                          
   RDEP   =    1.501    radius for radial grids                                 
   RDEPT  =    1.300    core radius for aug-charge                              
                                                                                
   Atomic configuration                                                         
    4 entries                                                                   
     n  l   j            E        occ.                                          
     1  0  0.50      -273.3789   2.0000                                         
     2  0  0.50       -13.7508   2.0000                                         
     2  1  0.50        -5.2854   2.0000                                         
     3  2  1.50        -5.4423   0.0000                                         
   Description                                                                  
     l       E           TYP  RCUT    TYP  RCUT                                 
     0    -13.7508458     23  1.200                                             
     0     -8.2022199     23  1.200                                             
     1     -5.2854383     23  1.500                                             
     1     34.0145650     23  1.500                                             
     2     -5.4423304      7  1.500                                             
  local pseudopotential read in
  partial core-charges read in
  partial kinetic energy density read in
  atomic valenz-charges read in
  non local Contribution for L=           0  read in
    real space projection operators read in
  non local Contribution for L=           0  read in
    real space projection operators read in
  non local Contribution for L=           1  read in
    real space projection operators read in
  non local Contribution for L=           1  read in
    real space projection operators read in
    PAW grid and wavefunctions read in
 
   number of l-projection  operators is LMAX  =           4
   number of lm-projection operators is LMMAX =           8
 
 POTCAR:    PAW_PBE N 08Apr2002                   
   VRHFIN =N: s2p3                                                              
   LEXCH  = PE                                                                  
   EATOM  =   264.5486 eV,   19.4438 Ry                                         
                                                                                
   TITEL  = PAW_PBE N 08Apr2002                                                 
   LULTRA =        F    use ultrasoft PP ?                                      
   IUNSCR =        1    unscreen: 0-lin 1-nonlin 2-no                           
   RPACOR =    1.200    partial core radius                                     
   POMASS =   14.001; ZVAL   =    5.000    mass and valenz                      
   RCORE  =    1.500    outmost cutoff radius                                   
   RWIGS  =    1.400; RWIGS  =    0.741    wigner-seitz radius (au A)           
   ENMAX  =  400.000; ENMIN  =  300.000 eV                                      
   ICORE  =        2    local potential                                         
   LCOR   =        T    correct aug charges                                     
   LPAW   =        T    paw PP                                                  
   EAUG   =  627.112                                                            
   DEXC   =    0.000                                                            
   RMAX   =    1.529    core radius for proj-oper                               
   RAUG   =    1.300    factor for augmentation sphere                          
   RDEP   =    1.514    radius for radial grids                                 
   RDEPT  =    1.338    core radius for aug-charge                              
                                                                                
   Atomic configuration                                                         
    4 entries                                                                   
     n  l   j            E        occ.                                          
     1  0  0.50      -384.7179   2.0000                                         
     2  0  0.50       -18.5828   2.0000                                         
     2  1  0.50        -7.0898   3.0000                                         
     3  2  1.50        -6.8029   0.0000                                         
   Description                                                                  
     l       E           TYP  RCUT    TYP  RCUT                                 
     0    -18.5828119     23  1.200                                             
     0    -13.5018863     23  1.200                                             
     1     -7.0897853     23  1.500                                             
     1      9.5240782     23  1.500                                             
     2     -6.8029130      7  1.500                                             
  local pseudopotential read in
  partial core-charges read in
  partial kinetic energy density read in
  atomic valenz-charges read in
  non local Contribution for L=           0  read in
    real space projection operators read in
  non local Contribution for L=           0  read in
    real space projection operators read in
  non local Contribution for L=           1  read in
    real space projection operators read in
  non local Contribution for L=           1  read in
    real space projection operators read in
    PAW grid and wavefunctions read in
 
   number of l-projection  operators is LMAX  =           4
   number of lm-projection operators is LMMAX =           8
 
 POTCAR:    PAW_PBE H 15Jun2001                   
   VRHFIN =H: ultrasoft test                                                    
   LEXCH  = PE                                                                  
   EATOM  =    12.4884 eV,    0.9179 Ry                                         
                                                                                
   TITEL  = PAW_PBE H 15Jun2001                                                 
   LULTRA =        F    use ultrasoft PP ?                                      
   IUNSCR =        0    unscreen: 0-lin 1-nonlin 2-no                           
   RPACOR =    0.000    partial core radius                                     
   POMASS =    1.000; ZVAL   =    1.000    mass and valenz                      
   RCORE  =    1.100    outmost cutoff radius                                   
   RWIGS  =    0.700; RWIGS  =    0.370    wigner-seitz radius (au A)           
   ENMAX  =  250.000; ENMIN  =  200.000 eV                                      
   RCLOC  =    0.701    cutoff for local pot                                    
   LCOR   =        T    correct aug charges                                     
   LPAW   =        T    paw PP                                                  
   EAUG   =  400.000                                                            
   RMAX   =    1.123    core radius for proj-oper                               
   RAUG   =    1.200    factor for augmentation sphere                          
   RDEP   =    1.112    radius for radial grids                                 
   RDEPT  =    0.926    core radius for aug-charge                              
                                                                                
   Atomic configuration                                                         
    2 entries                                                                   
     n  l   j            E        occ.                                          
     1  0  0.50        -6.4927   1.0000                                         
     2  1  0.50        -3.4015   0.0000                                         
   Description                                                                  
     l       E           TYP  RCUT    TYP  RCUT                                 
     0     -6.4927494     23  1.100                                             
     0      6.8029130     23  1.100                                             
     1     -4.0817478     23  1.100                                             
  local pseudopotential read in
  atomic valenz-charges read in
  non local Contribution for L=           0  read in
    real space projection operators read in
  non local Contribution for L=           0  read in
    real space projection operators read in
  non local Contribution for L=           1  read in
    real space projection operators read in
    PAW grid and wavefunctions read in
 
   number of l-projection  operators is LMAX  =           3
   number of lm-projection operators is LMMAX =           5
 
 POTCAR:    PAW_PBE Pb_d 06Sep2000                
   VRHFIN =Pb:                                                                  
   LEXCH  = PE                                                                  
   EATOM  =  1661.6185 eV,  122.1255 Ry                                         
                                                                                
   TITEL  = PAW_PBE Pb_d 06Sep2000                                              
   LULTRA =        F    use ultrasoft PP ?                                      
   IUNSCR =        1    unscreen: 0-lin 1-nonlin 2-no                           
   RPACOR =    2.200    partial core radius                                     
   POMASS =  207.200; ZVAL   =   14.000    mass and valenz                      
   RCORE  =    2.500    outmost cutoff radius                                   
   RWIGS  =    3.260; RWIGS  =    1.725    wigner-seitz radius (au A)           
   ENMAX  =  237.835; ENMIN  =  178.376 eV                                      
   ICORE  =        3    local potential                                         
   LCOR   =        T    correct aug charges                                     
   LPAW   =        T    paw PP                                                  
   EAUG   =  391.914                                                            
   DEXC   =    0.000                                                            
   RMAX   =    2.565    core radius for proj-oper                               
   RAUG   =    1.300    factor for augmentation sphere                          
   RDEP   =    2.643    radius for radial grids                                 
   RDEPT  =    2.092    core radius for aug-charge                              
                                                                                
   Atomic configuration                                                         
   16 entries                                                                   
     n  l   j            E        occ.                                          
     1  0  0.50    -88091.8466   2.0000                                         
     2  0  0.50    -15753.4197   2.0000                                         
     2  1  1.50    -13508.1797   6.0000                                         
     3  0  0.50     -3781.7194   2.0000                                         
     3  1  1.50     -3138.2529   6.0000                                         
     3  2  2.50     -2483.2977  10.0000                                         
     4  0  0.50      -856.2895   2.0000                                         
     4  1  1.50      -645.4942   6.0000                                         
     4  2  2.50      -401.8768  10.0000                                         
     4  3  3.50      -132.9059  14.0000                                         
     5  0  0.50      -144.0950   2.0000                                         
     5  1  1.50       -85.7879   6.0000                                         
     5  2  2.50       -21.1769  10.0000                                         
     6  0  0.50       -12.0372   2.0000                                         
     6  1  1.50        -3.4971   2.0000                                         
     5  3  2.50        -2.7212   0.0000                                         
   Description                                                                  
     l       E           TYP  RCUT    TYP  RCUT                                 
     2    -21.1768523     23  2.500                                             
     2      1.3605826     23  2.500                                             
     0    -12.0371562     23  2.500                                             
     0     13.6058260     23  2.500                                             
     1     -3.4971339     23  2.500                                             
     1     13.6058260     23  2.500                                             
     3     -1.3605826      7  2.500                                             
  local pseudopotential read in
  partial core-charges read in
  partial kinetic energy density read in
  atomic valenz-charges read in
  non local Contribution for L=           2  read in
    real space projection operators read in
  non local Contribution for L=           2  read in
    real space projection operators read in
  non local Contribution for L=           0  read in
    real space projection operators read in
  non local Contribution for L=           0  read in
    real space projection operators read in
  non local Contribution for L=           1  read in
    real space projection operators read in
  non local Contribution for L=           1  read in
    real space projection operators read in
    PAW grid and wavefunctions read in
 
   number of l-projection  operators is LMAX  =           6
   number of lm-projection operators is LMMAX =          18
 
 POTCAR:    PAW_PBE I 08Apr2002                   
   VRHFIN =I : s2p5                                                             
   LEXCH  = PE                                                                  
   EATOM  =   315.8678 eV,   23.2156 Ry                                         
                                                                                
   TITEL  = PAW_PBE I 08Apr2002                                                 
   LULTRA =        F    use ultrasoft PP ?                                      
   IUNSCR =        1    unscreen: 0-lin 1-nonlin 2-no                           
   RPACOR =    2.200    partial core radius                                     
   POMASS =  126.904; ZVAL   =    7.000    mass and valenz                      
   RCORE  =    2.300    outmost cutoff radius                                   
   RWIGS  =    2.810; RWIGS  =    1.487    wigner-seitz radius (au A)           
   ENMAX  =  175.647; ENMIN  =  131.735 eV                                      
   ICORE  =        3    local potential                                         
   LCOR   =        T    correct aug charges                                     
   LPAW   =        T    paw PP                                                  
   EAUG   =  370.139                                                            
   DEXC   =    0.000                                                            
   RMAX   =    2.359    core radius for proj-oper                               
   RAUG   =    1.300    factor for augmentation sphere                          
   RDEP   =    2.392    radius for radial grids                                 
   RDEPT  =    2.170    core radius for aug-charge                              
                                                                                
   Atomic configuration                                                         
   13 entries                                                                   
     n  l   j            E        occ.                                          
     1  0  0.50    -32976.3739   2.0000                                         
     2  0  0.50     -5094.5933   2.0000                                         
     2  1  1.50     -4572.0131   6.0000                                         
     3  0  0.50     -1028.2813   2.0000                                         
     3  1  1.50      -859.0250   6.0000                                         
     3  2  2.50      -605.7620  10.0000                                         
     4  0  0.50      -180.5540   2.0000                                         
     4  1  1.50      -127.5306   6.0000                                         
     4  2  2.50       -50.2720  10.0000                                         
     5  0  0.50       -17.4058   2.0000                                         
     5  1  0.50        -7.0851   5.0000                                         
     5  2  1.50        -7.0750   0.0000                                         
     4  3  2.50        -7.0750   0.0000                                         
   Description                                                                  
     l       E           TYP  RCUT    TYP  RCUT                                 
     0    -17.4058016     23  2.300                                             
     0    -18.7663842     23  2.300                                             
     1     -7.0850686     23  2.300                                             
     1     -4.2150896     23  2.300                                             
     2     -7.0750295     23  2.300                                             
     3     -1.3605826     23  2.300                                             
  local pseudopotential read in
  partial core-charges read in
  partial kinetic energy density read in
  atomic valenz-charges read in
  non local Contribution for L=           0  read in
    real space projection operators read in
  non local Contribution for L=           0  read in
    real space projection operators read in
  non local Contribution for L=           1  read in
    real space projection operators read in
  non local Contribution for L=           1  read in
    real space projection operators read in
  non local Contribution for L=           2  read in
    real space projection operators read in
    PAW grid and wavefunctions read in
 
   number of l-projection  operators is LMAX  =           5
   number of lm-projection operators is LMMAX =          13
 

 ----------------------------------------------------------------------------- 
|                                                                             |
|  ADVICE TO THIS USER RUNNING 'VASP/VAMP'   (HEAR YOUR MASTER'S VOICE ...):  |
|                                                                             |
|      You have a (more or less) 'large supercell' and for larger cells       |
|      it might be more efficient to use real space projection opertators     |
|      So try LREAL= Auto  in the INCAR   file.                               |
|      Mind: At the moment your POTCAR file does not contain real space       |
|       projectors, and has to be modified,  BUT if you                       |
|      want to do an extremely  accurate calculation you might also keep the  |
|      reciprocal projection scheme          (i.e. LREAL=.FALSE.)             |
|                                                                             |
 ----------------------------------------------------------------------------- 


 ----------------------------------------------------------------------------- 
|                                                                             |
|  ADVICE TO THIS USER RUNNING 'VASP/VAMP'   (HEAR YOUR MASTER'S VOICE ...):  |
|                                                                             |
|      You enforced a specific xc-type in the INCAR file,                     |
|      a different type was found on the POTCAR file                          |
|          I HOPE YOU KNOW, WHAT YOU ARE  DOING                               |
|                                                                             |
 ----------------------------------------------------------------------------- 

  PAW_PBE C 08Apr2002                   :
 energy of atom  1       EATOM= -147.1560
 kinetic energy error for atom=    0.0032 (will be added to EATOM!!)
  PAW_PBE N 08Apr2002                   :
 energy of atom  2       EATOM= -264.5486
 kinetic energy error for atom=    0.0061 (will be added to EATOM!!)
  PAW_PBE H 15Jun2001                   :
 energy of atom  3       EATOM=  -12.4884
 kinetic energy error for atom=    0.0002 (will be added to EATOM!!)
  PAW_PBE Pb_d 06Sep2000                :
 energy of atom  4       EATOM=-1661.6185
 kinetic energy error for atom=    0.0012 (will be added to EATOM!!)
  PAW_PBE I 08Apr2002                   :
 energy of atom  5       EATOM= -315.8678
 kinetic energy error for atom=    0.0003 (will be added to EATOM!!)
 
 
 POSCAR: C N H Pb I                              
  positions in direct lattice
  No initial velocities read in
 exchange correlation table for  LEXCH =       14
   RHO(1)=    0.500       N(1)  =     2000
   RHO(2)=  100.500       N(2)  =     4000
 


--------------------------------------------------------------------------------------------------------


 ion  position               nearest neighbor table
   1  0.199  0.250  0.228-  25 1.12  33 1.12  17 1.16   9 1.55
   2  0.695  0.250  0.230-  26 1.12  34 1.12  18 1.16  10 1.56
   3  0.195  0.750  0.230-  27 1.12  35 1.12  19 1.16  11 1.56
   4  0.699  0.750  0.228-  28 1.12  36 1.12  20 1.16  12 1.55
   5  0.195  0.250  0.730-  29 1.12  37 1.12  21 1.16  13 1.56
   6  0.699  0.250  0.728-  30 1.12  38 1.12  22 1.16  14 1.55
   7  0.199  0.750  0.728-  31 1.12  39 1.12  23 1.16  15 1.55
   8  0.695  0.750  0.730-  32 1.12  40 1.12  24 1.16  16 1.56
   9  0.322  0.250  0.239-  41 1.06  49 1.06  57 1.12   1 1.55
  10  0.787  0.250  0.309-  42 1.06  50 1.07  58 1.09   2 1.56
  11  0.287  0.750  0.309-  43 1.06  51 1.07  59 1.09   3 1.56
  12  0.822  0.750  0.239-  44 1.06  52 1.06  60 1.12   4 1.55
  13  0.287  0.250  0.809-  45 1.06  53 1.07  61 1.09   5 1.56
  14  0.822  0.250  0.739-  46 1.06  54 1.06  62 1.12   6 1.55
  15  0.322  0.750  0.739-  47 1.06  55 1.06  63 1.12   7 1.55
  16  0.787  0.750  0.809-  48 1.06  56 1.07  64 1.09   8 1.56
  17  0.179  0.250  0.140-   1 1.16
  18  0.732  0.250  0.146-   2 1.16
  19  0.232  0.750  0.146-   3 1.16
  20  0.679  0.750  0.140-   4 1.16
  21  0.232  0.250  0.646-   5 1.16
  22  0.679  0.250  0.640-   6 1.16
  23  0.179  0.750  0.640-   7 1.16
  24  0.732  0.750  0.646-   8 1.16
  25  0.164  0.322  0.268-   1 1.12
  26  0.645  0.323  0.243-   2 1.12
  27  0.145  0.823  0.243-   3 1.12
  28  0.664  0.822  0.268-   4 1.12
  29  0.145  0.323  0.743-   5 1.12
  30  0.664  0.322  0.768-   6 1.12
  31  0.164  0.822  0.768-   7 1.12
  32  0.645  0.823  0.743-   8 1.12
  33  0.164  0.177  0.268-   1 1.12
  34  0.645  0.177  0.244-   2 1.12
  35  0.145  0.677  0.244-   3 1.12
  36  0.664  0.677  0.268-   4 1.12
  37  0.145  0.177  0.744-   5 1.12
  38  0.664  0.177  0.768-   6 1.12
  39  0.164  0.677  0.768-   7 1.12
  40  0.645  0.677  0.744-   8 1.12
  41  0.358  0.318  0.203-   9 1.06
  42  0.838  0.318  0.299-  10 1.06
  43  0.338  0.818  0.299-  11 1.06
  44  0.858  0.818  0.203-  12 1.06
  45  0.338  0.318  0.799-  13 1.06
  46  0.858  0.318  0.703-  14 1.06
  47  0.358  0.818  0.703-  15 1.06
  48  0.838  0.818  0.799-  16 1.06
  49  0.359  0.182  0.203-   9 1.06
  50  0.838  0.182  0.299-  10 1.07
  51  0.338  0.682  0.299-  11 1.07
  52  0.859  0.682  0.203-  12 1.06
  53  0.338  0.182  0.799-  13 1.07
  54  0.859  0.182  0.703-  14 1.06
  55  0.359  0.682  0.703-  15 1.06
  56  0.838  0.682  0.799-  16 1.07
  57  0.350  0.250  0.321-   9 1.12
  58  0.757  0.250  0.390-  10 1.09
  59  0.257  0.750  0.390-  11 1.09
  60  0.850  0.750  0.321-  12 1.12
  61  0.257  0.250  0.890-  13 1.09
  62  0.850  0.250  0.821-  14 1.12
  63  0.350  0.750  0.821-  15 1.12
  64  0.757  0.750  0.890-  16 1.09
  65  0.472  0.495  0.489-  77 3.17  73 3.22  90 3.22  87 3.24  85 3.29  89 3.42
  66  0.972  0.505  0.489-  78 3.17  89 3.22  74 3.22  86 3.24  88 3.29  90 3.42
  67  0.472  0.005  0.489-  79 3.17  92 3.22  75 3.22  87 3.24  85 3.29  91 3.42
  68  0.972  0.995  0.489-  80 3.17  76 3.22  91 3.22  86 3.24  88 3.29  92 3.42
  69  0.472  0.505  0.989-  73 3.17  94 3.22  77 3.22  81 3.24  83 3.29  93 3.42
  70  0.972  0.495  0.989-  74 3.17  78 3.22  93 3.22  84 3.24  82 3.29  94 3.42
  71  0.472  0.995  0.989-  75 3.17  79 3.22  96 3.22  81 3.24  83 3.29  95 3.42
  72  0.972  0.005  0.989-  76 3.17  95 3.22  80 3.22  84 3.24  82 3.29  96 3.42
  73  0.455  0.509  0.238-  69 3.17  65 3.22
  74  0.955  0.491  0.238-  70 3.17  66 3.22
  75  0.455  0.991  0.238-  71 3.17  67 3.22
  76  0.955  0.009  0.238-  72 3.17  68 3.22
  77  0.455  0.491  0.738-  65 3.17  69 3.22
  78  0.955  0.509  0.738-  66 3.17  70 3.22
  79  0.455  0.009  0.738-  67 3.17  71 3.22
  80  0.955  0.991  0.738-  68 3.17  72 3.22
  81  0.520  0.250  0.009-  71 3.24  69 3.24
  82  0.879  0.250  0.015-  72 3.29  70 3.29
  83  0.379  0.750  0.015-  69 3.29  71 3.29
  84  0.020  0.750  0.009-  70 3.24  72 3.24
  85  0.379  0.250  0.515-  67 3.29  65 3.29
  86  0.020  0.250  0.509-  68 3.24  66 3.24
  87  0.520  0.750  0.509-  65 3.24  67 3.24
  88  0.879  0.750  0.515-  66 3.29  68 3.29
  89  0.216  0.581  0.461-  66 3.22  65 3.42
  90  0.716  0.419  0.461-  65 3.22  66 3.42
  91  0.216  0.919  0.461-  68 3.22  67 3.42
  92  0.716  0.081  0.461-  67 3.22  68 3.42
  93  0.216  0.419  0.961-  70 3.22  69 3.42
  94  0.716  0.581  0.961-  69 3.22  70 3.42
  95  0.216  0.081  0.961-  72 3.22  71 3.42
  96  0.716  0.919  0.961-  71 3.22  72 3.42
 
  LATTYP: Found a triclinic cell.
 ALAT       =    17.8238589327
 B/A-ratio  =     0.6989248630
 C/A-ratio  =     1.0156975818
 COS(alpha) =     0.0001355172
 COS(beta)  =     0.5146378593
 COS(gamma) =     0.6988877578
  
  Lattice vectors:
  
 A1 = (  -0.1406063366, -12.4576271275, -12.7466742118)
 A2 = (  -0.0011956322, -12.4575380825,   0.0007464135)
 A3 = ( -12.7162481321,  -0.0020049566, -12.8856194186)


Analysis of symmetry for initial positions (statically):
=====================================================================
 Subroutine PRICEL returns following result:
 
  LATTYP: Found a triclinic cell.
 ALAT       =     8.8524544993
 B/A-ratio  =     1.4072411401
 C/A-ratio  =     1.0225215175
 COS(alpha) =     0.0001355172
 COS(beta)  =     0.5046167836
 COS(gamma) =     0.7037964938
  
  Lattice vectors:
  
 A1 = (   6.2890165300,   6.2297269971,   0.0687261899)
 A2 = (   0.0011956322,  12.4575380825,  -0.0007464135)
 A3 = (   6.3581240661,   0.0010024783,   6.4428097093)
 
   4 primitive cells build up your supercell.
 

 Routine SETGRP: Setting up the symmetry group for a 
 triclinic supercell.


 Subroutine GETGRP returns: Found  1 space group operations
 (whereof  1 operations were pure point group operations)
 out of a pool of  2 trial point group operations.


The static configuration has the point symmetry C_1 .


Analysis of symmetry for dynamics (positions and initial velocities):
=====================================================================
 Subroutine PRICEL returns following result:
 
  LATTYP: Found a triclinic cell.
 ALAT       =     8.8524544993
 B/A-ratio  =     1.4072411401
 C/A-ratio  =     1.0225215175
 COS(alpha) =     0.0001355172
 COS(beta)  =     0.5046167836
 COS(gamma) =     0.7037964938
  
  Lattice vectors:
  
 A1 = (   6.2890165300,   6.2297269971,   0.0687261899)
 A2 = (   0.0011956322,  12.4575380825,  -0.0007464135)
 A3 = (   6.3581240661,   0.0010024783,   6.4428097093)
 
   4 primitive cells build up your supercell.
 

 Routine SETGRP: Setting up the symmetry group for a 
 triclinic supercell.


 Subroutine GETGRP returns: Found  1 space group operations
 (whereof  1 operations were pure point group operations)
 out of a pool of  2 trial point group operations.


The dynamic configuration has the point symmetry C_1 .


 Subroutine INISYM returns: Found  1 space group operations
 (whereof  1 operations are pure point group operations),
 and found     4 'primitive' translations

 
 
 KPOINTS: Automatic 3x3x3                         

Automatic generation of k-mesh.
Space group operators:
 irot       det(A)        alpha          n_x          n_y          n_z        tau_x        tau_y        tau_z
    1     1.000000     0.000000     1.000000     0.000000     0.000000     0.000000     0.000000     0.000000
 
 Subroutine IBZKPT returns following result:
 ===========================================
 
 Found     14 irreducible k-points:
 
 Following reciprocal coordinates:
            Coordinates               Weight
  0.000000  0.000000  0.000000      1.000000
  0.333333 -0.000000 -0.000000      2.000000
  0.000000  0.333333 -0.000000      2.000000
  0.333333  0.333333  0.000000      2.000000
 -0.333333  0.333333  0.000000      2.000000
  0.000000  0.000000  0.333333      2.000000
  0.333333  0.000000  0.333333      2.000000
 -0.333333  0.000000  0.333333      2.000000
  0.000000  0.333333  0.333333      2.000000
  0.333333  0.333333  0.333333      2.000000
 -0.333333  0.333333  0.333333      2.000000
  0.000000 -0.333333  0.333333      2.000000
  0.333333 -0.333333  0.333333      2.000000
 -0.333333 -0.333333  0.333333      2.000000
 
 Following cartesian coordinates:
            Coordinates               Weight
  0.000000  0.000000  0.000000      1.000000
  0.026507 -0.000003 -0.000290      2.000000
 -0.000004  0.026758 -0.000000      2.000000
  0.026503  0.026755 -0.000290      2.000000
 -0.026511  0.026760  0.000290      2.000000
 -0.000287  0.000002  0.026152      2.000000
  0.026220 -0.000001  0.025862      2.000000
 -0.026794  0.000004  0.026442      2.000000
 -0.000291  0.026759  0.026152      2.000000
  0.026215  0.026757  0.025862      2.000000
 -0.026798  0.026762  0.026442      2.000000
 -0.000283 -0.026756  0.026152      2.000000
  0.026224 -0.026759  0.025862      2.000000
 -0.026790 -0.026753  0.026442      2.000000
 


--------------------------------------------------------------------------------------------------------




 Dimension of arrays:
   k-points           NKPTS =     14   k-points in BZ     NKDIM =     14   number of bands    NBANDS=    256
   number of dos      NEDOS =    301   number of ions     NIONS =     96
   non local maximal  LDIM  =      6   non local SUM 2l+1 LMDIM =     18
   total plane-waves  NPLWV = ******
   max r-space proj   IRMAX =      1   max aug-charges    IRDMAX= 314103
   dimension x,y,z NGX =   112 NGY =  108 NGZ =  112
   dimension x,y,z NGXF=   224 NGYF=  216 NGZF=  224
   support grid    NGXF=   448 NGYF=  432 NGZF=  448
   ions per type =               8   8  48   8  24
 NGX,Y,Z   is equivalent  to a cutoff of  14.80, 14.41, 14.61 a.u.
 NGXF,Y,Z  is equivalent  to a cutoff of  29.61, 28.83, 29.21 a.u.


 I would recommend the setting:
   dimension x,y,z NGX =   109 NGY =  107 NGZ =  110
 SYSTEM =  MAPbI3-Cubic                            
 POSCAR =  C N H Pb I                              

 Startparameter for this run:
   NWRITE =      2    write-flag & timer
   PREC   = accura    normal or accurate (medium, high low for compatibility)
   ISTART =      0    job   : 0-new  1-cont  2-samecut
   ICHARG =      2    charge: 1-file 2-atom 10-const
   ISPIN  =      1    spin polarized calculation?
   LNONCOLLINEAR =      F non collinear calculations
   LSORBIT =      F    spin-orbit coupling
   INIWAV =      1    electr: 0-lowe 1-rand  2-diag
   LASPH  =      F    aspherical Exc in radial PAW
   METAGGA=      F    non-selfconsistent MetaGGA calc.

 Electronic Relaxation 1
   ENCUT  =  700.0 eV  51.45 Ry    7.17 a.u.  27.13 26.87 27.50*2*pi/ulx,y,z
   ENINI  =  700.0     initial cutoff
   ENAUG  =  644.9 eV  augmentation charge cutoff
   NELM   =     60;   NELMIN=  2; NELMDL= -5     # of ELM steps 
   EDIFF  = 0.1E-09   stopping-criterion for ELM
   LREAL  =      F    real-space projection
   NLSPLINE    = F    spline interpolate recip. space projectors
   LCOMPAT=      F    compatible to vasp.4.4
   GGA_COMPAT  = T    GGA compatible to vasp.4.4-vasp.4.6
   LMAXPAW     = -100 max onsite density
   LMAXMIX     =    2 max onsite mixed and CHGCAR
   VOSKOWN=      0    Vosko Wilk Nusair interpolation
   ROPT   =    0.00000   0.00000   0.00000   0.00000
   ROPT   =    0.00000
 Ionic relaxation
   EDIFFG = 0.1E-08   stopping-criterion for IOM
   NSW    =      0    number of steps for IOM
   NBLOCK =      1;   KBLOCK =      1    inner block; outer block 
   IBRION =     -1    ionic relax: 0-MD 1-quasi-New 2-CG
   NFREE  =      0    steps in history (QN), initial steepest desc. (CG)
   ISIF   =      2    stress and relaxation
   IWAVPR =     10    prediction:  0-non 1-charg 2-wave 3-comb
   ISYM   =      2    0-nonsym 1-usesym 2-fastsym
   LCORR  =      T    Harris-Foulkes like correction to forces

   POTIM  = 0.5000    time-step for ionic-motion
   TEIN   =    0.0    initial temperature
   TEBEG  =    0.0;   TEEND  =   0.0 temperature during run
   SMASS  =  -3.00    Nose mass-parameter (am)
   estimated Nose-frequenzy (Omega)   =  0.10E-29 period in steps =****** mass=  -0.362E-26a.u.
   SCALEE = 1.0000    scale energy and forces
   NPACO  =    256;   APACO  = 16.0  distance and # of slots for P.C.
   PSTRESS=    0.0 pullay stress

  Mass of Ions in am
   POMASS =  12.01 14.00  1.00207.20126.90
  Ionic Valenz
   ZVAL   =   4.00  5.00  1.00 14.00  7.00
  Atomic Wigner-Seitz radii
   RWIGS  =  -1.00 -1.00 -1.00 -1.00 -1.00
  virtual crystal weights 
   VCA    =   1.00  1.00  1.00  1.00  1.00
   NELECT =     400.0000    total number of electrons
   NUPDOWN=      -1.0000    fix difference up-down

 DOS related values:
   EMIN   =  10.00;   EMAX   =-10.00  energy-range for DOS
   EFERMI =   0.00
   ISMEAR =     0;   SIGMA  =   0.00  broadening in eV -4-tet -1-fermi 0-gaus

 Electronic relaxation 2 (details)
   IALGO  =     38    algorithm
   LDIAG  =      T    sub-space diagonalisation (order eigenvalues)
   LSUBROT=      F    optimize rotation matrix (better conditioning)
   TURBO    =      0    0=normal 1=particle mesh
   IRESTART =      0    0=no restart 2=restart with 2 vectors
   NREBOOT  =      0    no. of reboots
   NMIN     =      0    reboot dimension
   EREF     =   0.00    reference energy to select bands
   IMIX   =      4    mixing-type and parameters
     AMIX     =   0.40;   BMIX     =  1.00
     AMIX_MAG =   1.60;   BMIX_MAG =  1.00
     AMIN     =   0.10
     WC   =   100.;   INIMIX=   1;  MIXPRE=   1;  MAXMIX= -45

 Intra band minimization:
   WEIMIN = 0.0000     energy-eigenvalue tresh-hold
   EBREAK =  0.98E-13  absolut break condition
   DEPER  =   0.30     relativ break condition  

   TIME   =   0.40     timestep for ELM

  volume/ion in A,a.u.               =      20.80       140.38
  Fermi-wavevector in a.u.,A,eV,Ry     =   0.957863  1.810099 12.483376  0.917502
  Thomas-Fermi vector in A             =   2.086919
 
 Write flags
   LWAVE  =      F    write WAVECAR
   LCHARG =      F    write CHGCAR
   LVTOT  =      F    write LOCPOT, total local potential
   LVHAR  =      F    write LOCPOT, Hartree potential only
   LELF   =      F    write electronic localiz. function (ELF)
   LORBIT =      0    0 simple, 1 ext, 2 COOP (PROOUT)


 Dipole corrections
   LMONO  =      F    monopole corrections only (constant potential shift)
   LDIPOL =      F    correct potential (dipole corrections)
   IDIPOL =      0    1-x, 2-y, 3-z, 4-all directions 
   EPSILON=  1.0000000 bulk dielectric constant

 Core level calculations are selected ICORELEVEL =  1
 Exchange correlation treatment:
   GGA     =    PS    GGA type
   LEXCH   =    14    internal setting for exchange type
   VOSKOWN=      0    Vosko Wilk Nusair interpolation
   LHFCALC =     F    Hartree Fock is set to
   LHFONE  =     F    Hartree Fock one center treatment
   AEXX    =    0.0000 exact exchange contribution

 Linear response parameters
   LEPSILON=     F    determine dielectric tensor
   LRPA    =     F    only Hartree local field effects (RPA)
   LNABLA  =     F    use nabla operator in PAW spheres
   LVEL    =     F    velocity operator in full k-point grid
   LINTERFAST=   F  fast interpolation
   KINTER  =     0    interpolate to denser k-point grid
   CSHIFT  =0.1000    complex shift for real part using Kramers Kronig
   OMEGAMAX=  -1.0    maximum frequency
   DEG_THRESHOLD= 0.2000000E-02 threshold for treating states as degnerate
   RTIME   =    0.100 relaxation time in fs

 Orbital magnetization related:
   ORBITALMAG=     F  switch on orbital magnetization
   LCHIMAG   =     F  perturbation theory with respect to B field
   DQ        =  0.001000  dq finite difference perturbation B field



--------------------------------------------------------------------------------------------------------


 Static calculation
 charge density and potential will be updated during run
 non-spin polarized calculation
 Variant of blocked Davidson
 Davidson routine will perform the subspace rotation
 perform sub-space diagonalisation
    after iterative eigenvector-optimisation
 modified Broyden-mixing scheme, WC =      100.0
 initial mixing is a Kerker type mixing with AMIX =  0.4000 and BMIX =      1.0000
 Hartree-type preconditioning will be used
 using additional bands           56
 reciprocal scheme for non local part
 use partial core corrections
 calculate Harris-corrections to forces 
   (improved forces if not selfconsistent)
 use gradient corrections 
 use of overlap-Matrix (Vanderbilt PP)
 Gauss-broadening in eV      SIGMA  =   0.00


--------------------------------------------------------------------------------------------------------


  energy-cutoff  :      700.00
  volume of cell :     1996.98
      direct lattice vectors                 reciprocal lattice vectors
    12.576837428  0.001915912  0.138198793     0.079520802 -0.000007684 -0.000869670
     0.001195632 12.457538083 -0.000746413    -0.000012224  0.080272684 -0.000000427
     0.139410704  0.000089045 12.747420625    -0.000862111  0.000004784  0.078456671

  length of vectors
    12.577596840 12.457538162 12.748182927     0.079525558  0.080272685  0.078461408


 
 k-points in units of 2pi/SCALE and weight: Automatic 3x3x3                         
   0.00000000  0.00000000  0.00000000       0.037
   0.02650693 -0.00000256 -0.00028989       0.074
  -0.00000407  0.02675756 -0.00000014       0.074
   0.02650286  0.02675500 -0.00029003       0.074
  -0.02651101  0.02676012  0.00028975       0.074
  -0.00028737  0.00000159  0.02615222       0.074
   0.02621956 -0.00000097  0.02586233       0.074
  -0.02679430  0.00000416  0.02644211       0.074
  -0.00029144  0.02675916  0.02615208       0.074
   0.02621549  0.02675659  0.02586219       0.074
  -0.02679838  0.02676172  0.02644197       0.074
  -0.00028330 -0.02675597  0.02615237       0.074
   0.02622364 -0.02675853  0.02586248       0.074
  -0.02679023 -0.02675341  0.02644226       0.074
 
 k-points in reciprocal lattice and weights: Automatic 3x3x3                         
   0.00000000  0.00000000  0.00000000       0.037
   0.33333333 -0.00000000 -0.00000000       0.074
   0.00000000  0.33333333 -0.00000000       0.074
   0.33333333  0.33333333  0.00000000       0.074
  -0.33333333  0.33333333  0.00000000       0.074
   0.00000000  0.00000000  0.33333333       0.074
   0.33333333  0.00000000  0.33333333       0.074
  -0.33333333  0.00000000  0.33333333       0.074
   0.00000000  0.33333333  0.33333333       0.074
   0.33333333  0.33333333  0.33333333       0.074
  -0.33333333  0.33333333  0.33333333       0.074
   0.00000000 -0.33333333  0.33333333       0.074
   0.33333333 -0.33333333  0.33333333       0.074
  -0.33333333 -0.33333333  0.33333333       0.074
 
 position of ions in fractional coordinates (direct lattice) 
   0.19884669  0.24976236  0.22807802
   0.69514157  0.25005419  0.22975269
   0.19514157  0.75005419  0.22975269
   0.69884669  0.74976236  0.22807802
   0.19514157  0.25005419  0.72975269
   0.69884669  0.24976236  0.72807802
   0.19884669  0.74976236  0.72807802
   0.69514157  0.75005419  0.72975269
   0.32166629  0.24990991  0.23869643
   0.78740815  0.25009737  0.30907216
   0.28740815  0.75009737  0.30907216
   0.82166629  0.74990991  0.23869643
   0.28740815  0.25009737  0.80907216
   0.82166629  0.24990991  0.73869643
   0.32166629  0.74990991  0.73869643
   0.78740815  0.75009737  0.80907216
   0.17850251  0.24967592  0.14003069
   0.73164782  0.24996628  0.14574656
   0.23164782  0.74996628  0.14574656
   0.67850251  0.74967592  0.14003069
   0.23164782  0.24996628  0.64574656
   0.67850251  0.24967592  0.64003069
   0.17850251  0.74967592  0.64003069
   0.73164782  0.74996628  0.64574656
   0.16402910  0.32199632  0.26760476
   0.64464651  0.32270805  0.24342588
   0.14464651  0.82270805  0.24342588
   0.66402910  0.82199632  0.26760476
   0.14464651  0.32270805  0.74342588
   0.66402910  0.32199632  0.76760476
   0.16402910  0.82199632  0.76760476
   0.64464651  0.82270805  0.74342588
   0.16425713  0.17749089  0.26771088
   0.64462854  0.17746125  0.24359054
   0.14462854  0.67746125  0.24359054
   0.66425713  0.67749089  0.26771088
   0.14462854  0.17746125  0.74359054
   0.66425713  0.17749089  0.76771088
   0.16425713  0.67749089  0.76771088
   0.64462854  0.67746125  0.74359054
   0.35848300  0.31759784  0.20272063
   0.83778616  0.31815073  0.29879235
   0.33778616  0.81815073  0.29879235
   0.85848300  0.81759784  0.20272063
   0.33778616  0.31815073  0.79879235
   0.85848300  0.31759784  0.70272063
   0.35848300  0.81759784  0.70272063
   0.83778616  0.81815073  0.79879235
   0.35870028  0.18229663  0.20272639
   0.83771032  0.18191314  0.29905541
   0.33771032  0.68191314  0.29905541
   0.85870028  0.68229663  0.20272639
   0.33771032  0.18191314  0.79905541
   0.85870028  0.18229663  0.70272639
   0.35870028  0.68229663  0.70272639
   0.83771032  0.68191314  0.79905541
   0.34952089  0.24990055  0.32149199
   0.75681926  0.25028649  0.38972650
   0.25681926  0.75028649  0.38972650
   0.84952089  0.74990055  0.32149199
   0.25681926  0.25028649  0.88972650
   0.84952089  0.24990055  0.82149199
   0.34952089  0.74990055  0.82149199
   0.75681926  0.75028649  0.88972650
   0.47243289  0.49541241  0.48879927
   0.97245066  0.50456718  0.48882362
   0.47245066  0.00456718  0.48882362
   0.97243289  0.99541241  0.48879927
   0.47245066  0.50456718  0.98882362
   0.97243289  0.49541241  0.98879927
   0.47243289  0.99541241  0.98879927
   0.97245066  0.00456718  0.98882362
   0.45463680  0.50946649  0.23757816
   0.95485055  0.49051561  0.23756733
   0.45485055  0.99051561  0.23756733
   0.95463680  0.00946649  0.23757816
   0.45485055  0.49051561  0.73756733
   0.95463680  0.50946649  0.73757816
   0.45463680  0.00946649  0.73757816
   0.95485055  0.99051561  0.73756733
   0.51989175  0.24996213  0.00869345
   0.87937913  0.24999589  0.01497099
   0.37937913  0.74999589  0.01497099
   0.01989175  0.74996213  0.00869345
   0.37937913  0.24999589  0.51497099
   0.01989175  0.24996213  0.50869345
   0.51989175  0.74996213  0.50869345
   0.87937913  0.74999589  0.51497099
   0.21615403  0.58058888  0.46132384
   0.71618885  0.41940600  0.46115556
   0.21618885  0.91940600  0.46115556
   0.71615403  0.08058888  0.46132384
   0.21618885  0.41940600  0.96115556
   0.71615403  0.58058888  0.96132384
   0.21615403  0.08058888  0.96132384
   0.71618885  0.91940600  0.96115556
 
 position of ions in cartesian coordinates  (Angst):
   2.53295768  3.11182540  2.93470036
   8.77501149  3.11641188  3.02463529
   2.48719059  9.34422297  2.95516269
   8.82197421  9.34155239  3.00342655
   2.55629812  3.11549845  9.32924621
   8.89108175  3.11282788  9.37751007
   2.60326085  9.34063896  9.30803746
   8.84531465  9.34522545  9.39797240
   4.07912022  3.11389971  3.08703117
   9.94649131  3.11713370  4.04850503
   3.65867041  9.34494478  3.97903242
  10.36813675  9.34362671  3.15575736
   3.72777794  3.11622026 10.35311594
  10.43724429  3.11490219  9.52984088
   4.14942339  9.34271328  9.46036828
  10.01679447  9.34594726 10.42184213
   2.26481735  3.11070168  1.80951256
   9.22243323  3.11537917  1.95881901
   2.93461234  9.34319026  1.88934641
   8.55383388  9.34042868  1.87823875
   3.00371987  3.11446574  8.26342993
   8.62294142  3.11170416  8.25232227
   2.33512052  9.33951525  8.18284966
   9.29273640  9.34419274  8.33215612
   2.10065928  4.01161956  3.43369866
   8.14193642  4.02140458  3.19190062
   1.85411552 10.24921566  3.12242802
   8.38967581 10.24134656  3.50242485
   1.92322305  4.02049114  9.49651154
   8.45878334  4.01262204  9.87650837
   2.17096244 10.24043313  9.80703577
   8.21223958 10.25021814  9.56523773
   2.10336920  2.21143809  3.43519083
   8.14155962  2.21198708  3.19410544
   1.85373872  8.43979816  3.12463283
   8.39238573  8.44116509  3.50391702
   1.92284626  2.21107364  9.49871635
   8.46149327  2.21244057  9.87800054
   2.17367237  8.44025166  9.80852793
   8.21186279  8.44080064  9.56744254
   4.53722355  3.95719207  2.63346999
  10.57873553  3.96500650  3.92437537
   4.29091463 10.19281759  3.85490276
  10.82624008 10.18691907  2.70219618
   4.36002216  3.96409307 10.22898628
  10.89534762  3.95819455  9.07627969
   4.60752672 10.18600563  9.00680709
  10.64903870 10.19382007 10.29771247
   4.53979529  2.27167252  2.63367450
  10.57765554  2.26782152  3.92781982
   4.28983464  8.49563261  3.85834721
  10.82881182  8.50139951  2.70240069
   4.35894218  2.26690809 10.23243073
  10.89791936  2.27267499  9.07648421
   4.61009846  8.50048608  9.00701160
  10.64795871  8.49663509 10.30115692
   4.44098562  3.11384388  4.14631048
   9.57302405  3.11943824  5.07241229
   3.28520315  9.34724932  5.00293969
  10.73000215  9.34357088  4.21503667
   3.35431069  3.11852480 11.37702320
  10.79910968  3.11484636 10.58912019
   4.51128878  9.34265745 10.51964758
   9.64332722  9.34825180 11.44574939
   6.01044780  6.17256768  6.29584980
  12.29910444  6.28757146  6.36525521
   6.01008791  0.05784446  6.29652902
  12.29946433 12.40229468  6.36457599
   6.08039108  6.28665803 12.66986612
  12.36857186  6.17357016 12.73865951
   6.08075097 12.40138125 12.66918691
  12.36821198  0.05884694 12.73933873
   5.75162324  6.34759035  3.09095868
  12.04270598  6.11246750  3.15996371
   5.75488508 12.34027858  3.09049110
  12.03944414  0.11977926  3.16043129
   5.82399262  6.11155406  9.46457462
  12.10974731  6.34859282  9.53376839
   5.82073078  0.11886583  9.46504220
  12.11300915 12.34128106  9.53330081
   6.54010486  3.11490965  0.18248091
  11.06219435  3.11601943  0.31218398
   4.77437345  9.34383051  0.24271137
   0.25228396  9.34272073  0.11300830
   4.84348098  3.11510599  6.61679489
   0.32139150  3.11399621  6.48709182
   6.61040803  9.34372321  6.55581801
  11.13249751  9.34483299  6.68552108
   2.78354171  7.23316323  5.91012793
   9.07218220  5.22617940  5.97720730
   2.78436131 11.45399049  5.90773470
   9.07136261  1.00535215  5.97960053
   2.85346884  5.22526597 12.28181822
   9.14166578  7.23416571 12.35293764
   2.85264925  1.00443871 12.28421145
   9.14248537 11.45499297 12.35054441
 


--------------------------------------------------------------------------------------------------------


 k-point  1 :   0.0000 0.0000 0.0000  plane waves:   84007
 k-point  2 :   0.3333-0.0000-0.0000  plane waves:   84003
 k-point  3 :   0.0000 0.3333-0.0000  plane waves:   83995
 k-point  4 :   0.3333 0.3333 0.0000  plane waves:   84018
 k-point  5 :  -0.3333 0.3333 0.0000  plane waves:   84019
 k-point  6 :   0.0000 0.0000 0.3333  plane waves:   83960
 k-point  7 :   0.3333 0.0000 0.3333  plane waves:   83937
 k-point  8 :  -0.3333 0.0000 0.3333  plane waves:   83982
 k-point  9 :   0.0000 0.3333 0.3333  plane waves:   83984
 k-point 10 :   0.3333 0.3333 0.3333  plane waves:   84012
 k-point 11 :  -0.3333 0.3333 0.3333  plane waves:   83970
 k-point 12 :   0.0000-0.3333 0.3333  plane waves:   83977
 k-point 13 :   0.3333-0.3333 0.3333  plane waves:   84013
 k-point 14 :  -0.3333-0.3333 0.3333  plane waves:   83973

 maximum and minimum number of plane-waves per node :     28039    27934

 maximum number of plane-waves:     84019
 maximum index in each direction: 
   IXMAX=   27   IYMAX=   27   IZMAX=   27
   IXMIN=  -27   IYMIN=  -27   IZMIN=  -27

 NGX is ok and might be reduce to 110
 WARNING: aliasing errors must be expected set NGY to 110 to avoid them
 NGZ is ok and might be reduce to 110
 aliasing errors are usually negligible using standard VASP settings
 and one can safely disregard these warnings

 parallel 3D FFT for wavefunctions:
    minimum data exchange during FFTs selected (reduces bandwidth)
 parallel 3D FFT for charge:
    minimum data exchange during FFTs selected (reduces bandwidth)


 total amount of memory used by VASP on root node   697522. kBytes
========================================================================

   base      :      30000. kBytes
   nonl-proj :     325712. kBytes
   fftplans  :      80881. kBytes
   grid      :      57435. kBytes
   one-center:        497. kBytes
   wavefun   :     202997. kBytes
 
     INWAV:  cpu time    0.0000: real time    0.0000
 Broyden mixing: mesh for mixing (old mesh)
   NGX = 55   NGY = 53   NGZ = 55
  (NGX  =224   NGY  =216   NGZ  =224)
  gives a total of 160325 points

 initial charge density was supplied:
 charge density of overlapping atoms calculated
 number of electron     400.0000000 magnetization 
 keeping initial charge density in first step


--------------------------------------------------------------------------------------------------------


 Maximum index for augmentation-charges        14210 (set IRDMAX)


--------------------------------------------------------------------------------------------------------


 First call to EWALD:  gamma=   0.141
 Maximum number of real-space cells 3x 3x 3
 Maximum number of reciprocal cells 3x 3x 3

 FEWALD executed in parallel
    FEWALD:  cpu time    0.0240: real time    0.0214


----------------------------------------- Iteration    1(   1)  ---------------------------------------


    POTLOK:  cpu time    0.4440: real time    0.4421
    SETDIJ:  cpu time    0.7800: real time    0.7825
     EDDAV:  cpu time   72.3165: real time   72.3600
       DOS:  cpu time    0.0000: real time    0.0016
    --------------------------------------------
      LOOP:  cpu time   73.5406: real time   73.6079

 eigenvalue-minimisations  :  7176
 total energy-change (2. order) : 0.3568925E+04  (-0.1890973E+05)
 number of electron     400.0000000 magnetization 
 augmentation part      400.0000000 magnetization 

 Free energy of the ion-electron system (eV)
  ---------------------------------------------------
  alpha Z        PSCENC =       370.05370877
  Ewald energy   TEWEN  =    -15756.92922692
  -Hartree energ DENC   =     -7959.40314058
  -exchange      EXHF   =         0.00000000
  -V(xc)+E(xc)   XCENC  =       386.82304454
  PAW double counting   =     20601.23165652   -19855.90553853
  entropy T*S    EENTRO =        -0.00004187
  eigenvalues    EBANDS =      1034.04775188
  atomic energy  EATOM  =     24749.00668030
  Solvation  Ediel_sol  =         0.00000000
  ---------------------------------------------------
  free energy    TOTEN  =      3568.92489411 eV

  energy without entropy =     3568.92493598  energy(sigma->0) =     3568.92491505


--------------------------------------------------------------------------------------------------------




----------------------------------------- Iteration    1(   2)  ---------------------------------------


     EDDAV:  cpu time   78.5449: real time   78.5977
       DOS:  cpu time    0.0040: real time    0.0015
    --------------------------------------------
      LOOP:  cpu time   78.5529: real time   78.6274

 eigenvalue-minimisations  :  8056
 total energy-change (2. order) :-0.3367383E+04  (-0.3152040E+04)
 number of electron     400.0000000 magnetization 
 augmentation part      400.0000000 magnetization 

 Free energy of the ion-electron system (eV)
  ---------------------------------------------------
  alpha Z        PSCENC =       370.05370877
  Ewald energy   TEWEN  =    -15756.92922692
  -Hartree energ DENC   =     -7959.40314058
  -exchange      EXHF   =         0.00000000
  -V(xc)+E(xc)   XCENC  =       386.82304454
  PAW double counting   =     20601.23165652   -19855.90553853
  entropy T*S    EENTRO =        -0.00004179
  eigenvalues    EBANDS =     -2333.33478641
  atomic energy  EATOM  =     24749.00668030
  Solvation  Ediel_sol  =         0.00000000
  ---------------------------------------------------
  free energy    TOTEN  =       201.54235590 eV

  energy without entropy =      201.54239769  energy(sigma->0) =      201.54237680


--------------------------------------------------------------------------------------------------------




----------------------------------------- Iteration    1(   3)  ---------------------------------------


     EDDAV:  cpu time   89.8136: real time   89.8706
       DOS:  cpu time    0.0040: real time    0.0035
    --------------------------------------------
      LOOP:  cpu time   89.8216: real time   89.8983

 eigenvalue-minimisations  :  9472
 total energy-change (2. order) :-0.5933044E+03  (-0.5838875E+03)
 number of electron     400.0000000 magnetization 
 augmentation part      400.0000000 magnetization 

 Free energy of the ion-electron system (eV)
  ---------------------------------------------------
  alpha Z        PSCENC =       370.05370877
  Ewald energy   TEWEN  =    -15756.92922692
  -Hartree energ DENC   =     -7959.40314058
  -exchange      EXHF   =         0.00000000
  -V(xc)+E(xc)   XCENC  =       386.82304454
  PAW double counting   =     20601.23165652   -19855.90553853
  entropy T*S    EENTRO =         0.00000000
  eigenvalues    EBANDS =     -2926.63926550
  atomic energy  EATOM  =     24749.00668030
  Solvation  Ediel_sol  =         0.00000000
  ---------------------------------------------------
  free energy    TOTEN  =      -391.76208140 eV

  energy without entropy =     -391.76208140  energy(sigma->0) =     -391.76208140


--------------------------------------------------------------------------------------------------------




----------------------------------------- Iteration    1(   4)  ---------------------------------------


     EDDAV:  cpu time   91.4977: real time   91.5513
       DOS:  cpu time    0.0000: real time    0.0010
    --------------------------------------------
      LOOP:  cpu time   91.4977: real time   91.5971

 eigenvalue-minimisations  :  9688
 total energy-change (2. order) :-0.4059247E+02  (-0.4040902E+02)
 number of electron     400.0000000 magnetization 
 augmentation part      400.0000000 magnetization 

 Free energy of the ion-electron system (eV)
  ---------------------------------------------------
  alpha Z        PSCENC =       370.05370877
  Ewald energy   TEWEN  =    -15756.92922692
  -Hartree energ DENC   =     -7959.40314058
  -exchange      EXHF   =         0.00000000
  -V(xc)+E(xc)   XCENC  =       386.82304454
  PAW double counting   =     20601.23165652   -19855.90553853
  entropy T*S    EENTRO =        -0.00000000
  eigenvalues    EBANDS =     -2967.23173243
  atomic energy  EATOM  =     24749.00668030
  Solvation  Ediel_sol  =         0.00000000
  ---------------------------------------------------
  free energy    TOTEN  =      -432.35454834 eV

  energy without entropy =     -432.35454834  energy(sigma->0) =     -432.35454834


--------------------------------------------------------------------------------------------------------




----------------------------------------- Iteration    1(   5)  ---------------------------------------


     EDDAV:  cpu time   92.0778: real time   92.1350
       DOS:  cpu time    0.0000: real time    0.0008
    CHARGE:  cpu time    3.3482: real time    3.3497
    MIXING:  cpu time    0.0120: real time    0.0131
    --------------------------------------------
      LOOP:  cpu time   95.4420: real time   95.8206

 eigenvalue-minimisations  :  9776
 total energy-change (2. order) :-0.1479397E+01  (-0.1475960E+01)
 number of electron     400.0000000 magnetization 
 augmentation part        7.4921166 magnetization 

 Broyden mixing:
  rms(total) = 0.27810E+01    rms(broyden)= 0.27810E+01
  rms(prec ) = 0.33313E+01
  weight for this iteration     100.00

 Free energy of the ion-electron system (eV)
  ---------------------------------------------------
  alpha Z        PSCENC =       370.05370877
  Ewald energy   TEWEN  =    -15756.92922692
  -Hartree energ DENC   =     -7959.40314058
  -exchange      EXHF   =         0.00000000
  -V(xc)+E(xc)   XCENC  =       386.82304454
  PAW double counting   =     20601.23165652   -19855.90553853
  entropy T*S    EENTRO =         0.00000000
  eigenvalues    EBANDS =     -2968.71112927
  atomic energy  EATOM  =     24749.00668030
  Solvation  Ediel_sol  =         0.00000000
  ---------------------------------------------------
  free energy    TOTEN  =      -433.83394517 eV

  energy without entropy =     -433.83394517  energy(sigma->0) =     -433.83394517


--------------------------------------------------------------------------------------------------------




----------------------------------------- Iteration    1(   6)  ---------------------------------------


    POTLOK:  cpu time    0.4400: real time    0.4368
    SETDIJ:  cpu time    0.8000: real time    0.8026
     EDDAV:  cpu time   94.1859: real time   94.2430
       DOS:  cpu time    0.0000: real time    0.0010
    CHARGE:  cpu time    3.3522: real time    3.3520
    MIXING:  cpu time    0.0120: real time    0.0132
    --------------------------------------------
      LOOP:  cpu time   98.7902: real time   98.8731

 eigenvalue-minimisations  : 10008
 total energy-change (2. order) : 0.1919878E+02  (-0.3716779E+01)
 number of electron     400.0000000 magnetization 
 augmentation part        7.8796814 magnetization 

 Broyden mixing:
  rms(total) = 0.14800E+01    rms(broyden)= 0.14800E+01
  rms(prec ) = 0.16618E+01
  weight for this iteration     100.00

 eigenvalues of (default mixing * dielectric matrix)
  average eigenvalue GAMMA=   1.5255
  1.5255

 Free energy of the ion-electron system (eV)
  ---------------------------------------------------
  alpha Z        PSCENC =       370.05370877
  Ewald energy   TEWEN  =    -15756.92922692
  -Hartree energ DENC   =     -8112.85804387
  -exchange      EXHF   =         0.00000000
  -V(xc)+E(xc)   XCENC  =       400.06796672
  PAW double counting   =     22740.08648679   -21990.71888350
  entropy T*S    EENTRO =        -0.00000000
  eigenvalues    EBANDS =     -2813.34385102
  atomic energy  EATOM  =     24749.00668030
  Solvation  Ediel_sol  =         0.00000000
  ---------------------------------------------------
  free energy    TOTEN  =      -414.63516274 eV

  energy without entropy =     -414.63516274  energy(sigma->0) =     -414.63516274


--------------------------------------------------------------------------------------------------------




----------------------------------------- Iteration    1(   7)  ---------------------------------------


    POTLOK:  cpu time    0.4400: real time    0.4383
    SETDIJ:  cpu time    0.7760: real time    0.7756
     EDDAV:  cpu time   91.8497: real time   91.9085
       DOS:  cpu time    0.0040: real time    0.0014
    CHARGE:  cpu time    3.3522: real time    3.3537
    MIXING:  cpu time    0.0120: real time    0.0134
    --------------------------------------------
      LOOP:  cpu time   96.4340: real time   96.5395

 eigenvalue-minimisations  :  9880
 total energy-change (2. order) : 0.2205492E+01  (-0.1672120E+01)
 number of electron     400.0000000 magnetization 
 augmentation part        7.9545967 magnetization 

 Broyden mixing:
  rms(total) = 0.75451E+00    rms(broyden)= 0.75449E+00
  rms(prec ) = 0.80856E+00
  weight for this iteration     100.00

 eigenvalues of (default mixing * dielectric matrix)
  average eigenvalue GAMMA=   1.7750
  1.4513  2.0986

 Free energy of the ion-electron system (eV)
  ---------------------------------------------------
  alpha Z        PSCENC =       370.05370877
  Ewald energy   TEWEN  =    -15756.92922692
  -Hartree energ DENC   =     -8189.12114579
  -exchange      EXHF   =         0.00000000
  -V(xc)+E(xc)   XCENC  =       408.80262748
  PAW double counting   =     25519.22152535   -24767.28995587
  entropy T*S    EENTRO =        -0.00000000
  eigenvalues    EBANDS =     -2746.17388382
  atomic energy  EATOM  =     24749.00668030
  Solvation  Ediel_sol  =         0.00000000
  ---------------------------------------------------
  free energy    TOTEN  =      -412.42967049 eV

  energy without entropy =     -412.42967049  energy(sigma->0) =     -412.42967049


--------------------------------------------------------------------------------------------------------




----------------------------------------- Iteration    1(   8)  ---------------------------------------


    POTLOK:  cpu time    0.4400: real time    0.4373
    SETDIJ:  cpu time    0.7800: real time    0.7805
     EDDAV:  cpu time   85.0133: real time   85.0676
       DOS:  cpu time    0.0000: real time    0.0012
    CHARGE:  cpu time    3.3482: real time    3.3506
    MIXING:  cpu time    0.0120: real time    0.0135
    --------------------------------------------
      LOOP:  cpu time   89.5976: real time   89.6915

 eigenvalue-minimisations  :  8704
 total energy-change (2. order) : 0.1977670E+00  (-0.3269617E+00)
 number of electron     400.0000000 magnetization 
 augmentation part        7.7805839 magnetization 

 Broyden mixing:
  rms(total) = 0.18609E+00    rms(broyden)= 0.18609E+00
  rms(prec ) = 0.22197E+00
  weight for this iteration     100.00

 eigenvalues of (default mixing * dielectric matrix)
  average eigenvalue GAMMA=   1.6004
  2.4278  1.1868  1.1868

 Free energy of the ion-electron system (eV)
  ---------------------------------------------------
  alpha Z        PSCENC =       370.05370877
  Ewald energy   TEWEN  =    -15756.92922692
  -Hartree energ DENC   =     -8188.57995729
  -exchange      EXHF   =         0.00000000
  -V(xc)+E(xc)   XCENC  =       410.94352448
  PAW double counting   =     27363.95090032   -26612.85173563
  entropy T*S    EENTRO =         0.00000000
  eigenvalues    EBANDS =     -2747.82579750
  atomic energy  EATOM  =     24749.00668030
  Solvation  Ediel_sol  =         0.00000000
  ---------------------------------------------------
  free energy    TOTEN  =      -412.23190348 eV

  energy without entropy =     -412.23190348  energy(sigma->0) =     -412.23190348


--------------------------------------------------------------------------------------------------------




----------------------------------------- Iteration    1(   9)  ---------------------------------------


    POTLOK:  cpu time    0.4360: real time    0.4379
    SETDIJ:  cpu time    0.7480: real time    0.7510
     EDDAV:  cpu time   85.6574: real time   85.7111
       DOS:  cpu time    0.0000: real time    0.0011
    CHARGE:  cpu time    3.3522: real time    3.3536
    MIXING:  cpu time    0.0120: real time    0.0137
    --------------------------------------------
      LOOP:  cpu time   90.2136: real time   90.3724

 eigenvalue-minimisations  :  8960
 total energy-change (2. order) : 0.4986842E-01  (-0.5362569E-01)
 number of electron     400.0000000 magnetization 
 augmentation part        7.8104908 magnetization 

 Broyden mixing:
  rms(total) = 0.64067E-01    rms(broyden)= 0.64061E-01
  rms(prec ) = 0.73124E-01
  weight for this iteration     100.00

 eigenvalues of (default mixing * dielectric matrix)
  average eigenvalue GAMMA=   1.5537
  2.3237  1.1867  1.1867  1.5178

 Free energy of the ion-electron system (eV)
  ---------------------------------------------------
  alpha Z        PSCENC =       370.05370877
  Ewald energy   TEWEN  =    -15756.92922692
  -Hartree energ DENC   =     -8209.11944366
  -exchange      EXHF   =         0.00000000
  -V(xc)+E(xc)   XCENC  =       412.55329037
  PAW double counting   =     27691.05994848   -26940.20691634
  entropy T*S    EENTRO =         0.00000000
  eigenvalues    EBANDS =     -2728.60007605
  atomic energy  EATOM  =     24749.00668030
  Solvation  Ediel_sol  =         0.00000000
  ---------------------------------------------------
  free energy    TOTEN  =      -412.18203505 eV

  energy without entropy =     -412.18203505  energy(sigma->0) =     -412.18203505


--------------------------------------------------------------------------------------------------------




----------------------------------------- Iteration    1(  10)  ---------------------------------------


    POTLOK:  cpu time    0.4360: real time    0.4375
    SETDIJ:  cpu time    0.7960: real time    0.7964
     EDDAV:  cpu time   84.5933: real time   84.6451
       DOS:  cpu time    0.0000: real time    0.0012
    CHARGE:  cpu time    3.3482: real time    3.3503
    MIXING:  cpu time    0.0120: real time    0.0140
    --------------------------------------------
      LOOP:  cpu time   89.1936: real time   89.2700

 eigenvalue-minimisations  :  8816
 total energy-change (2. order) :-0.1297808E-01  (-0.1360793E-01)
 number of electron     400.0000000 magnetization 
 augmentation part        7.7712868 magnetization 

 Broyden mixing:
  rms(total) = 0.48649E-01    rms(broyden)= 0.48647E-01
  rms(prec ) = 0.56523E-01
  weight for this iteration     100.00

 eigenvalues of (default mixing * dielectric matrix)
  average eigenvalue GAMMA=   1.4353
  2.3671  1.8021  1.0555  1.0555  0.8964

 Free energy of the ion-electron system (eV)
  ---------------------------------------------------
  alpha Z        PSCENC =       370.05370877
  Ewald energy   TEWEN  =    -15756.92922692
  -Hartree energ DENC   =     -8212.09824129
  -exchange      EXHF   =         0.00000000
  -V(xc)+E(xc)   XCENC  =       412.68084163
  PAW double counting   =     27675.31418119   -26924.91874953
  entropy T*S    EENTRO =         0.00000000
  eigenvalues    EBANDS =     -2725.30420728
  atomic energy  EATOM  =     24749.00668030
  Solvation  Ediel_sol  =         0.00000000
  ---------------------------------------------------
  free energy    TOTEN  =      -412.19501314 eV

  energy without entropy =     -412.19501314  energy(sigma->0) =     -412.19501314


--------------------------------------------------------------------------------------------------------




----------------------------------------- Iteration    1(  11)  ---------------------------------------


    POTLOK:  cpu time    0.4360: real time    0.4388
    SETDIJ:  cpu time    0.7800: real time    0.7800
     EDDAV:  cpu time   87.5975: real time   87.6522
       DOS:  cpu time    0.0040: real time    0.0025
    CHARGE:  cpu time    3.3522: real time    3.3526
    MIXING:  cpu time    0.0120: real time    0.0143
    --------------------------------------------
      LOOP:  cpu time   92.1858: real time   92.2858

 eigenvalue-minimisations  :  9296
 total energy-change (2. order) : 0.1386157E-02  (-0.1607863E-02)
 number of electron     400.0000000 magnetization 
 augmentation part        7.7699414 magnetization 

 Broyden mixing:
  rms(total) = 0.24669E-01    rms(broyden)= 0.24668E-01
  rms(prec ) = 0.28588E-01
  weight for this iteration     100.00

 eigenvalues of (default mixing * dielectric matrix)
  average eigenvalue GAMMA=   1.5023
  2.3668  1.9616  1.4904  0.9929  1.1011  1.1011

 Free energy of the ion-electron system (eV)
  ---------------------------------------------------
  alpha Z        PSCENC =       370.05370877
  Ewald energy   TEWEN  =    -15756.92922692
  -Hartree energ DENC   =     -8211.23735128
  -exchange      EXHF   =         0.00000000
  -V(xc)+E(xc)   XCENC  =       412.67543758
  PAW double counting   =     27698.82869184   -26948.51065225
  entropy T*S    EENTRO =        -0.00000000
  eigenvalues    EBANDS =     -2726.08091502
  atomic energy  EATOM  =     24749.00668030
  Solvation  Ediel_sol  =         0.00000000
  ---------------------------------------------------
  free energy    TOTEN  =      -412.19362698 eV

  energy without entropy =     -412.19362698  energy(sigma->0) =     -412.19362698


--------------------------------------------------------------------------------------------------------




----------------------------------------- Iteration    1(  12)  ---------------------------------------


    POTLOK:  cpu time    0.4360: real time    0.4379
    SETDIJ:  cpu time    0.7800: real time    0.7802
     EDDAV:  cpu time   93.6058: real time   93.6634
       DOS:  cpu time    0.0040: real time    0.0022
    CHARGE:  cpu time    3.3482: real time    3.3499
    MIXING:  cpu time    0.0120: real time    0.0145
    --------------------------------------------
      LOOP:  cpu time   98.1901: real time   98.2943

 eigenvalue-minimisations  : 10112
 total energy-change (2. order) :-0.1469516E-02  (-0.1178579E-02)
 number of electron     400.0000000 magnetization 
 augmentation part        7.7830317 magnetization 

 Broyden mixing:
  rms(total) = 0.10776E-01    rms(broyden)= 0.10776E-01
  rms(prec ) = 0.12726E-01
  weight for this iteration     100.00

 eigenvalues of (default mixing * dielectric matrix)
  average eigenvalue GAMMA=   1.4731
  2.6053  2.3986  1.1560  1.1560  1.0368  0.9793  0.9793

 Free energy of the ion-electron system (eV)
  ---------------------------------------------------
  alpha Z        PSCENC =       370.05370877
  Ewald energy   TEWEN  =    -15756.92922692
  -Hartree energ DENC   =     -8211.52328691
  -exchange      EXHF   =         0.00000000
  -V(xc)+E(xc)   XCENC  =       412.71668063
  PAW double counting   =     27688.66670428   -26938.40795382
  entropy T*S    EENTRO =        -0.00000000
  eigenvalues    EBANDS =     -2725.77840282
  atomic energy  EATOM  =     24749.00668030
  Solvation  Ediel_sol  =         0.00000000
  ---------------------------------------------------
  free energy    TOTEN  =      -412.19509650 eV

  energy without entropy =     -412.19509650  energy(sigma->0) =     -412.19509650


--------------------------------------------------------------------------------------------------------




----------------------------------------- Iteration    1(  13)  ---------------------------------------


    POTLOK:  cpu time    0.4360: real time    0.4379
    SETDIJ:  cpu time    0.7920: real time    0.7931
     EDDAV:  cpu time   80.1450: real time   80.1953
       DOS:  cpu time    0.0040: real time    0.0009
    CHARGE:  cpu time    3.3482: real time    3.3519
    MIXING:  cpu time    0.0160: real time    0.0148
    --------------------------------------------
      LOOP:  cpu time   84.7453: real time   84.8273

 eigenvalue-minimisations  :  8080
 total energy-change (2. order) :-0.3614448E-03  (-0.1227296E-03)
 number of electron     400.0000000 magnetization 
 augmentation part        7.7820948 magnetization 

 Broyden mixing:
  rms(total) = 0.77186E-02    rms(broyden)= 0.77183E-02
  rms(prec ) = 0.87927E-02
  weight for this iteration     100.00

 eigenvalues of (default mixing * dielectric matrix)
  average eigenvalue GAMMA=   1.4507
  2.5042  2.3993  1.5443  1.0358  1.0756  1.0756  0.9854  0.9854

 Free energy of the ion-electron system (eV)
  ---------------------------------------------------
  alpha Z        PSCENC =       370.05370877
  Ewald energy   TEWEN  =    -15756.92922692
  -Hartree energ DENC   =     -8211.89061711
  -exchange      EXHF   =         0.00000000
  -V(xc)+E(xc)   XCENC  =       412.74528796
  PAW double counting   =     27686.68721487   -26936.46355010
  entropy T*S    EENTRO =         0.00000000
  eigenvalues    EBANDS =     -2725.40495571
  atomic energy  EATOM  =     24749.00668030
  Solvation  Ediel_sol  =         0.00000000
  ---------------------------------------------------
  free energy    TOTEN  =      -412.19545794 eV

  energy without entropy =     -412.19545794  energy(sigma->0) =     -412.19545794


--------------------------------------------------------------------------------------------------------




----------------------------------------- Iteration    1(  14)  ---------------------------------------


    POTLOK:  cpu time    0.4400: real time    0.4378
    SETDIJ:  cpu time    0.7800: real time    0.7824
     EDDAV:  cpu time   89.9616: real time   90.0183
       DOS:  cpu time    0.0040: real time    0.0013
    CHARGE:  cpu time    3.3522: real time    3.3535
    MIXING:  cpu time    0.0120: real time    0.0151
    --------------------------------------------
      LOOP:  cpu time   94.5499: real time   94.6512

 eigenvalue-minimisations  :  9536
 total energy-change (2. order) :-0.2159073E-04  (-0.2025522E-04)
 number of electron     400.0000000 magnetization 
 augmentation part        7.7825960 magnetization 

 Broyden mixing:
  rms(total) = 0.42400E-02    rms(broyden)= 0.42399E-02
  rms(prec ) = 0.49069E-02
  weight for this iteration     100.00

 eigenvalues of (default mixing * dielectric matrix)
  average eigenvalue GAMMA=   1.5174
  2.6480  2.6480  1.9468  1.0686  1.0686  1.1829  1.0058  1.0440  1.0440

 Free energy of the ion-electron system (eV)
  ---------------------------------------------------
  alpha Z        PSCENC =       370.05370877
  Ewald energy   TEWEN  =    -15756.92922692
  -Hartree energ DENC   =     -8212.08488465
  -exchange      EXHF   =         0.00000000
  -V(xc)+E(xc)   XCENC  =       412.76043769
  PAW double counting   =     27684.34439242   -26934.09811060
  entropy T*S    EENTRO =         0.00000000
  eigenvalues    EBANDS =     -2725.24847653
  atomic energy  EATOM  =     24749.00668030
  Solvation  Ediel_sol  =         0.00000000
  ---------------------------------------------------
  free energy    TOTEN  =      -412.19547953 eV

  energy without entropy =     -412.19547953  energy(sigma->0) =     -412.19547953


--------------------------------------------------------------------------------------------------------




----------------------------------------- Iteration    1(  15)  ---------------------------------------


    POTLOK:  cpu time    0.4400: real time    0.4391
    SETDIJ:  cpu time    0.8001: real time    0.8013
     EDDAV:  cpu time   83.3772: real time   83.4285
       DOS:  cpu time    0.0040: real time    0.0033
    CHARGE:  cpu time    3.3482: real time    3.3518
    MIXING:  cpu time    0.0160: real time    0.0155
    --------------------------------------------
[...]
   0.199E+02 0.164E-01 0.382E+02   -.207E+02 -.207E-01 -.415E+02   0.127E+01 0.496E-02 0.479E+01   -.350E-07 -.861E-07 0.541E-06
   -.699E+01 0.537E-01 0.439E+02   0.806E+01 -.577E-01 -.469E+02   -.174E+01 0.427E-02 0.454E+01   -.742E-06 -.744E-07 0.809E-06
   0.245E+02 -.380E+02 -.206E+02   -.263E+02 0.420E+02 0.227E+02   0.228E+01 -.435E+01 -.242E+01   0.747E-07 -.367E-06 -.274E-06
   0.320E+02 -.391E+02 0.145E+01   -.347E+02 0.431E+02 -.749E+00   0.316E+01 -.435E+01 -.706E+00   0.387E-06 -.914E-06 -.532E-06
   0.320E+02 -.391E+02 0.145E+01   -.347E+02 0.431E+02 -.749E+00   0.316E+01 -.435E+01 -.706E+00   0.347E-06 -.104E-05 -.624E-06
   0.245E+02 -.380E+02 -.206E+02   -.263E+02 0.420E+02 0.227E+02   0.228E+01 -.435E+01 -.242E+01   0.102E-06 -.508E-06 -.276E-06
   0.320E+02 -.391E+02 0.145E+01   -.347E+02 0.431E+02 -.749E+00   0.316E+01 -.435E+01 -.706E+00   0.367E-06 -.932E-06 -.529E-06
   0.245E+02 -.380E+02 -.206E+02   -.263E+02 0.420E+02 0.227E+02   0.228E+01 -.435E+01 -.242E+01   0.875E-07 -.348E-06 -.230E-06
   0.245E+02 -.380E+02 -.206E+02   -.263E+02 0.420E+02 0.227E+02   0.228E+01 -.435E+01 -.242E+01   0.274E-07 -.474E-06 -.192E-06
   0.320E+02 -.391E+02 0.145E+01   -.347E+02 0.431E+02 -.749E+00   0.316E+01 -.435E+01 -.706E+00   0.412E-06 -.108E-05 -.522E-06
   0.244E+02 0.380E+02 -.206E+02   -.262E+02 -.421E+02 0.228E+02   0.227E+01 0.435E+01 -.243E+01   0.381E-07 0.488E-06 -.274E-06
   0.320E+02 0.390E+02 0.136E+01   -.347E+02 -.431E+02 -.648E+00   0.316E+01 0.434E+01 -.717E+00   0.392E-06 0.108E-05 -.560E-06
   0.320E+02 0.390E+02 0.136E+01   -.347E+02 -.431E+02 -.648E+00   0.316E+01 0.434E+01 -.717E+00   0.394E-06 0.913E-06 -.605E-06
   0.244E+02 0.380E+02 -.206E+02   -.262E+02 -.421E+02 0.228E+02   0.227E+01 0.435E+01 -.243E+01   0.848E-07 0.355E-06 -.274E-06
   0.320E+02 0.390E+02 0.136E+01   -.347E+02 -.431E+02 -.648E+00   0.316E+01 0.434E+01 -.717E+00   0.322E-06 0.102E-05 -.521E-06
   0.244E+02 0.380E+02 -.206E+02   -.262E+02 -.421E+02 0.228E+02   0.227E+01 0.435E+01 -.243E+01   0.994E-07 0.476E-06 -.220E-06
   0.244E+02 0.380E+02 -.206E+02   -.262E+02 -.421E+02 0.228E+02   0.227E+01 0.435E+01 -.243E+01   0.667E-07 0.380E-06 -.213E-06
   0.320E+02 0.390E+02 0.136E+01   -.347E+02 -.431E+02 -.648E+00   0.316E+01 0.434E+01 -.717E+00   0.404E-06 0.948E-06 -.526E-06
   -.258E+02 -.467E+02 0.234E+02   0.281E+02 0.515E+02 -.259E+02   -.288E+01 -.518E+01 0.280E+01   0.294E-06 0.782E-06 -.346E-06
   -.405E+02 -.459E+02 0.113E+02   0.437E+02 0.506E+02 -.121E+02   -.385E+01 -.512E+01 0.702E+00   0.115E-05 0.192E-05 -.577E-06
   -.405E+02 -.459E+02 0.113E+02   0.437E+02 0.506E+02 -.121E+02   -.385E+01 -.512E+01 0.702E+00   0.117E-05 0.170E-05 -.595E-06
   -.258E+02 -.467E+02 0.234E+02   0.281E+02 0.515E+02 -.259E+02   -.288E+01 -.518E+01 0.280E+01   0.297E-06 0.644E-06 -.389E-06
   -.405E+02 -.459E+02 0.113E+02   0.437E+02 0.506E+02 -.121E+02   -.385E+01 -.512E+01 0.702E+00   0.112E-05 0.187E-05 -.494E-06
   -.258E+02 -.467E+02 0.234E+02   0.281E+02 0.515E+02 -.259E+02   -.288E+01 -.518E+01 0.280E+01   0.306E-06 0.752E-06 -.294E-06
   -.258E+02 -.467E+02 0.234E+02   0.281E+02 0.515E+02 -.259E+02   -.288E+01 -.518E+01 0.280E+01   0.286E-06 0.597E-06 -.308E-06
   -.405E+02 -.459E+02 0.113E+02   0.437E+02 0.506E+02 -.121E+02   -.385E+01 -.512E+01 0.702E+00   0.120E-05 0.179E-05 -.505E-06
   -.259E+02 0.465E+02 0.234E+02   0.283E+02 -.513E+02 -.259E+02   -.289E+01 0.517E+01 0.280E+01   0.281E-06 -.584E-06 -.341E-06
   -.404E+02 0.460E+02 0.111E+02   0.436E+02 -.507E+02 -.119E+02   -.384E+01 0.512E+01 0.679E+00   0.120E-05 -.177E-05 -.593E-06
   -.404E+02 0.460E+02 0.111E+02   0.436E+02 -.507E+02 -.119E+02   -.384E+01 0.512E+01 0.679E+00   0.115E-05 -.194E-05 -.529E-06
   -.259E+02 0.465E+02 0.234E+02   0.283E+02 -.513E+02 -.259E+02   -.289E+01 0.517E+01 0.280E+01   0.284E-06 -.747E-06 -.365E-06
   -.404E+02 0.460E+02 0.111E+02   0.436E+02 -.507E+02 -.119E+02   -.384E+01 0.512E+01 0.679E+00   0.112E-05 -.171E-05 -.523E-06
   -.259E+02 0.465E+02 0.234E+02   0.283E+02 -.513E+02 -.259E+02   -.289E+01 0.517E+01 0.280E+01   0.331E-06 -.662E-06 -.288E-06
   -.259E+02 0.465E+02 0.234E+02   0.283E+02 -.513E+02 -.259E+02   -.289E+01 0.517E+01 0.280E+01   0.289E-06 -.768E-06 -.330E-06
   -.404E+02 0.460E+02 0.111E+02   0.436E+02 -.507E+02 -.119E+02   -.384E+01 0.512E+01 0.679E+00   0.116E-05 -.187E-05 -.510E-06
   -.176E+02 -.184E-01 -.496E+02   0.184E+02 0.206E-01 0.531E+02   -.176E+01 0.743E-03 -.501E+01   0.167E-06 0.130E-06 0.755E-06
   0.177E+02 -.299E-01 -.530E+02   -.193E+02 0.341E-01 0.571E+02   0.200E+01 -.865E-02 -.548E+01   -.102E-05 0.163E-06 0.192E-05
   0.177E+02 -.299E-01 -.530E+02   -.193E+02 0.341E-01 0.571E+02   0.200E+01 -.865E-02 -.548E+01   -.973E-06 -.190E-06 0.194E-05
   -.176E+02 -.184E-01 -.496E+02   0.184E+02 0.206E-01 0.531E+02   -.176E+01 0.743E-03 -.501E+01   0.131E-06 -.627E-07 0.698E-06
   0.177E+02 -.299E-01 -.530E+02   -.193E+02 0.341E-01 0.571E+02   0.200E+01 -.865E-02 -.548E+01   -.999E-06 0.119E-06 0.192E-05
   -.176E+02 -.184E-01 -.496E+02   0.184E+02 0.206E-01 0.531E+02   -.176E+01 0.743E-03 -.501E+01   0.172E-06 0.392E-07 0.726E-06
   -.176E+02 -.184E-01 -.496E+02   0.184E+02 0.206E-01 0.531E+02   -.176E+01 0.743E-03 -.501E+01   0.148E-06 -.110E-06 0.798E-06
   0.177E+02 -.299E-01 -.530E+02   -.193E+02 0.341E-01 0.571E+02   0.200E+01 -.865E-02 -.548E+01   -.960E-06 -.619E-07 0.192E-05
   -.254E+02 0.179E+02 -.833E+01   0.246E+02 -.179E+02 0.796E+01   0.904E+00 -.645E-01 0.360E+00   -.157E-05 -.186E-05 -.743E-06
   -.254E+02 -.177E+02 -.835E+01   0.246E+02 0.177E+02 0.798E+01   0.908E+00 0.729E-01 0.363E+00   0.221E-06 -.637E-06 -.114E-06
   -.254E+02 -.177E+02 -.835E+01   0.246E+02 0.177E+02 0.798E+01   0.908E+00 0.729E-01 0.363E+00   0.258E-07 0.494E-06 -.298E-06
   -.254E+02 0.179E+02 -.833E+01   0.246E+02 -.179E+02 0.796E+01   0.904E+00 -.645E-01 0.360E+00   0.225E-06 0.288E-06 0.303E-06
   -.254E+02 -.177E+02 -.835E+01   0.246E+02 0.177E+02 0.798E+01   0.908E+00 0.729E-01 0.363E+00   -.219E-06 0.492E-06 0.454E-06
   -.254E+02 0.179E+02 -.833E+01   0.246E+02 -.179E+02 0.796E+01   0.904E+00 -.645E-01 0.360E+00   0.271E-06 0.355E-06 0.746E-06
   -.254E+02 0.179E+02 -.833E+01   0.246E+02 -.179E+02 0.796E+01   0.904E+00 -.645E-01 0.360E+00   0.140E-06 -.520E-06 0.298E-06
   -.254E+02 -.177E+02 -.835E+01   0.246E+02 0.177E+02 0.798E+01   0.908E+00 0.729E-01 0.363E+00   0.230E-06 -.725E-06 0.969E-06
   -.151E+02 -.830E+01 0.409E+01   0.151E+02 0.858E+01 -.401E+01   -.447E-04 -.297E+00 -.604E-01   0.146E-06 -.297E-06 -.131E-06
   -.154E+02 0.840E+01 0.405E+01   0.154E+02 -.869E+01 -.398E+01   -.686E-02 0.296E+00 -.603E-01   0.101E-06 0.177E-06 -.852E-06
   -.154E+02 0.840E+01 0.405E+01   0.154E+02 -.869E+01 -.398E+01   -.686E-02 0.296E+00 -.603E-01   0.151E-06 0.123E-06 -.188E-06
   -.151E+02 -.830E+01 0.409E+01   0.151E+02 0.858E+01 -.401E+01   -.447E-04 -.297E+00 -.604E-01   0.206E-06 -.127E-06 -.110E-05
   -.154E+02 0.840E+01 0.405E+01   0.154E+02 -.869E+01 -.398E+01   -.686E-02 0.296E+00 -.603E-01   0.169E-06 0.345E-06 -.256E-06
   -.151E+02 -.830E+01 0.409E+01   0.151E+02 0.858E+01 -.401E+01   -.447E-04 -.297E+00 -.604E-01   0.837E-07 -.186E-06 0.490E-06
   -.151E+02 -.830E+01 0.409E+01   0.151E+02 0.858E+01 -.401E+01   -.447E-04 -.297E+00 -.604E-01   0.146E-06 -.216E-06 -.158E-06
   -.154E+02 0.840E+01 0.405E+01   0.154E+02 -.869E+01 -.398E+01   -.686E-02 0.296E+00 -.603E-01   0.170E-06 0.122E-06 0.701E-06
   -.566E+02 -.381E-01 0.160E+01   0.577E+02 0.388E-01 -.126E+01   -.123E+01 -.754E-03 -.434E+00   0.878E-06 0.131E-05 0.718E-06
   0.301E+02 -.450E-01 -.839E+01   -.312E+02 0.463E-01 0.953E+01   0.164E+01 -.147E-02 -.173E+01   -.269E-06 0.155E-06 0.277E-07
   0.301E+02 -.450E-01 -.839E+01   -.312E+02 0.463E-01 0.953E+01   0.164E+01 -.147E-02 -.173E+01   -.486E-06 -.126E-05 0.486E-07
   -.566E+02 -.381E-01 0.160E+01   0.577E+02 0.388E-01 -.126E+01   -.123E+01 -.754E-03 -.434E+00   0.822E-06 -.115E-06 0.573E-06
   0.301E+02 -.450E-01 -.839E+01   -.312E+02 0.463E-01 0.953E+01   0.164E+01 -.147E-02 -.173E+01   -.296E-06 0.137E-05 -.944E-07
   -.566E+02 -.381E-01 0.160E+01   0.577E+02 0.388E-01 -.126E+01   -.123E+01 -.754E-03 -.434E+00   0.118E-05 0.316E-06 0.787E-06
   -.566E+02 -.381E-01 0.160E+01   0.577E+02 0.388E-01 -.126E+01   -.123E+01 -.754E-03 -.434E+00   0.874E-06 -.123E-05 0.669E-06
   0.301E+02 -.450E-01 -.839E+01   -.312E+02 0.463E-01 0.953E+01   0.164E+01 -.147E-02 -.173E+01   -.888E-06 -.325E-06 0.357E-06
   0.142E+02 0.289E+02 -.228E+02   -.137E+02 -.282E+02 0.222E+02   -.908E+00 -.175E+01 0.137E+01   0.626E-06 -.143E-05 0.683E-06
   0.142E+02 -.290E+02 -.231E+02   -.138E+02 0.284E+02 0.225E+02   -.914E+00 0.176E+01 0.138E+01   -.136E-05 0.129E-05 0.650E-06
   0.142E+02 -.290E+02 -.231E+02   -.138E+02 0.284E+02 0.225E+02   -.914E+00 0.176E+01 0.138E+01   -.392E-06 0.656E-06 0.723E-06
   0.142E+02 0.289E+02 -.228E+02   -.137E+02 -.282E+02 0.222E+02   -.908E+00 -.175E+01 0.137E+01   -.427E-06 -.563E-06 0.672E-06
   0.142E+02 -.290E+02 -.231E+02   -.138E+02 0.284E+02 0.225E+02   -.914E+00 0.176E+01 0.138E+01   -.149E-06 0.148E-05 0.911E-06
   0.142E+02 0.289E+02 -.228E+02   -.137E+02 -.282E+02 0.222E+02   -.908E+00 -.175E+01 0.137E+01   -.793E-06 -.126E-05 0.868E-06
   0.142E+02 0.289E+02 -.228E+02   -.137E+02 -.282E+02 0.222E+02   -.908E+00 -.175E+01 0.137E+01   -.123E-05 -.902E-06 0.835E-06
   0.142E+02 -.290E+02 -.231E+02   -.138E+02 0.284E+02 0.225E+02   -.914E+00 0.176E+01 0.138E+01   0.321E-06 0.686E-06 0.780E-06
 -----------------------------------------------------------------------------------------------
   -.629E+02 -.760E-01 -.133E+02   0.258E-12 0.320E-13 0.519E-12   0.629E+02 0.760E-01 0.133E+02   -.344E-04 -.194E-05 -.200E-04
 
 
 POSITION                                       TOTAL-FORCE (eV/Angst)
 -----------------------------------------------------------------------------------
      2.53296      3.11183      2.93470         0.596499     -0.002702     -0.614963
      8.77501      3.11641      3.02464         0.957340     -0.004319      0.032257
      2.48719      9.34422      2.95516         0.957340     -0.004319      0.032257
      8.82197      9.34155      3.00343         0.596499     -0.002702     -0.614963
      2.55630      3.11550      9.32925         0.957340     -0.004319      0.032257
      8.89108      3.11283      9.37751         0.596499     -0.002702     -0.614963
      2.60326      9.34064      9.30804         0.596499     -0.002702     -0.614963
      8.84531      9.34523      9.39797         0.957340     -0.004319      0.032257
      4.07912      3.11390      3.08703        -0.118593     -0.004377      0.636222
      9.94649      3.11713      4.04851        -0.012423     -0.011721     -1.169161
      3.65867      9.34494      3.97903        -0.012423     -0.011721     -1.169161
     10.36814      9.34363      3.15576        -0.118593     -0.004377      0.636222
      3.72778      3.11622     10.35312        -0.012423     -0.011721     -1.169161
     10.43724      3.11490      9.52984        -0.118593     -0.004377      0.636222
      4.14942      9.34271      9.46037        -0.118593     -0.004377      0.636222
     10.01679      9.34595     10.42184        -0.012423     -0.011721     -1.169161
      2.26482      3.11070      1.80951         0.533672      0.000654      1.508638
      9.22243      3.11538      1.95882        -0.663504      0.000311      1.561645
      2.93461      9.34319      1.88935        -0.663504      0.000311      1.561645
      8.55383      9.34043      1.87824         0.533672      0.000654      1.508638
      3.00372      3.11447      8.26343        -0.663504      0.000311      1.561645
      8.62294      3.11170      8.25232         0.533672      0.000654      1.508638
      2.33512      9.33952      8.18285         0.533672      0.000654      1.508638
      9.29274      9.34419      8.33216        -0.663504      0.000311      1.561645
      2.10066      4.01162      3.43370         0.442271     -0.294729     -0.275461
      8.14194      4.02140      3.19190         0.497635     -0.294852     -0.001234
      1.85412     10.24922      3.12243         0.497635     -0.294852     -0.001234
      8.38968     10.24135      3.50242         0.442271     -0.294729     -0.275461
      1.92322      4.02049      9.49651         0.497635     -0.294852     -0.001234
      8.45878      4.01262      9.87651         0.442271     -0.294729     -0.275461
      2.17096     10.24043      9.80704         0.442271     -0.294729     -0.275461
      8.21224     10.25022      9.56524         0.497635     -0.294852     -0.001234
      2.10337      2.21144      3.43519         0.440274      0.298146     -0.279193
      8.14156      2.21199      3.19411         0.498640      0.296979     -0.004763
      1.85374      8.43980      3.12463         0.498640      0.296979     -0.004763
      8.39239      8.44117      3.50392         0.440274      0.298146     -0.279193
      1.92285      2.21107      9.49872         0.498640      0.296979     -0.004763
      8.46149      2.21244      9.87800         0.440274      0.298146     -0.279193
      2.17367      8.44025      9.80853         0.440274      0.298146     -0.279193
      8.21186      8.44080      9.56744         0.498640      0.296979     -0.004763
      4.53722      3.95719      2.63347        -0.514768     -0.397092      0.341997
     10.57874      3.96501      3.92438        -0.650378     -0.467353     -0.089715
      4.29091     10.19282      3.85490        -0.650378     -0.467353     -0.089715
     10.82624     10.18692      2.70220        -0.514768     -0.397092      0.341997
      4.36002      3.96409     10.22899        -0.650378     -0.467353     -0.089715
     10.89535      3.95819      9.07628        -0.514768     -0.397092      0.341997
      4.60753     10.18601      9.00681        -0.514768     -0.397092      0.341997
     10.64904     10.19382     10.29771        -0.650378     -0.467353     -0.089715
      4.53980      2.27167      2.63367        -0.520672      0.398816      0.340192
     10.57766      2.26782      3.92782        -0.652713      0.470889     -0.096514
      4.28983      8.49563      3.85835        -0.652713      0.470889     -0.096514
     10.82881      8.50140      2.70240        -0.520672      0.398816      0.340192
      4.35894      2.26691     10.23243        -0.652713      0.470889     -0.096514
     10.89792      2.27267      9.07648        -0.520672      0.398816      0.340192
      4.61010      8.50049      9.00701        -0.520672      0.398816      0.340192
     10.64796      8.49664     10.30116        -0.652713      0.470889     -0.096514
      4.44099      3.11384      4.14631        -0.929044      0.002911     -1.482772
      9.57302      3.11944      5.07241         0.477765     -0.004416     -1.391138
      3.28520      9.34725      5.00294         0.477765     -0.004416     -1.391138
     10.73000      9.34357      4.21504        -0.929044      0.002911     -1.482772
      3.35431      3.11852     11.37702         0.477765     -0.004416     -1.391138
     10.79911      3.11485     10.58912        -0.929044      0.002911     -1.482772
      4.51129      9.34266     10.51965        -0.929044      0.002911     -1.482772
      9.64333      9.34825     11.44575         0.477765     -0.004416     -1.391138
      6.01045      6.17257      6.29585         0.050891     -0.040686     -0.005871
     12.29910      6.28757      6.36526         0.051921      0.040866     -0.005592
      6.01009      0.05784      6.29653         0.051921      0.040866     -0.005592
     12.29946     12.40229      6.36458         0.050891     -0.040686     -0.005871
      6.08039      6.28666     12.66987         0.051921      0.040866     -0.005592
     12.36857      6.17357     12.73866         0.050891     -0.040686     -0.005871
      6.08075     12.40138     12.66919         0.050891     -0.040686     -0.005871
     12.36821      0.05885     12.73934         0.051921      0.040866     -0.005592
      5.75162      6.34759      3.09096         0.025784     -0.013032      0.012873
     12.04271      6.11247      3.15996         0.025640      0.012048      0.013174
      5.75489     12.34028      3.09049         0.025640      0.012048      0.013174
     12.03944      0.11978      3.16043         0.025784     -0.013032      0.012873
      5.82399      6.11155      9.46457         0.025640      0.012048      0.013174
     12.10975      6.34859      9.53377         0.025784     -0.013032      0.012873
      5.82073      0.11887      9.46504         0.025784     -0.013032      0.012873
     12.11301     12.34128      9.53330         0.025640      0.012048      0.013174
      6.54010      3.11491      0.18248        -0.125857     -0.000062     -0.094699
     11.06219      3.11602      0.31218         0.477321     -0.000236     -0.596227
      4.77437      9.34383      0.24271         0.477321     -0.000236     -0.596227
      0.25228      9.34272      0.11301        -0.125857     -0.000062     -0.094699
      4.84348      3.11511      6.61679         0.477321     -0.000236     -0.596227
      0.32139      3.11400      6.48709        -0.125857     -0.000062     -0.094699
      6.61041      9.34372      6.55582        -0.125857     -0.000062     -0.094699
     11.13250      9.34483      6.68552         0.477321     -0.000236     -0.596227
      2.78354      7.23316      5.91013        -0.440921     -1.049547      0.823880
      9.07218      5.22618      5.97721        -0.446780      1.063505      0.836426
      2.78436     11.45399      5.90773        -0.446780      1.063505      0.836426
      9.07136      1.00535      5.97960        -0.440921     -1.049547      0.823880
      2.85347      5.22527     12.28182        -0.446780      1.063505      0.836426
      9.14167      7.23417     12.35294        -0.440921     -1.049547      0.823880
      2.85265      1.00444     12.28421        -0.440921     -1.049547      0.823880
      9.14249     11.45499     12.35054        -0.446780      1.063505      0.836426
 -----------------------------------------------------------------------------------
    total drift:                               -0.001561     -0.000004      0.001169


--------------------------------------------------------------------------------------------------------



  FREE ENERGIE OF THE ION-ELECTRON SYSTEM (eV)
  ---------------------------------------------------
  free  energy   TOTEN  =      -412.19552698 eV

  energy  without entropy=     -412.19552698  energy(sigma->0) =     -412.19552698
 


--------------------------------------------------------------------------------------------------------


    POTLOK:  cpu time    1.6721: real time    1.6742


--------------------------------------------------------------------------------------------------------


     LOOP+:  cpu time 4258.4341: real time 4263.5082
    4ORBIT:  cpu time    0.0000: real time    0.0000

 total amount of memory used by VASP on root node   697522. kBytes
========================================================================

   base      :      30000. kBytes
   nonl-proj :     325712. kBytes
   fftplans  :      80881. kBytes
   grid      :      57435. kBytes
   one-center:        497. kBytes
   wavefun   :     202997. kBytes
 
  
  
 General timing and accounting informations for this job:
 ========================================================
  
                  Total CPU time used (sec):     4288.184
                            User time (sec):     4286.444
                          System time (sec):        1.740
                         Elapsed time (sec):     4295.577
  
                   Maximum memory used (kb):      650368.
                   Average memory used (kb):           0.
  
                          Minor page faults:       305741
                          Major page faults:            0
                 Voluntary context switches:         1356
