       N       E                     dE             d eps       ncg     rms          ort
DAV:   1     0.217050784777E+04    0.21705E+04   -0.12097E+05  3584   0.390E+03
DAV:   2     0.557057967679E+03   -0.16134E+04   -0.15257E+04  3584   0.131E+03
DAV:   3     0.915162965566E+02   -0.46554E+03   -0.44793E+03  3584   0.327E+02
DAV:   4     0.361831111404E+02   -0.55333E+02   -0.54234E+02  3584   0.111E+02
DAV:   5     0.332755619581E+02   -0.29075E+01   -0.28948E+01  3584   0.298E+01
