 running on   96 total cores
 distrk:  each k-point on   24 cores,    4 groups
 distr:  one band on    3 cores,    8 groups
 using from now: INCAR     
 vasp.5.4.1 24Jun15 (build Nov 25 2015 16:01:35) complex                        
  
 POSCAR found type information on POSCAR  C  N  H  Pb I 
 POSCAR found :  5 types and      96 ions
 scaLAPACK will be used

 ----------------------------------------------------------------------------- 
|                                                                             |
|           W    W    AA    RRRRR   N    N  II  N    N   GGGG   !!!           |
|           W    W   A  A   R    R  NN   N  II  NN   N  G    G  !!!           |
|           W    W  A    A  R    R  N N  N  II  N N  N  G       !!!           |
|           W WW W  AAAAAA  RRRRR   N  N N  II  N  N N  G  GGG   !            |
|           WW  WW  A    A  R   R   N   NN  II  N   NN  G    G                |
|           W    W  A    A  R    R  N    N  II  N    N   GGGG   !!!           |
|                                                                             |
|      For optimal performance we recommend to set                            |
|        NCORE= 4 - approx SQRT( number of cores)                             |
|      NCORE specifies how many cores store one orbital (NPAR=cpu/NCORE).     |
|      This setting can  greatly improve the performance of VASP for DFT.     |
|      The default, NPAR=number of cores might be grossly inefficient         |
|      on modern multi-core architectures or massively parallel machines.     |
|      Do your own testing !!!!                                               |
|      Unfortunately you need to use the default for GW and RPA calculations. |
|      (for HF NCORE is supported but not extensively tested yet)             |
|                                                                             |
 ----------------------------------------------------------------------------- 


 ----------------------------------------------------------------------------- 
|                                                                             |
|           W    W    AA    RRRRR   N    N  II  N    N   GGGG   !!!           |
|           W    W   A  A   R    R  NN   N  II  NN   N  G    G  !!!           |
|           W    W  A    A  R    R  N N  N  II  N N  N  G       !!!           |
|           W WW W  AAAAAA  RRRRR   N  N N  II  N  N N  G  GGG   !            |
|           WW  WW  A    A  R   R   N   NN  II  N   NN  G    G                |
|           W    W  A    A  R    R  N    N  II  N    N   GGGG   !!!           |
|                                                                             |
|      You have enabled k-point parallelism (KPAR>1).                         |
|      This developmental code was originally  written by Paul Kent at ORNL,  |
|      and carefully double checked in Vienna.                                |
|      GW as well as linear response parallelism added by Martijn Marsman     |
|      and Georg Kresse.                                                      |
|      Carefully verify results versus KPAR=1.                                |
|      Report problems to Paul Kent and Vienna.                               |
|                                                                             |
 ----------------------------------------------------------------------------- 


 ----------------------------------------------------------------------------- 
|                                                                             |
|  ADVICE TO THIS USER RUNNING 'VASP/VAMP'   (HEAR YOUR MASTER'S VOICE ...):  |
|                                                                             |
|      You have a (more or less) 'large supercell' and for larger cells       |
|      it might be more efficient to use real space projection opertators     |
|      So try LREAL= Auto  in the INCAR   file.                               |
|      Mind: At the moment your POTCAR file does not contain real space       |
|       projectors, and has to be modified,  BUT if you                       |
|      want to do an extremely  accurate calculation you might also keep the  |
|      reciprocal projection scheme          (i.e. LREAL=.FALSE.)             |
|                                                                             |
 ----------------------------------------------------------------------------- 


 ----------------------------------------------------------------------------- 
|                                                                             |
|  ADVICE TO THIS USER RUNNING 'VASP/VAMP'   (HEAR YOUR MASTER'S VOICE ...):  |
|                                                                             |
|      You enforced a specific xc-type in the INCAR file,                     |
|      a different type was found on the POTCAR file                          |
|          I HOPE YOU KNOW, WHAT YOU ARE  DOING                               |
|                                                                             |
 ----------------------------------------------------------------------------- 

 LDA part: xc-table for Pade appr. of Perdew
 POSCAR, INCAR and KPOINTS ok, starting setup
 WARNING: small aliasing (wrap around) errors must be expected
 FFT: planning ...
 WAVECAR not read
 entering main loop
       N       E                     dE             d eps       ncg     rms          rms(c)
DAV:   1     0.359619192187E+04    0.35962E+04   -0.18943E+05  7176   0.170E+03
DAV:   2     0.196603810330E+03   -0.33996E+04   -0.32100E+04  8016   0.354E+02
DAV:   3    -0.398201404577E+03   -0.59481E+03   -0.58622E+03  9440   0.171E+02
DAV:   4    -0.438315985449E+03   -0.40115E+02   -0.39940E+02  9640   0.490E+01
DAV:   5    -0.439836855511E+03   -0.15209E+01   -0.15186E+01  9776   0.925E+00    0.294E+01
DAV:   6    -0.419512629295E+03    0.20324E+02   -0.41100E+01  9624   0.103E+01    0.155E+01
DAV:   7    -0.417053995362E+03    0.24586E+01   -0.14551E+01 10256   0.639E+00    0.775E+00
DAV:   8    -0.416881210538E+03    0.17278E+00   -0.30680E+00  8576   0.320E+00    0.182E+00
DAV:   9    -0.416809203593E+03    0.72007E-01   -0.74060E-01  9344   0.174E+00    0.727E-01
DAV:  10    -0.416821607857E+03   -0.12404E-01   -0.11551E-01  9008   0.602E-01    0.475E-01
DAV:  11    -0.416821047195E+03    0.56066E-03   -0.13945E-02  9744   0.275E-01    0.211E-01
DAV:  12    -0.416822442256E+03   -0.13951E-02   -0.10236E-02  9840   0.162E-01    0.110E-01
DAV:  13    -0.416822593418E+03   -0.15116E-03   -0.14534E-03  8384   0.822E-02    0.774E-02
DAV:  14    -0.416822640411E+03   -0.46993E-04   -0.27606E-04  8624   0.293E-02    0.377E-02
DAV:  15    -0.416822685299E+03   -0.44888E-04   -0.21226E-04  8264   0.239E-02    0.140E-02
DAV:  16    -0.416822689886E+03   -0.45875E-05   -0.21517E-05 10136   0.961E-03    0.146E-02
DAV:  17    -0.416822689583E+03    0.30300E-06   -0.34436E-06  8432   0.345E-03    0.770E-03
DAV:  18    -0.416822689340E+03    0.24372E-06   -0.12310E-05  9640   0.553E-03    0.359E-03
DAV:  19    -0.416822689439E+03   -0.99768E-07   -0.12789E-06  8776   0.256E-03    0.304E-03
DAV:  20    -0.416822689440E+03   -0.10841E-08   -0.42918E-07  9280   0.107E-03    0.622E-04
DAV:  21    -0.416822689500E+03   -0.59365E-07   -0.82030E-08  9648   0.523E-04    0.397E-04
DAV:  22    -0.416822689484E+03    0.15458E-07   -0.51173E-09  7680   0.187E-04    0.251E-04
DAV:  23    -0.416822689487E+03   -0.28522E-08    0.82625E-10  7872   0.101E-04    0.224E-04
DAV:  24    -0.416822689487E+03    0.29468E-09    0.85947E-10  7968   0.632E-05    0.215E-04
DAV:  25    -0.416822689488E+03   -0.10441E-08    0.16301E-09  6064   0.469E-05    0.212E-04
DAV:  26    -0.416822689490E+03   -0.20336E-08    0.19499E-09  4936   0.316E-05    0.210E-04
DAV:  27    -0.416822689491E+03   -0.51296E-09    0.20817E-09  4272   0.182E-05    0.212E-04
DAV:  28    -0.416822689490E+03    0.63301E-09    0.16518E-09  4256   0.169E-05    0.210E-04
DAV:  29    -0.416822689489E+03    0.44747E-09    0.19127E-09  4256   0.134E-05    0.209E-04
DAV:  30    -0.416822689489E+03    0.25102E-09    0.17027E-09  4256   0.103E-05    0.209E-04
DAV:  31    -0.416822689490E+03   -0.45111E-09    0.13275E-09  4256   0.568E-06    0.209E-04
DAV:  32    -0.416822689490E+03   -0.17099E-09    0.11119E-09  4256   0.344E-06    0.209E-04
DAV:  33    -0.416822689490E+03    0.13461E-09    0.11460E-09  4192   0.277E-06    0.209E-04
DAV:  34    -0.416822689490E+03    0.36380E-11    0.10275E-09  4184   0.194E-06    0.209E-04
DAV:  35    -0.416822689490E+03   -0.94587E-10    0.94515E-10  4184   0.148E-06
   1 F= -.41682269E+03 E0= -.41682269E+03  d E =0.000000E+00
Application 22454133 resources: utime ~277088s, stime ~257s, Rss ~647800, inblocks ~887847, outblocks ~776317
