  96  96   0   0
  0.2080188E+02  0.1257760E-08  0.1245754E-08  0.1274818E-08  0.5000000E-15
  1.000000000000000E-004
  CAR 
 MAPbI3-Cubic                            
      8.92463259    -19.52187121  301      1.38630909      1.00000000
    -19.522  0.0000E+00  0.0000E+00
    -19.427  0.0000E+00  0.0000E+00
    -19.332  0.0000E+00  0.0000E+00
    -19.237  0.0000E+00  0.0000E+00
    -19.143  0.0000E+00  0.0000E+00
    -19.048  0.0000E+00  0.0000E+00
    -18.953  0.0000E+00  0.0000E+00
    -18.858  0.0000E+00  0.0000E+00
    -18.763  0.0000E+00  0.0000E+00
    -18.668  0.0000E+00  0.0000E+00
    -18.574  0.0000E+00  0.0000E+00
    -18.479  0.0000E+00  0.0000E+00
    -18.384  0.0000E+00  0.0000E+00
    -18.289  0.0000E+00  0.0000E+00
    -18.194  0.0000E+00  0.1600E+02
    -18.100  0.0000E+00  0.1600E+02
    -18.005  0.0000E+00  0.1600E+02
    -17.910  0.0000E+00  0.1600E+02
    -17.815  0.0000E+00  0.1600E+02
    -17.720  0.0000E+00  0.1600E+02
    -17.625  0.0000E+00  0.1600E+02
    -17.531  0.0000E+00  0.1600E+02
    -17.436  0.0000E+00  0.1600E+02
    -17.341  0.0000E+00  0.1600E+02
    -17.246  0.0000E+00  0.1600E+02
    -17.151  0.0000E+00  0.1600E+02
    -17.057  0.0000E+00  0.1600E+02
    -16.962  0.0000E+00  0.1600E+02
    -16.867  0.0000E+00  0.1600E+02
    -16.772  0.0000E+00  0.1600E+02
    -16.677  0.0000E+00  0.1600E+02
    -16.582  0.0000E+00  0.1600E+02
    -16.488  0.0000E+00  0.1600E+02
    -16.393  0.0000E+00  0.1600E+02
    -16.298  0.0000E+00  0.1600E+02
    -16.203  0.0000E+00  0.1600E+02
    -16.108  0.0000E+00  0.1600E+02
    -16.013  0.0000E+00  0.1600E+02
    -15.919  0.0000E+00  0.1600E+02
    -15.824  0.0000E+00  0.1600E+02
    -15.729  0.0000E+00  0.1600E+02
    -15.634  0.0000E+00  0.1600E+02
    -15.539  0.0000E+00  0.1600E+02
    -15.445  0.0000E+00  0.1600E+02
    -15.350  0.0000E+00  0.1600E+02
    -15.255  0.0000E+00  0.1600E+02
    -15.160  0.0000E+00  0.1600E+02
    -15.065  0.5848E+02  0.4799E+02
    -14.970  0.0000E+00  0.9600E+02
    -14.876  0.0000E+00  0.9600E+02
    -14.781  0.0000E+00  0.9600E+02
    -14.686  0.0000E+00  0.9600E+02
    -14.591  0.0000E+00  0.9600E+02
    -14.496  0.0000E+00  0.9600E+02
    -14.402  0.0000E+00  0.9600E+02
    -14.307  0.0000E+00  0.9600E+02
    -14.212  0.0000E+00  0.9600E+02
    -14.117  0.0000E+00  0.9600E+02
    -14.022  0.0000E+00  0.9600E+02
    -13.927  0.0000E+00  0.9600E+02
    -13.833  0.0000E+00  0.9600E+02
    -13.738  0.0000E+00  0.9600E+02
    -13.643  0.0000E+00  0.9600E+02
    -13.548  0.0000E+00  0.9600E+02
    -13.453  0.0000E+00  0.9600E+02
    -13.358  0.0000E+00  0.9600E+02
    -13.264  0.0000E+00  0.9600E+02
    -13.169  0.0000E+00  0.9600E+02
    -13.074  0.0000E+00  0.9600E+02
    -12.979  0.0000E+00  0.9600E+02
    -12.884  0.0000E+00  0.9600E+02
    -12.790  0.0000E+00  0.9600E+02
    -12.695  0.0000E+00  0.9600E+02
    -12.600  0.0000E+00  0.9600E+02
    -12.505  0.0000E+00  0.9600E+02
    -12.410  0.0000E+00  0.9600E+02
    -12.315  0.0000E+00  0.9600E+02
    -12.221  0.0000E+00  0.9600E+02
    -12.126  0.0000E+00  0.9600E+02
    -12.031  0.0000E+00  0.9600E+02
    -11.936  0.0000E+00  0.9600E+02
    -11.841  0.0000E+00  0.9600E+02
    -11.746  0.0000E+00  0.9600E+02
    -11.652  0.0000E+00  0.9600E+02
    -11.557  0.0000E+00  0.9600E+02
    -11.462  0.0000E+00  0.9600E+02
    -11.367  0.9333E-10  0.9600E+02
    -11.272  0.2086E-04  0.1040E+03
    -11.178  0.0000E+00  0.1120E+03
    -11.083  0.0000E+00  0.1120E+03
    -10.988  0.0000E+00  0.1120E+03
    -10.893  0.0000E+00  0.1120E+03
    -10.798  0.1565E+01  0.1122E+03
    -10.703  0.0000E+00  0.1141E+03
    -10.609  0.6214E+01  0.1192E+03
    -10.514  0.6175E+01  0.1254E+03
    -10.419  0.3034E+01  0.1288E+03
    -10.324  0.2334E+02  0.1345E+03
    -10.229  0.0000E+00  0.1400E+03
    -10.135  0.9330E-06  0.1436E+03
    -10.040  0.1021E+02  0.1504E+03
     -9.945  0.1632E+01  0.1579E+03
     -9.850  0.0000E+00  0.1600E+03
     -9.755  0.0000E+00  0.1600E+03
     -9.660  0.0000E+00  0.1600E+03
     -9.566  0.0000E+00  0.1600E+03
     -9.471  0.0000E+00  0.1600E+03
     -9.376  0.0000E+00  0.1600E+03
     -9.281  0.0000E+00  0.1600E+03
     -9.186  0.0000E+00  0.1600E+03
     -9.091  0.0000E+00  0.1600E+03
     -8.997  0.0000E+00  0.1600E+03
     -8.902  0.0000E+00  0.1600E+03
     -8.807  0.0000E+00  0.1600E+03
     -8.712  0.0000E+00  0.1600E+03
     -8.617  0.0000E+00  0.1600E+03
     -8.523  0.0000E+00  0.1600E+03
     -8.428  0.0000E+00  0.1600E+03
     -8.333  0.0000E+00  0.1600E+03
     -8.238  0.0000E+00  0.1600E+03
     -8.143  0.0000E+00  0.1600E+03
     -8.048  0.0000E+00  0.1600E+03
     -7.954  0.0000E+00  0.1600E+03
     -7.859  0.0000E+00  0.1600E+03
     -7.764  0.0000E+00  0.1600E+03
     -7.669  0.2319E+02  0.1702E+03
     -7.574  0.5144E+02  0.1891E+03
     -7.480  0.0000E+00  0.1920E+03
     -7.385  0.0000E+00  0.1920E+03
     -7.290  0.0000E+00  0.1920E+03
     -7.195  0.0000E+00  0.1920E+03
     -7.100  0.0000E+00  0.1920E+03
     -7.005  0.0000E+00  0.1921E+03
     -6.911  0.1561E+01  0.1925E+03
     -6.816  0.0000E+00  0.1925E+03
     -6.721  0.0000E+00  0.1934E+03
     -6.626  0.0000E+00  0.1943E+03
     -6.531  0.1562E+01  0.1953E+03
     -6.436  0.3009E+01  0.1967E+03
     -6.342  0.1562E+01  0.1990E+03
     -6.247  0.2527E-03  0.2003E+03
     -6.152  0.6982E+01  0.2024E+03
     -6.057  0.0000E+00  0.2036E+03
     -5.962  0.7812E+00  0.2055E+03
     -5.868  0.6327E-01  0.2065E+03
     -5.773  0.8101E+00  0.2147E+03
     -5.678  0.0000E+00  0.2226E+03
     -5.583  0.0000E+00  0.2235E+03
     -5.488  0.0000E+00  0.2239E+03
     -5.393  0.0000E+00  0.2240E+03
     -5.299  0.0000E+00  0.2240E+03
     -5.204  0.0000E+00  0.2240E+03
     -5.109  0.0000E+00  0.2240E+03
     -5.014  0.0000E+00  0.2240E+03
     -4.919  0.0000E+00  0.2240E+03
     -4.825  0.0000E+00  0.2240E+03
     -4.730  0.0000E+00  0.2240E+03
     -4.635  0.0000E+00  0.2240E+03
     -4.540  0.0000E+00  0.2240E+03
     -4.445  0.0000E+00  0.2240E+03
     -4.350  0.0000E+00  0.2240E+03
     -4.256  0.0000E+00  0.2240E+03
     -4.161  0.0000E+00  0.2240E+03
     -4.066  0.0000E+00  0.2240E+03
     -3.971  0.0000E+00  0.2240E+03
     -3.876  0.0000E+00  0.2240E+03
     -3.781  0.0000E+00  0.2240E+03
     -3.687  0.0000E+00  0.2240E+03
     -3.592  0.9346E+01  0.2253E+03
     -3.497  0.3062E+02  0.2496E+03
     -3.402  0.0000E+00  0.2560E+03
     -3.307  0.0000E+00  0.2560E+03
     -3.213  0.0000E+00  0.2560E+03
     -3.118  0.0000E+00  0.2560E+03
     -3.023  0.0000E+00  0.2560E+03
     -2.928  0.0000E+00  0.2560E+03
     -2.833  0.0000E+00  0.2560E+03
     -2.738  0.0000E+00  0.2560E+03
     -2.644  0.0000E+00  0.2560E+03
     -2.549  0.0000E+00  0.2560E+03
     -2.454  0.0000E+00  0.2560E+03
     -2.359  0.0000E+00  0.2560E+03
     -2.264  0.0000E+00  0.2560E+03
     -2.170  0.0000E+00  0.2560E+03
     -2.075  0.0000E+00  0.2567E+03
     -1.980  0.1404E+01  0.2592E+03
     -1.885  0.1585E-01  0.2616E+03
     -1.790  0.4687E+01  0.2640E+03
     -1.695  0.3125E+01  0.2667E+03
     -1.601  0.5919E+01  0.2703E+03
     -1.506  0.2454E+01  0.2733E+03
     -1.411  0.6397E-01  0.2766E+03
     -1.316  0.4687E+01  0.2796E+03
     -1.221  0.0000E+00  0.2800E+03
     -1.126  0.0000E+00  0.2800E+03
     -1.032  0.0000E+00  0.2801E+03
     -0.937  0.3125E+01  0.2819E+03
     -0.842  0.1094E+02  0.2879E+03
     -0.747  0.1648E+01  0.2939E+03
     -0.652  0.1562E+01  0.2998E+03
     -0.558  0.1431E+01  0.3034E+03
     -0.463  0.2426E-01  0.3070E+03
     -0.368  0.4581E+01  0.3115E+03
     -0.273  0.2864E+01  0.3162E+03
     -0.178  0.5091E+01  0.3231E+03
     -0.083  0.5671E+01  0.3300E+03
      0.011  0.7413E+00  0.3356E+03
      0.106  0.2012E+02  0.3436E+03
      0.201  0.9594E+01  0.3510E+03
      0.296  0.4607E+01  0.3598E+03
      0.391  0.8194E+01  0.3672E+03
      0.486  0.7812E+01  0.3760E+03
      0.580  0.1229E+02  0.3848E+03
      0.675  0.5898E+01  0.3900E+03
      0.770  0.3020E+01  0.3947E+03
      0.865  0.3125E+01  0.3967E+03
      0.960  0.2822E+00  0.3985E+03
      1.054  0.0000E+00  0.3993E+03
      1.149  0.6628E-02  0.3996E+03
      1.244  0.0000E+00  0.3999E+03
      1.339  0.0000E+00  0.3999E+03
      1.434  0.0000E+00  0.4000E+03
      1.529  0.0000E+00  0.4000E+03
      1.623  0.0000E+00  0.4000E+03
      1.718  0.0000E+00  0.4000E+03
      1.813  0.0000E+00  0.4000E+03
      1.908  0.0000E+00  0.4000E+03
      2.003  0.0000E+00  0.4000E+03
      2.097  0.0000E+00  0.4000E+03
      2.192  0.0000E+00  0.4000E+03
      2.287  0.0000E+00  0.4000E+03
      2.382  0.0000E+00  0.4000E+03
      2.477  0.0000E+00  0.4000E+03
      2.572  0.0000E+00  0.4000E+03
      2.666  0.0000E+00  0.4000E+03
      2.761  0.0000E+00  0.4000E+03
      2.856  0.0000E+00  0.4000E+03
      2.951  0.6573E+00  0.4001E+03
      3.046  0.0000E+00  0.4007E+03
      3.141  0.8685E-03  0.4007E+03
      3.235  0.1558E+01  0.4026E+03
      3.330  0.7811E+00  0.4033E+03
      3.425  0.7812E+00  0.4043E+03
      3.520  0.2344E+01  0.4061E+03
      3.615  0.8129E-03  0.4068E+03
      3.709  0.6538E-04  0.4080E+03
      3.804  0.0000E+00  0.4087E+03
      3.899  0.0000E+00  0.4093E+03
      3.994  0.0000E+00  0.4107E+03
      4.089  0.0000E+00  0.4124E+03
      4.184  0.0000E+00  0.4145E+03
      4.278  0.2750E+01  0.4164E+03
      4.373  0.2180E+00  0.4187E+03
      4.468  0.9431E+01  0.4219E+03
      4.563  0.0000E+00  0.4233E+03
      4.658  0.0000E+00  0.4239E+03
      4.752  0.0000E+00  0.4240E+03
      4.847  0.0000E+00  0.4240E+03
      4.942  0.0000E+00  0.4240E+03
      5.037  0.0000E+00  0.4241E+03
      5.132  0.0000E+00  0.4242E+03
      5.227  0.1562E+01  0.4248E+03
      5.321  0.1588E+01  0.4273E+03
      5.416  0.2082E-14  0.4295E+03
      5.511  0.4053E+00  0.4337E+03
      5.606  0.6286E+01  0.4373E+03
      5.701  0.4687E+01  0.4394E+03
      5.796  0.4687E+01  0.4421E+03
      5.890  0.1291E+01  0.4437E+03
      5.985  0.6873E+01  0.4470E+03
      6.080  0.5935E+01  0.4502E+03
      6.175  0.2349E+01  0.4540E+03
      6.270  0.1420E+00  0.4585E+03
      6.364  0.1562E+01  0.4621E+03
      6.459  0.6250E+01  0.4661E+03
      6.554  0.3127E+01  0.4718E+03
      6.649  0.9072E+01  0.4763E+03
      6.744  0.2567E+01  0.4791E+03
      6.839  0.7767E+00  0.4835E+03
      6.933  0.4687E+01  0.4873E+03
      7.028  0.3103E+01  0.4900E+03
      7.123  0.1099E+02  0.4940E+03
      7.218  0.1189E+01  0.4992E+03
      7.313  0.1396E+00  0.5032E+03
      7.407  0.4688E+01  0.5079E+03
      7.502  0.1069E-02  0.5107E+03
      7.597  0.0000E+00  0.5119E+03
      7.692  0.0000E+00  0.5120E+03
      7.787  0.0000E+00  0.5120E+03
      7.882  0.0000E+00  0.5120E+03
      7.976  0.0000E+00  0.5120E+03
      8.071  0.0000E+00  0.5120E+03
      8.166  0.0000E+00  0.5120E+03
      8.261  0.0000E+00  0.5120E+03
      8.356  0.0000E+00  0.5120E+03
      8.451  0.0000E+00  0.5120E+03
      8.545  0.0000E+00  0.5120E+03
      8.640  0.0000E+00  0.5120E+03
      8.735  0.0000E+00  0.5120E+03
      8.830  0.0000E+00  0.5120E+03
      8.925  0.0000E+00  0.5120E+03
