       N       E                     dE             d eps       ncg     rms          rms(c)
DAV:   1     0.359961767045E+04    0.35996E+04   -0.18945E+05  7176   0.170E+03
DAV:   2     0.202287197824E+03   -0.33973E+04   -0.31983E+04  7968   0.354E+02
DAV:   3    -0.397902807968E+03   -0.60019E+03   -0.59109E+03  9464   0.172E+02
DAV:   4    -0.438531006018E+03   -0.40628E+02   -0.40454E+02  9656   0.491E+01
DAV:   5    -0.440039380908E+03   -0.15084E+01   -0.15061E+01  9768   0.915E+00    0.296E+01
DAV:   6    -0.419555714863E+03    0.20484E+02   -0.41483E+01  9592   0.103E+01    0.156E+01
DAV:   7    -0.417091826011E+03    0.24639E+01   -0.14569E+01 10232   0.638E+00    0.782E+00
DAV:   8    -0.416921442834E+03    0.17038E+00   -0.30709E+00  8616   0.319E+00    0.183E+00
DAV:   9    -0.416848007980E+03    0.73435E-01   -0.75914E-01  9424   0.177E+00    0.725E-01
DAV:  10    -0.416859666190E+03   -0.11658E-01   -0.10902E-01  8936   0.586E-01    0.464E-01
DAV:  11    -0.416859535281E+03    0.13091E-03   -0.14422E-02  9976   0.278E-01    0.196E-01
DAV:  12    -0.416860904491E+03   -0.13692E-02   -0.87752E-03  9712   0.150E-01    0.103E-01
DAV:  13    -0.416861071584E+03   -0.16709E-03   -0.12739E-03  8408   0.762E-02    0.719E-02
DAV:  14    -0.416861107319E+03   -0.35734E-04   -0.27765E-04  8568   0.287E-02    0.317E-02
DAV:  15    -0.416861151240E+03   -0.43922E-04   -0.14370E-04  8272   0.200E-02    0.116E-02
DAV:  16    -0.416861154909E+03   -0.36684E-05   -0.12164E-05 10648   0.651E-03    0.117E-02
DAV:  17    -0.416861154959E+03   -0.50160E-07   -0.32104E-06  8312   0.318E-03    0.535E-03
DAV:  18    -0.416861154980E+03   -0.20831E-07   -0.83373E-06  9112   0.461E-03    0.367E-03
DAV:  19    -0.416861154987E+03   -0.76689E-08   -0.83038E-07  7904   0.205E-03    0.244E-03
DAV:  20    -0.416861154984E+03    0.37326E-08   -0.45406E-07  8288   0.105E-03    0.393E-04
DAV:  21    -0.416861155027E+03   -0.43514E-07   -0.42869E-08  6432   0.464E-04    0.298E-04
DAV:  22    -0.416861155020E+03    0.69267E-08   -0.39907E-09  4864   0.235E-04
   1 F= -.41686116E+03 E0= -.41686116E+03  d E =0.000000E+00
