 vasp.5.4.1 24Jun15 (build Nov 25 2015 16:01:35) complex                        
  
 executed on         CrayXC-Intel date 2016.06.10  04:42:00
 running on   24 total cores
 distrk:  each k-point on   24 cores,    1 groups
 distr:  one band on NCORES_PER_BAND=   3 cores,    8 groups


--------------------------------------------------------------------------------------------------------


 INCAR:
 POTCAR:    PAW_PBE C 08Apr2002                   
 POTCAR:    PAW_PBE N 08Apr2002                   
 POTCAR:    PAW_PBE H 15Jun2001                   
 POTCAR:    PAW_PBE Pb_d 06Sep2000                
 POTCAR:    PAW_PBE I 08Apr2002                   
 POTCAR:    PAW_PBE C 08Apr2002                   
   VRHFIN =C: s2p2                                                              
   LEXCH  = PE                                                                  
   EATOM  =   147.1560 eV,   10.8157 Ry                                         
                                                                                
   TITEL  = PAW_PBE C 08Apr2002                                                 
   LULTRA =        F    use ultrasoft PP ?                                      
   IUNSCR =        1    unscreen: 0-lin 1-nonlin 2-no                           
   RPACOR =    1.200    partial core radius                                     
   POMASS =   12.011; ZVAL   =    4.000    mass and valenz                      
   RCORE  =    1.500    outmost cutoff radius                                   
   RWIGS  =    1.630; RWIGS  =    0.863    wigner-seitz radius (au A)           
   ENMAX  =  400.000; ENMIN  =  300.000 eV                                      
   ICORE  =        2    local potential                                         
   LCOR   =        T    correct aug charges                                     
   LPAW   =        T    paw PP                                                  
   EAUG   =  644.873                                                            
   DEXC   =    0.000                                                            
   RMAX   =    1.529    core radius for proj-oper                               
   RAUG   =    1.300    factor for augmentation sphere                          
   RDEP   =    1.501    radius for radial grids                                 
   RDEPT  =    1.300    core radius for aug-charge                              
                                                                                
   Atomic configuration                                                         
    4 entries                                                                   
     n  l   j            E        occ.                                          
     1  0  0.50      -273.3789   2.0000                                         
     2  0  0.50       -13.7508   2.0000                                         
     2  1  0.50        -5.2854   2.0000                                         
     3  2  1.50        -5.4423   0.0000                                         
   Description                                                                  
     l       E           TYP  RCUT    TYP  RCUT                                 
     0    -13.7508458     23  1.200                                             
     0     -8.2022199     23  1.200                                             
     1     -5.2854383     23  1.500                                             
     1     34.0145650     23  1.500                                             
     2     -5.4423304      7  1.500                                             
  local pseudopotential read in
  partial core-charges read in
  partial kinetic energy density read in
  atomic valenz-charges read in
  non local Contribution for L=           0  read in
    real space projection operators read in
  non local Contribution for L=           0  read in
    real space projection operators read in
  non local Contribution for L=           1  read in
    real space projection operators read in
  non local Contribution for L=           1  read in
    real space projection operators read in
    PAW grid and wavefunctions read in
 
   number of l-projection  operators is LMAX  =           4
   number of lm-projection operators is LMMAX =           8
 
 POTCAR:    PAW_PBE N 08Apr2002                   
   VRHFIN =N: s2p3                                                              
   LEXCH  = PE                                                                  
   EATOM  =   264.5486 eV,   19.4438 Ry                                         
                                                                                
   TITEL  = PAW_PBE N 08Apr2002                                                 
   LULTRA =        F    use ultrasoft PP ?                                      
   IUNSCR =        1    unscreen: 0-lin 1-nonlin 2-no                           
   RPACOR =    1.200    partial core radius                                     
   POMASS =   14.001; ZVAL   =    5.000    mass and valenz                      
   RCORE  =    1.500    outmost cutoff radius                                   
   RWIGS  =    1.400; RWIGS  =    0.741    wigner-seitz radius (au A)           
   ENMAX  =  400.000; ENMIN  =  300.000 eV                                      
   ICORE  =        2    local potential                                         
   LCOR   =        T    correct aug charges                                     
   LPAW   =        T    paw PP                                                  
   EAUG   =  627.112                                                            
   DEXC   =    0.000                                                            
   RMAX   =    1.529    core radius for proj-oper                               
   RAUG   =    1.300    factor for augmentation sphere                          
   RDEP   =    1.514    radius for radial grids                                 
   RDEPT  =    1.338    core radius for aug-charge                              
                                                                                
   Atomic configuration                                                         
    4 entries                                                                   
     n  l   j            E        occ.                                          
     1  0  0.50      -384.7179   2.0000                                         
     2  0  0.50       -18.5828   2.0000                                         
     2  1  0.50        -7.0898   3.0000                                         
     3  2  1.50        -6.8029   0.0000                                         
   Description                                                                  
     l       E           TYP  RCUT    TYP  RCUT                                 
     0    -18.5828119     23  1.200                                             
     0    -13.5018863     23  1.200                                             
     1     -7.0897853     23  1.500                                             
     1      9.5240782     23  1.500                                             
     2     -6.8029130      7  1.500                                             
  local pseudopotential read in
  partial core-charges read in
  partial kinetic energy density read in
  atomic valenz-charges read in
  non local Contribution for L=           0  read in
    real space projection operators read in
  non local Contribution for L=           0  read in
    real space projection operators read in
  non local Contribution for L=           1  read in
    real space projection operators read in
  non local Contribution for L=           1  read in
    real space projection operators read in
    PAW grid and wavefunctions read in
 
   number of l-projection  operators is LMAX  =           4
   number of lm-projection operators is LMMAX =           8
 
 POTCAR:    PAW_PBE H 15Jun2001                   
   VRHFIN =H: ultrasoft test                                                    
   LEXCH  = PE                                                                  
   EATOM  =    12.4884 eV,    0.9179 Ry                                         
                                                                                
   TITEL  = PAW_PBE H 15Jun2001                                                 
   LULTRA =        F    use ultrasoft PP ?                                      
   IUNSCR =        0    unscreen: 0-lin 1-nonlin 2-no                           
   RPACOR =    0.000    partial core radius                                     
   POMASS =    1.000; ZVAL   =    1.000    mass and valenz                      
   RCORE  =    1.100    outmost cutoff radius                                   
   RWIGS  =    0.700; RWIGS  =    0.370    wigner-seitz radius (au A)           
   ENMAX  =  250.000; ENMIN  =  200.000 eV                                      
   RCLOC  =    0.701    cutoff for local pot                                    
   LCOR   =        T    correct aug charges                                     
   LPAW   =        T    paw PP                                                  
   EAUG   =  400.000                                                            
   RMAX   =    1.123    core radius for proj-oper                               
   RAUG   =    1.200    factor for augmentation sphere                          
   RDEP   =    1.112    radius for radial grids                                 
   RDEPT  =    0.926    core radius for aug-charge                              
                                                                                
   Atomic configuration                                                         
    2 entries                                                                   
     n  l   j            E        occ.                                          
     1  0  0.50        -6.4927   1.0000                                         
     2  1  0.50        -3.4015   0.0000                                         
   Description                                                                  
     l       E           TYP  RCUT    TYP  RCUT                                 
     0     -6.4927494     23  1.100                                             
     0      6.8029130     23  1.100                                             
     1     -4.0817478     23  1.100                                             
  local pseudopotential read in
  atomic valenz-charges read in
  non local Contribution for L=           0  read in
    real space projection operators read in
  non local Contribution for L=           0  read in
    real space projection operators read in
  non local Contribution for L=           1  read in
    real space projection operators read in
    PAW grid and wavefunctions read in
 
   number of l-projection  operators is LMAX  =           3
   number of lm-projection operators is LMMAX =           5
 
 POTCAR:    PAW_PBE Pb_d 06Sep2000                
   VRHFIN =Pb:                                                                  
   LEXCH  = PE                                                                  
   EATOM  =  1661.6185 eV,  122.1255 Ry                                         
                                                                                
   TITEL  = PAW_PBE Pb_d 06Sep2000                                              
   LULTRA =        F    use ultrasoft PP ?                                      
   IUNSCR =        1    unscreen: 0-lin 1-nonlin 2-no                           
   RPACOR =    2.200    partial core radius                                     
   POMASS =  207.200; ZVAL   =   14.000    mass and valenz                      
   RCORE  =    2.500    outmost cutoff radius                                   
   RWIGS  =    3.260; RWIGS  =    1.725    wigner-seitz radius (au A)           
   ENMAX  =  237.835; ENMIN  =  178.376 eV                                      
   ICORE  =        3    local potential                                         
   LCOR   =        T    correct aug charges                                     
   LPAW   =        T    paw PP                                                  
   EAUG   =  391.914                                                            
   DEXC   =    0.000                                                            
   RMAX   =    2.565    core radius for proj-oper                               
   RAUG   =    1.300    factor for augmentation sphere                          
   RDEP   =    2.643    radius for radial grids                                 
   RDEPT  =    2.092    core radius for aug-charge                              
                                                                                
   Atomic configuration                                                         
   16 entries                                                                   
     n  l   j            E        occ.                                          
     1  0  0.50    -88091.8466   2.0000                                         
     2  0  0.50    -15753.4197   2.0000                                         
     2  1  1.50    -13508.1797   6.0000                                         
     3  0  0.50     -3781.7194   2.0000                                         
     3  1  1.50     -3138.2529   6.0000                                         
     3  2  2.50     -2483.2977  10.0000                                         
     4  0  0.50      -856.2895   2.0000                                         
     4  1  1.50      -645.4942   6.0000                                         
     4  2  2.50      -401.8768  10.0000                                         
     4  3  3.50      -132.9059  14.0000                                         
     5  0  0.50      -144.0950   2.0000                                         
     5  1  1.50       -85.7879   6.0000                                         
     5  2  2.50       -21.1769  10.0000                                         
     6  0  0.50       -12.0372   2.0000                                         
     6  1  1.50        -3.4971   2.0000                                         
     5  3  2.50        -2.7212   0.0000                                         
   Description                                                                  
     l       E           TYP  RCUT    TYP  RCUT                                 
     2    -21.1768523     23  2.500                                             
     2      1.3605826     23  2.500                                             
     0    -12.0371562     23  2.500                                             
     0     13.6058260     23  2.500                                             
     1     -3.4971339     23  2.500                                             
     1     13.6058260     23  2.500                                             
     3     -1.3605826      7  2.500                                             
  local pseudopotential read in
  partial core-charges read in
  partial kinetic energy density read in
  atomic valenz-charges read in
  non local Contribution for L=           2  read in
    real space projection operators read in
  non local Contribution for L=           2  read in
    real space projection operators read in
  non local Contribution for L=           0  read in
    real space projection operators read in
  non local Contribution for L=           0  read in
    real space projection operators read in
  non local Contribution for L=           1  read in
    real space projection operators read in
  non local Contribution for L=           1  read in
    real space projection operators read in
    PAW grid and wavefunctions read in
 
   number of l-projection  operators is LMAX  =           6
   number of lm-projection operators is LMMAX =          18
 
 POTCAR:    PAW_PBE I 08Apr2002                   
   VRHFIN =I : s2p5                                                             
   LEXCH  = PE                                                                  
   EATOM  =   315.8678 eV,   23.2156 Ry                                         
                                                                                
   TITEL  = PAW_PBE I 08Apr2002                                                 
   LULTRA =        F    use ultrasoft PP ?                                      
   IUNSCR =        1    unscreen: 0-lin 1-nonlin 2-no                           
   RPACOR =    2.200    partial core radius                                     
   POMASS =  126.904; ZVAL   =    7.000    mass and valenz                      
   RCORE  =    2.300    outmost cutoff radius                                   
   RWIGS  =    2.810; RWIGS  =    1.487    wigner-seitz radius (au A)           
   ENMAX  =  175.647; ENMIN  =  131.735 eV                                      
   ICORE  =        3    local potential                                         
   LCOR   =        T    correct aug charges                                     
   LPAW   =        T    paw PP                                                  
   EAUG   =  370.139                                                            
   DEXC   =    0.000                                                            
   RMAX   =    2.359    core radius for proj-oper                               
   RAUG   =    1.300    factor for augmentation sphere                          
   RDEP   =    2.392    radius for radial grids                                 
   RDEPT  =    2.170    core radius for aug-charge                              
                                                                                
   Atomic configuration                                                         
   13 entries                                                                   
     n  l   j            E        occ.                                          
     1  0  0.50    -32976.3739   2.0000                                         
     2  0  0.50     -5094.5933   2.0000                                         
     2  1  1.50     -4572.0131   6.0000                                         
     3  0  0.50     -1028.2813   2.0000                                         
     3  1  1.50      -859.0250   6.0000                                         
     3  2  2.50      -605.7620  10.0000                                         
     4  0  0.50      -180.5540   2.0000                                         
     4  1  1.50      -127.5306   6.0000                                         
     4  2  2.50       -50.2720  10.0000                                         
     5  0  0.50       -17.4058   2.0000                                         
     5  1  0.50        -7.0851   5.0000                                         
     5  2  1.50        -7.0750   0.0000                                         
     4  3  2.50        -7.0750   0.0000                                         
   Description                                                                  
     l       E           TYP  RCUT    TYP  RCUT                                 
     0    -17.4058016     23  2.300                                             
     0    -18.7663842     23  2.300                                             
     1     -7.0850686     23  2.300                                             
     1     -4.2150896     23  2.300                                             
     2     -7.0750295     23  2.300                                             
     3     -1.3605826     23  2.300                                             
  local pseudopotential read in
  partial core-charges read in
  partial kinetic energy density read in
  atomic valenz-charges read in
  non local Contribution for L=           0  read in
    real space projection operators read in
  non local Contribution for L=           0  read in
    real space projection operators read in
  non local Contribution for L=           1  read in
    real space projection operators read in
  non local Contribution for L=           1  read in
    real space projection operators read in
  non local Contribution for L=           2  read in
    real space projection operators read in
    PAW grid and wavefunctions read in
 
   number of l-projection  operators is LMAX  =           5
   number of lm-projection operators is LMMAX =          13
 

 ----------------------------------------------------------------------------- 
|                                                                             |
|  ADVICE TO THIS USER RUNNING 'VASP/VAMP'   (HEAR YOUR MASTER'S VOICE ...):  |
|                                                                             |
|      You have a (more or less) 'large supercell' and for larger cells       |
|      it might be more efficient to use real space projection opertators     |
|      So try LREAL= Auto  in the INCAR   file.                               |
|      Mind: At the moment your POTCAR file does not contain real space       |
|       projectors, and has to be modified,  BUT if you                       |
|      want to do an extremely  accurate calculation you might also keep the  |
|      reciprocal projection scheme          (i.e. LREAL=.FALSE.)             |
|                                                                             |
 ----------------------------------------------------------------------------- 


 ----------------------------------------------------------------------------- 
|                                                                             |
|  ADVICE TO THIS USER RUNNING 'VASP/VAMP'   (HEAR YOUR MASTER'S VOICE ...):  |
|                                                                             |
|      You enforced a specific xc-type in the INCAR file,                     |
|      a different type was found on the POTCAR file                          |
|          I HOPE YOU KNOW, WHAT YOU ARE  DOING                               |
|                                                                             |
 ----------------------------------------------------------------------------- 

  PAW_PBE C 08Apr2002                   :
 energy of atom  1       EATOM= -147.1560
 kinetic energy error for atom=    0.0032 (will be added to EATOM!!)
  PAW_PBE N 08Apr2002                   :
 energy of atom  2       EATOM= -264.5486
 kinetic energy error for atom=    0.0061 (will be added to EATOM!!)
  PAW_PBE H 15Jun2001                   :
 energy of atom  3       EATOM=  -12.4884
 kinetic energy error for atom=    0.0002 (will be added to EATOM!!)
  PAW_PBE Pb_d 06Sep2000                :
 energy of atom  4       EATOM=-1661.6185
 kinetic energy error for atom=    0.0012 (will be added to EATOM!!)
  PAW_PBE I 08Apr2002                   :
 energy of atom  5       EATOM= -315.8678
 kinetic energy error for atom=    0.0003 (will be added to EATOM!!)
 
 
 POSCAR: C N H Pb I                              
  positions in direct lattice
  No initial velocities read in
 exchange correlation table for  LEXCH =       14
   RHO(1)=    0.500       N(1)  =     2000
   RHO(2)=  100.500       N(2)  =     4000
 


--------------------------------------------------------------------------------------------------------


 ion  position               nearest neighbor table
   1  0.198  0.250  0.229-  25 1.10  33 1.10  17 1.10   9 1.49
   2  0.696  0.250  0.229-  26 1.10  34 1.10  18 1.10  10 1.49
   3  0.196  0.750  0.229-  27 1.10  35 1.10  19 1.10  11 1.49
   4  0.698  0.750  0.229-  28 1.10  36 1.10  20 1.10  12 1.49
   5  0.196  0.250  0.729-  29 1.10  37 1.10  21 1.10  13 1.49
   6  0.698  0.250  0.729-  30 1.10  38 1.10  22 1.10  14 1.49
   7  0.198  0.750  0.729-  31 1.10  39 1.10  23 1.10  15 1.49
   8  0.696  0.750  0.729-  32 1.10  40 1.10  24 1.10  16 1.49
   9  0.309  0.250  0.264-  41 1.05  49 1.05  57 1.05   1 1.49
  10  0.800  0.250  0.284-  58 1.04  42 1.05  50 1.05   2 1.49
  11  0.300  0.750  0.284-  59 1.04  43 1.05  51 1.05   3 1.49
  12  0.809  0.750  0.264-  44 1.05  52 1.05  60 1.05   4 1.49
  13  0.300  0.250  0.784-  61 1.04  45 1.05  53 1.05   5 1.49
  14  0.809  0.250  0.764-  46 1.05  54 1.05  62 1.05   6 1.49
  15  0.309  0.750  0.764-  47 1.05  55 1.05  63 1.05   7 1.49
  16  0.800  0.750  0.784-  64 1.04  48 1.05  56 1.05   8 1.49
  17  0.197  0.250  0.142-   1 1.10
  18  0.713  0.250  0.144-   2 1.10
  19  0.213  0.750  0.144-   3 1.10
  20  0.697  0.750  0.142-   4 1.10
  21  0.213  0.250  0.644-   5 1.10
  22  0.697  0.250  0.642-   6 1.10
  23  0.197  0.750  0.642-   7 1.10
  24  0.713  0.750  0.644-   8 1.10
  25  0.157  0.322  0.259-   1 1.10
  26  0.652  0.322  0.252-   2 1.10
  27  0.152  0.822  0.252-   3 1.10
  28  0.657  0.822  0.259-   4 1.10
  29  0.152  0.322  0.752-   5 1.10
  30  0.657  0.322  0.759-   6 1.10
  31  0.157  0.822  0.759-   7 1.10
  32  0.652  0.822  0.752-   8 1.10
  33  0.157  0.177  0.259-   1 1.10
  34  0.652  0.177  0.252-   2 1.10
  35  0.152  0.677  0.252-   3 1.10
  36  0.657  0.677  0.259-   4 1.10
  37  0.152  0.177  0.752-   5 1.10
  38  0.657  0.177  0.759-   6 1.10
  39  0.157  0.677  0.759-   7 1.10
  40  0.652  0.677  0.752-   8 1.10
  41  0.351  0.318  0.237-   9 1.05
  42  0.845  0.318  0.265-  10 1.05
  43  0.345  0.818  0.265-  11 1.05
  44  0.851  0.818  0.237-  12 1.05
  45  0.345  0.318  0.765-  13 1.05
  46  0.851  0.318  0.737-  14 1.05
  47  0.351  0.818  0.737-  15 1.05
  48  0.845  0.818  0.765-  16 1.05
  49  0.351  0.182  0.237-   9 1.05
  50  0.845  0.182  0.265-  10 1.05
  51  0.345  0.682  0.265-  11 1.05
  52  0.851  0.682  0.237-  12 1.05
  53  0.345  0.182  0.765-  13 1.05
  54  0.851  0.182  0.737-  14 1.05
  55  0.351  0.682  0.737-  15 1.05
  56  0.845  0.682  0.765-  16 1.05
  57  0.317  0.250  0.346-   9 1.05
  58  0.790  0.250  0.365-  10 1.04
  59  0.290  0.750  0.365-  11 1.04
  60  0.817  0.750  0.346-  12 1.05
  61  0.290  0.250  0.865-  13 1.04
  62  0.817  0.250  0.846-  14 1.05
  63  0.317  0.750  0.846-  15 1.05
  64  0.790  0.750  0.865-  16 1.04
  65  0.472  0.499  0.489-  90 3.09  87 3.14  85 3.16  77 3.17  73 3.22  89 3.26
  66  0.972  0.501  0.489-  89 3.09  86 3.14  88 3.16  78 3.17  74 3.22  90 3.26
  67  0.472  0.001  0.489-  92 3.09  87 3.14  85 3.16  79 3.17  75 3.22  91 3.26
  68  0.972  0.999  0.489-  91 3.09  86 3.14  88 3.16  80 3.17  76 3.22  92 3.26
  69  0.472  0.501  0.989-  94 3.09  81 3.14  83 3.16  73 3.17  77 3.22  93 3.26
  70  0.972  0.499  0.989-  93 3.09  84 3.14  82 3.16  74 3.17  78 3.22  94 3.26
  71  0.472  0.999  0.989-  96 3.09  81 3.14  83 3.16  75 3.17  79 3.22  95 3.26
  72  0.972  0.001  0.989-  95 3.09  84 3.14  82 3.16  76 3.17  80 3.22  96 3.26
  73  0.455  0.503  0.238-  69 3.17  65 3.22
  74  0.955  0.497  0.238-  70 3.17  66 3.22
  75  0.455  0.997  0.238-  71 3.17  67 3.22
  76  0.955  0.003  0.238-  72 3.17  68 3.22
  77  0.455  0.497  0.738-  65 3.17  69 3.22
  78  0.955  0.503  0.738-  66 3.17  70 3.22
  79  0.455  0.003  0.738-  67 3.17  71 3.22
  80  0.955  0.997  0.738-  68 3.17  72 3.22
  81  0.470  0.250  0.011-  71 3.14  69 3.14
  82  0.929  0.250  0.013-  72 3.16  70 3.16
  83  0.429  0.750  0.013-  69 3.16  71 3.16
  84  0.970  0.750  0.011-  70 3.14  72 3.14
  85  0.429  0.250  0.513-  67 3.16  65 3.16
  86  0.970  0.250  0.511-  68 3.14  66 3.14
  87  0.470  0.750  0.511-  65 3.14  67 3.14
  88  0.929  0.750  0.513-  66 3.16  68 3.16
  89  0.216  0.523  0.461-  66 3.09  65 3.26
  90  0.716  0.477  0.461-  65 3.09  66 3.26
  91  0.216  0.977  0.461-  68 3.09  67 3.26
  92  0.716  0.023  0.461-  67 3.09  68 3.26
  93  0.216  0.477  0.961-  70 3.09  69 3.26
  94  0.716  0.523  0.961-  69 3.09  70 3.26
  95  0.216  0.023  0.961-  72 3.09  71 3.26
  96  0.716  0.977  0.961-  71 3.09  72 3.26
 
  LATTYP: Found a triclinic cell.
 ALAT       =    17.8238589327
 B/A-ratio  =     0.6989248630
 C/A-ratio  =     1.0156975818
 COS(alpha) =     0.0001355172
 COS(beta)  =     0.5146378593
 COS(gamma) =     0.6988877578
  
  Lattice vectors:
  
 A1 = (  -0.1406063366, -12.4576271275, -12.7466742118)
 A2 = (  -0.0011956322, -12.4575380825,   0.0007464135)
 A3 = ( -12.7162481321,  -0.0020049566, -12.8856194186)


Analysis of symmetry for initial positions (statically):
=====================================================================
 Subroutine PRICEL returns following result:
 
  LATTYP: Found a triclinic cell.
 ALAT       =     8.8524544993
 B/A-ratio  =     1.4072411401
 C/A-ratio  =     1.0225215175
 COS(alpha) =     0.0001355172
 COS(beta)  =     0.5046167836
 COS(gamma) =     0.7037964938
  
  Lattice vectors:
  
 A1 = (   6.2890165300,   6.2297269971,   0.0687261899)
 A2 = (   0.0011956322,  12.4575380825,  -0.0007464135)
 A3 = (   6.3581240661,   0.0010024783,   6.4428097093)
 
   4 primitive cells build up your supercell.
 

 Routine SETGRP: Setting up the symmetry group for a 
 triclinic supercell.


 Subroutine GETGRP returns: Found  1 space group operations
 (whereof  1 operations were pure point group operations)
 out of a pool of  2 trial point group operations.


The static configuration has the point symmetry C_1 .


Analysis of symmetry for dynamics (positions and initial velocities):
=====================================================================
 Subroutine PRICEL returns following result:
 
  LATTYP: Found a triclinic cell.
 ALAT       =     8.8524544993
 B/A-ratio  =     1.4072411401
 C/A-ratio  =     1.0225215175
 COS(alpha) =     0.0001355172
 COS(beta)  =     0.5046167836
 COS(gamma) =     0.7037964938
  
  Lattice vectors:
  
 A1 = (   6.2890165300,   6.2297269971,   0.0687261899)
 A2 = (   0.0011956322,  12.4575380825,  -0.0007464135)
 A3 = (   6.3581240661,   0.0010024783,   6.4428097093)
 
   4 primitive cells build up your supercell.
 

 Routine SETGRP: Setting up the symmetry group for a 
 triclinic supercell.


 Subroutine GETGRP returns: Found  1 space group operations
 (whereof  1 operations were pure point group operations)
 out of a pool of  2 trial point group operations.


The dynamic configuration has the point symmetry C_1 .


 Subroutine INISYM returns: Found  1 space group operations
 (whereof  1 operations are pure point group operations),
 and found     4 'primitive' translations

 
 
 KPOINTS: Automatic 3x3x3                         

Automatic generation of k-mesh.
Space group operators:
 irot       det(A)        alpha          n_x          n_y          n_z        tau_x        tau_y        tau_z
    1     1.000000     0.000000     1.000000     0.000000     0.000000     0.000000     0.000000     0.000000
 
 Subroutine IBZKPT returns following result:
 ===========================================
 
 Found     14 irreducible k-points:
 
 Following reciprocal coordinates:
            Coordinates               Weight
  0.000000  0.000000  0.000000      1.000000
  0.333333 -0.000000 -0.000000      2.000000
  0.000000  0.333333 -0.000000      2.000000
  0.333333  0.333333  0.000000      2.000000
 -0.333333  0.333333  0.000000      2.000000
  0.000000  0.000000  0.333333      2.000000
  0.333333  0.000000  0.333333      2.000000
 -0.333333  0.000000  0.333333      2.000000
  0.000000  0.333333  0.333333      2.000000
  0.333333  0.333333  0.333333      2.000000
 -0.333333  0.333333  0.333333      2.000000
  0.000000 -0.333333  0.333333      2.000000
  0.333333 -0.333333  0.333333      2.000000
 -0.333333 -0.333333  0.333333      2.000000
 
 Following cartesian coordinates:
            Coordinates               Weight
  0.000000  0.000000  0.000000      1.000000
  0.026507 -0.000003 -0.000290      2.000000
 -0.000004  0.026758 -0.000000      2.000000
  0.026503  0.026755 -0.000290      2.000000
 -0.026511  0.026760  0.000290      2.000000
 -0.000287  0.000002  0.026152      2.000000
  0.026220 -0.000001  0.025862      2.000000
 -0.026794  0.000004  0.026442      2.000000
 -0.000291  0.026759  0.026152      2.000000
  0.026215  0.026757  0.025862      2.000000
 -0.026798  0.026762  0.026442      2.000000
 -0.000283 -0.026756  0.026152      2.000000
  0.026224 -0.026759  0.025862      2.000000
 -0.026790 -0.026753  0.026442      2.000000
 


--------------------------------------------------------------------------------------------------------




 Dimension of arrays:
   k-points           NKPTS =     14   k-points in BZ     NKDIM =     14   number of bands    NBANDS=    256
   number of dos      NEDOS =    301   number of ions     NIONS =     96
   non local maximal  LDIM  =      6   non local SUM 2l+1 LMDIM =     18
   total plane-waves  NPLWV = ******
   max r-space proj   IRMAX =      1   max aug-charges    IRDMAX= 314103
   dimension x,y,z NGX =   112 NGY =  108 NGZ =  112
   dimension x,y,z NGXF=   224 NGYF=  216 NGZF=  224
   support grid    NGXF=   448 NGYF=  432 NGZF=  448
   ions per type =               8   8  48   8  24
 NGX,Y,Z   is equivalent  to a cutoff of  14.80, 14.41, 14.61 a.u.
 NGXF,Y,Z  is equivalent  to a cutoff of  29.61, 28.83, 29.21 a.u.


 I would recommend the setting:
   dimension x,y,z NGX =   109 NGY =  107 NGZ =  110
 SYSTEM =  MAPbI3-Cubic                            
 POSCAR =  C N H Pb I                              

 Startparameter for this run:
   NWRITE =      2    write-flag & timer
   PREC   = accura    normal or accurate (medium, high low for compatibility)
   ISTART =      0    job   : 0-new  1-cont  2-samecut
   ICHARG =      2    charge: 1-file 2-atom 10-const
   ISPIN  =      1    spin polarized calculation?
   LNONCOLLINEAR =      F non collinear calculations
   LSORBIT =      F    spin-orbit coupling
   INIWAV =      1    electr: 0-lowe 1-rand  2-diag
   LASPH  =      F    aspherical Exc in radial PAW
   METAGGA=      F    non-selfconsistent MetaGGA calc.

 Electronic Relaxation 1
   ENCUT  =  700.0 eV  51.45 Ry    7.17 a.u.  27.13 26.87 27.50*2*pi/ulx,y,z
   ENINI  =  700.0     initial cutoff
   ENAUG  =  644.9 eV  augmentation charge cutoff
   NELM   =     60;   NELMIN=  2; NELMDL= -5     # of ELM steps 
   EDIFF  = 0.1E-07   stopping-criterion for ELM
   LREAL  =      F    real-space projection
   NLSPLINE    = F    spline interpolate recip. space projectors
   LCOMPAT=      F    compatible to vasp.4.4
   GGA_COMPAT  = T    GGA compatible to vasp.4.4-vasp.4.6
   LMAXPAW     = -100 max onsite density
   LMAXMIX     =    2 max onsite mixed and CHGCAR
   VOSKOWN=      0    Vosko Wilk Nusair interpolation
   ROPT   =    0.00000   0.00000   0.00000   0.00000
   ROPT   =    0.00000
 Ionic relaxation
   EDIFFG = 0.1E-06   stopping-criterion for IOM
   NSW    =      0    number of steps for IOM
   NBLOCK =      1;   KBLOCK =      1    inner block; outer block 
   IBRION =     -1    ionic relax: 0-MD 1-quasi-New 2-CG
   NFREE  =      0    steps in history (QN), initial steepest desc. (CG)
   ISIF   =      2    stress and relaxation
   IWAVPR =     10    prediction:  0-non 1-charg 2-wave 3-comb
   ISYM   =      2    0-nonsym 1-usesym 2-fastsym
   LCORR  =      T    Harris-Foulkes like correction to forces

   POTIM  = 0.5000    time-step for ionic-motion
   TEIN   =    0.0    initial temperature
   TEBEG  =    0.0;   TEEND  =   0.0 temperature during run
   SMASS  =  -3.00    Nose mass-parameter (am)
   estimated Nose-frequenzy (Omega)   =  0.10E-29 period in steps =****** mass=  -0.362E-26a.u.
   SCALEE = 1.0000    scale energy and forces
   NPACO  =    256;   APACO  = 16.0  distance and # of slots for P.C.
   PSTRESS=    0.0 pullay stress

  Mass of Ions in am
   POMASS =  12.01 14.00  1.00207.20126.90
  Ionic Valenz
   ZVAL   =   4.00  5.00  1.00 14.00  7.00
  Atomic Wigner-Seitz radii
   RWIGS  =  -1.00 -1.00 -1.00 -1.00 -1.00
  virtual crystal weights 
   VCA    =   1.00  1.00  1.00  1.00  1.00
   NELECT =     400.0000    total number of electrons
   NUPDOWN=      -1.0000    fix difference up-down

 DOS related values:
   EMIN   =  10.00;   EMAX   =-10.00  energy-range for DOS
   EFERMI =   0.00
   ISMEAR =     0;   SIGMA  =   0.00  broadening in eV -4-tet -1-fermi 0-gaus

 Electronic relaxation 2 (details)
   IALGO  =     38    algorithm
   LDIAG  =      T    sub-space diagonalisation (order eigenvalues)
   LSUBROT=      F    optimize rotation matrix (better conditioning)
   TURBO    =      0    0=normal 1=particle mesh
   IRESTART =      0    0=no restart 2=restart with 2 vectors
   NREBOOT  =      0    no. of reboots
   NMIN     =      0    reboot dimension
   EREF     =   0.00    reference energy to select bands
   IMIX   =      4    mixing-type and parameters
     AMIX     =   0.40;   BMIX     =  1.00
     AMIX_MAG =   1.60;   BMIX_MAG =  1.00
     AMIN     =   0.10
     WC   =   100.;   INIMIX=   1;  MIXPRE=   1;  MAXMIX= -45

 Intra band minimization:
   WEIMIN = 0.0000     energy-eigenvalue tresh-hold
   EBREAK =  0.98E-11  absolut break condition
   DEPER  =   0.30     relativ break condition  

   TIME   =   0.40     timestep for ELM

  volume/ion in A,a.u.               =      20.80       140.38
  Fermi-wavevector in a.u.,A,eV,Ry     =   0.957863  1.810099 12.483376  0.917502
  Thomas-Fermi vector in A             =   2.086919
 
 Write flags
   LWAVE  =      F    write WAVECAR
   LCHARG =      F    write CHGCAR
   LVTOT  =      F    write LOCPOT, total local potential
   LVHAR  =      F    write LOCPOT, Hartree potential only
   LELF   =      F    write electronic localiz. function (ELF)
   LORBIT =      0    0 simple, 1 ext, 2 COOP (PROOUT)


 Dipole corrections
   LMONO  =      F    monopole corrections only (constant potential shift)
   LDIPOL =      F    correct potential (dipole corrections)
   IDIPOL =      0    1-x, 2-y, 3-z, 4-all directions 
   EPSILON=  1.0000000 bulk dielectric constant

 Exchange correlation treatment:
   GGA     =    PS    GGA type
   LEXCH   =    14    internal setting for exchange type
   VOSKOWN=      0    Vosko Wilk Nusair interpolation
   LHFCALC =     F    Hartree Fock is set to
   LHFONE  =     F    Hartree Fock one center treatment
   AEXX    =    0.0000 exact exchange contribution

 Linear response parameters
   LEPSILON=     F    determine dielectric tensor
   LRPA    =     F    only Hartree local field effects (RPA)
   LNABLA  =     F    use nabla operator in PAW spheres
   LVEL    =     F    velocity operator in full k-point grid
   LINTERFAST=   F  fast interpolation
   KINTER  =     0    interpolate to denser k-point grid
   CSHIFT  =0.1000    complex shift for real part using Kramers Kronig
   OMEGAMAX=  -1.0    maximum frequency
   DEG_THRESHOLD= 0.2000000E-02 threshold for treating states as degnerate
   RTIME   =    0.100 relaxation time in fs

 Orbital magnetization related:
   ORBITALMAG=     F  switch on orbital magnetization
   LCHIMAG   =     F  perturbation theory with respect to B field
   DQ        =  0.001000  dq finite difference perturbation B field



--------------------------------------------------------------------------------------------------------


 Static calculation
 charge density and potential will be updated during run
 non-spin polarized calculation
 Variant of blocked Davidson
 Davidson routine will perform the subspace rotation
 perform sub-space diagonalisation
    after iterative eigenvector-optimisation
 modified Broyden-mixing scheme, WC =      100.0
 initial mixing is a Kerker type mixing with AMIX =  0.4000 and BMIX =      1.0000
 Hartree-type preconditioning will be used
 using additional bands           56
 reciprocal scheme for non local part
 use partial core corrections
 calculate Harris-corrections to forces 
   (improved forces if not selfconsistent)
 use gradient corrections 
 use of overlap-Matrix (Vanderbilt PP)
 Gauss-broadening in eV      SIGMA  =   0.00


--------------------------------------------------------------------------------------------------------


  energy-cutoff  :      700.00
  volume of cell :     1996.98
      direct lattice vectors                 reciprocal lattice vectors
    12.576837428  0.001915912  0.138198793     0.079520802 -0.000007684 -0.000869670
     0.001195632 12.457538083 -0.000746413    -0.000012224  0.080272684 -0.000000427
     0.139410704  0.000089045 12.747420625    -0.000862111  0.000004784  0.078456671

  length of vectors
    12.577596840 12.457538162 12.748182927     0.079525558  0.080272685  0.078461408


 
 k-points in units of 2pi/SCALE and weight: Automatic 3x3x3                         
   0.00000000  0.00000000  0.00000000       0.037
   0.02650693 -0.00000256 -0.00028989       0.074
  -0.00000407  0.02675756 -0.00000014       0.074
   0.02650286  0.02675500 -0.00029003       0.074
  -0.02651101  0.02676012  0.00028975       0.074
  -0.00028737  0.00000159  0.02615222       0.074
   0.02621956 -0.00000097  0.02586233       0.074
  -0.02679430  0.00000416  0.02644211       0.074
  -0.00029144  0.02675916  0.02615208       0.074
   0.02621549  0.02675659  0.02586219       0.074
  -0.02679838  0.02676172  0.02644197       0.074
  -0.00028330 -0.02675597  0.02615237       0.074
   0.02622364 -0.02675853  0.02586248       0.074
  -0.02679023 -0.02675341  0.02644226       0.074
 
 k-points in reciprocal lattice and weights: Automatic 3x3x3                         
   0.00000000  0.00000000  0.00000000       0.037
   0.33333333 -0.00000000 -0.00000000       0.074
   0.00000000  0.33333333 -0.00000000       0.074
   0.33333333  0.33333333  0.00000000       0.074
  -0.33333333  0.33333333  0.00000000       0.074
   0.00000000  0.00000000  0.33333333       0.074
   0.33333333  0.00000000  0.33333333       0.074
  -0.33333333  0.00000000  0.33333333       0.074
   0.00000000  0.33333333  0.33333333       0.074
   0.33333333  0.33333333  0.33333333       0.074
  -0.33333333  0.33333333  0.33333333       0.074
   0.00000000 -0.33333333  0.33333333       0.074
   0.33333333 -0.33333333  0.33333333       0.074
  -0.33333333 -0.33333333  0.33333333       0.074
 
 position of ions in fractional coordinates (direct lattice) 
   0.19753026  0.24986605  0.22867303
   0.69645800  0.24995050  0.22915768
   0.19645800  0.74995050  0.22915768
   0.69753026  0.74986605  0.22867303
   0.19645800  0.24995050  0.72915768
   0.69753026  0.24986605  0.72867303
   0.19753026  0.74986605  0.72867303
   0.69645800  0.74995050  0.72915768
   0.30949437  0.24997651  0.26370093
   0.79958007  0.25003077  0.28406766
   0.29958007  0.75003077  0.28406766
   0.80949437  0.74997651  0.26370093
   0.29958007  0.25003077  0.78406766
   0.80949437  0.24997651  0.76370093
   0.30949437  0.74997651  0.76370093
   0.79958007  0.75003077  0.78406766
   0.19738504  0.24977908  0.14206154
   0.71276529  0.24986311  0.14371571
   0.21276529  0.74986311  0.14371571
   0.69738504  0.74977908  0.14206154
   0.21276529  0.24986311  0.64371571
   0.69738504  0.24977908  0.64206154
   0.19738504  0.74977908  0.64206154
   0.71276529  0.74986311  0.64371571
   0.15714247  0.32224920  0.25901400
   0.65153315  0.32245517  0.25201664
   0.15153315  0.82245517  0.25201664
   0.65714247  0.82224920  0.25901400
   0.15153315  0.32245517  0.75201664
   0.65714247  0.32224920  0.75901400
   0.15714247  0.82224920  0.75901400
   0.65153315  0.82245517  0.75201664
   0.15728309  0.17748036  0.25914092
   0.65160258  0.17747178  0.25216049
   0.15160258  0.67747178  0.25216049
   0.65728309  0.67748036  0.25914092
   0.15160258  0.17747178  0.75216049
   0.65728309  0.17748036  0.75914092
   0.15728309  0.67748036  0.75914092
   0.65160258  0.67747178  0.75216049
   0.35112941  0.31779428  0.23685491
   0.84513974  0.31795429  0.26465807
   0.34513974  0.81795429  0.26465807
   0.85112941  0.81779428  0.23685491
   0.34513974  0.31795429  0.76465807
   0.85112941  0.31779428  0.73685491
   0.35112941  0.81779428  0.73685491
   0.84513974  0.81795429  0.76465807
   0.35124255  0.18216038  0.23695209
   0.84516805  0.18204940  0.26482971
   0.34516805  0.68204940  0.26482971
   0.85124255  0.68216038  0.23695209
   0.34516805  0.18204940  0.76482971
   0.85124255  0.18216038  0.73695209
   0.35124255  0.68216038  0.73695209
   0.84516805  0.68204940  0.76482971
   0.31658400  0.25003768  0.34573571
   0.78975615  0.25014937  0.36548278
   0.28975615  0.75014937  0.36548278
   0.81658400  0.75003768  0.34573571
   0.28975615  0.25014937  0.86548278
   0.81658400  0.25003768  0.84573571
   0.31658400  0.75003768  0.84573571
   0.78975615  0.75014937  0.86548278
   0.47243920  0.49866510  0.48880792
   0.97244435  0.50131449  0.48881497
   0.47244435  0.00131449  0.48881497
   0.97243920  0.99866510  0.48880792
   0.47244435  0.50131449  0.98881497
   0.97243920  0.49866510  0.98880792
   0.47243920  0.99866510  0.98880792
   0.97244435  0.00131449  0.98881497
   0.45471275  0.50273324  0.23757431
   0.95477460  0.49724886  0.23757117
   0.45477460  0.99724886  0.23757117
   0.95471275  0.00273324  0.23757431
   0.45477460  0.49724886  0.73757117
   0.95471275  0.50273324  0.73757431
   0.45471275  0.00273324  0.73757431
   0.95477460  0.99724886  0.73757117
   0.46996762  0.24997413  0.01092386
   0.92930326  0.24998389  0.01274058
   0.42930326  0.74998389  0.01274058
   0.96996762  0.74997413  0.01092386
   0.42930326  0.24998389  0.51274058
   0.96996762  0.24997413  0.51092386
   0.46996762  0.74997413  0.51092386
   0.92930326  0.74998389  0.51274058
   0.21616640  0.52332060  0.46126405
   0.71617648  0.47667427  0.46121535
   0.21617648  0.97667427  0.46121535
   0.71616640  0.02332060  0.46126405
   0.21617648  0.47667427  0.96121535
   0.71616640  0.52332060  0.96126405
   0.21616640  0.02332060  0.96126405
   0.71617648  0.97667427  0.96121535
 
 position of ions in cartesian coordinates  (Angst):
   2.51648423  3.11311461  2.94210322
   8.79148494  3.11512267  3.01723242
   2.50366404  9.34293375  2.94775982
   8.80550076  9.34284161  3.01082941
   2.57277158  3.11420923  9.32184334
   8.87460830  3.11411709  9.38491293
   2.58678740  9.34192818  9.31544033
   8.86178811  9.34393623  9.39056953
   3.92952200  3.11470839  3.40409182
  10.09608953  3.11632503  3.73144438
   3.80826863  9.34413611  3.66197178
  10.21853853  9.34443538  3.47281801
   3.87737617  3.11541159 10.03605530
  10.28764607  3.11571087  9.84690152
   3.99982517  9.34352195  9.77742892
  10.16639270  9.34513859 10.10478149
   2.50258311  3.11202323  1.83801013
   8.98466748  3.11405762  1.93032145
   2.69684658  9.34186871  1.86084884
   8.79159964  9.34175023  1.90673632
   2.76595412  3.11314419  8.23493236
   8.86070717  3.11302571  8.28081984
   2.57288628  9.34083680  8.21134723
   9.05497065  9.34287119  8.30365855
   2.01284987  4.01475582  3.32323680
   8.22974582  4.01826832  3.30236248
   1.94192492 10.24607941  3.23288988
   8.30186640 10.24448281  3.39196299
   2.01103246  4.01735489  9.60697339
   8.37097394  4.01575829  9.76604651
   2.08315304 10.24356938  9.69657391
   8.30004899 10.24708189  9.67569958
   2.01446309  2.21129279  3.32498217
   8.23046573  2.21213238  3.30431409
   1.94264483  8.43994347  3.23484149
   8.30347962  8.44101978  3.39370836
   2.01175237  2.21121895  9.60892501
   8.37258715  2.21229526  9.76779188
   2.08476625  8.44010635  9.69831928
   8.30076890  8.44094595  9.67765120
   4.44949759  3.95962818  3.06757765
  10.66646149  3.96257040  3.49026770
   4.37864059 10.19038148  3.42079510
  10.73851412 10.18935517  3.13630384
   4.44774813  3.96165696  9.79487862
  10.80762165  3.96063065  9.51038736
   4.51980076 10.18844174  9.44091476
  10.73676466 10.19138396  9.86360481
   4.45077187  2.26996390  3.06893331
  10.66667896  2.26953014  3.49256100
   4.37885807  8.49734123  3.42308840
  10.73978840  8.49969089  3.13765950
   4.44796560  2.26861671  9.79717192
  10.80889594  2.27096637  9.51174302
   4.52107504  8.49877746  9.44227042
  10.73698213  8.49834371  9.86589811
   4.03012370  3.11549120  4.45080344
   9.98388596  3.11779093  4.76791933
   3.69606507  9.34560201  4.69844673
  10.31914023  9.34521819  4.51952963
   3.76517260  3.11687749 11.07253025
  10.38824777  3.11649367 10.89361315
   4.10042687  9.34430476 10.82414054
  10.05418913  9.34660449 11.14125644
   6.01053233  6.21308816  6.29595853
  12.29901990  6.24705098  6.36514648
   6.01000337  0.01732398  6.29642029
  12.29954886 12.44281516  6.36468472
   6.08030654  6.24613755 12.66975740
  12.36865640  6.21409064 12.73876824
   6.08083550 12.44190173 12.66929563
  12.36812744  0.01832646 12.73923000
   5.75256977  6.26371084  3.09092515
  12.04175945  6.19634701  3.15999724
   5.75393855 12.42415809  3.09052464
  12.04039067  0.03589975  3.16039776
   5.82304609  6.19543357  9.46460815
  12.11069383  6.26471331  9.53373486
   5.82167730  0.03498632  9.46500867
  12.11206262 12.42516057  9.53333434
   5.91252809  3.11496359  0.20401339
  11.68977112  3.11596548  0.29065149
   5.40195022  9.34377657  0.22117889
  12.20154462  9.34469059  0.27273958
   5.47105776  3.11505205  6.59526241
  12.27065215  3.11596607  6.64682310
   5.98283125  9.34377715  6.57735050
  11.76007429  9.34477905  6.66398860
   2.78362051  6.51974152  5.90941021
   9.07210341  5.93960112  5.97792501
   2.78428251 12.16741221  5.90845241
   9.07144141  0.29193043  5.97888282
   2.85339005  5.93868769 12.28253593
   9.14174458  6.52074400 12.35221992
   2.85272805  0.29101700 12.28349373
   9.14240658 12.16841468 12.35126212
 


--------------------------------------------------------------------------------------------------------


 k-point  1 :   0.0000 0.0000 0.0000  plane waves:   84007
 k-point  2 :   0.3333-0.0000-0.0000  plane waves:   84003
 k-point  3 :   0.0000 0.3333-0.0000  plane waves:   83995
 k-point  4 :   0.3333 0.3333 0.0000  plane waves:   84018
 k-point  5 :  -0.3333 0.3333 0.0000  plane waves:   84019
 k-point  6 :   0.0000 0.0000 0.3333  plane waves:   83960
 k-point  7 :   0.3333 0.0000 0.3333  plane waves:   83937
 k-point  8 :  -0.3333 0.0000 0.3333  plane waves:   83982
 k-point  9 :   0.0000 0.3333 0.3333  plane waves:   83984
 k-point 10 :   0.3333 0.3333 0.3333  plane waves:   84012
 k-point 11 :  -0.3333 0.3333 0.3333  plane waves:   83970
 k-point 12 :   0.0000-0.3333 0.3333  plane waves:   83977
 k-point 13 :   0.3333-0.3333 0.3333  plane waves:   84013
 k-point 14 :  -0.3333-0.3333 0.3333  plane waves:   83973

 maximum and minimum number of plane-waves per node :     28039    27934

 maximum number of plane-waves:     84019
 maximum index in each direction: 
   IXMAX=   27   IYMAX=   27   IZMAX=   27
   IXMIN=  -27   IYMIN=  -27   IZMIN=  -27

 NGX is ok and might be reduce to 110
 WARNING: aliasing errors must be expected set NGY to 110 to avoid them
 NGZ is ok and might be reduce to 110
 aliasing errors are usually negligible using standard VASP settings
 and one can safely disregard these warnings

 parallel 3D FFT for wavefunctions:
    minimum data exchange during FFTs selected (reduces bandwidth)
 parallel 3D FFT for charge:
    minimum data exchange during FFTs selected (reduces bandwidth)


 total amount of memory used by VASP on root node   697522. kBytes
========================================================================

   base      :      30000. kBytes
   nonl-proj :     325712. kBytes
   fftplans  :      80881. kBytes
   grid      :      57435. kBytes
   one-center:        497. kBytes
   wavefun   :     202997. kBytes
 
     INWAV:  cpu time    0.0000: real time    0.0000
 Broyden mixing: mesh for mixing (old mesh)
   NGX = 55   NGY = 53   NGZ = 55
  (NGX  =224   NGY  =216   NGZ  =224)
  gives a total of 160325 points

 initial charge density was supplied:
 charge density of overlapping atoms calculated
 number of electron     400.0000000 magnetization 
 keeping initial charge density in first step


--------------------------------------------------------------------------------------------------------


 Maximum index for augmentation-charges        14674 (set IRDMAX)


--------------------------------------------------------------------------------------------------------


 First call to EWALD:  gamma=   0.141
 Maximum number of real-space cells 3x 3x 3
 Maximum number of reciprocal cells 3x 3x 3

 FEWALD executed in parallel
    FEWALD:  cpu time    0.0040: real time    0.0045


----------------------------------------- Iteration    1(   1)  ---------------------------------------


    POTLOK:  cpu time    0.4440: real time    0.4443
    SETDIJ:  cpu time    0.7560: real time    0.7557
     EDDAV:  cpu time  248.8356: real time  248.9941
       DOS:  cpu time    0.0000: real time    0.0012
    --------------------------------------------
      LOOP:  cpu time  250.0356: real time  250.2320

 eigenvalue-minimisations  :  7176
 total energy-change (2. order) : 0.3599618E+04  (-0.1894537E+05)
 number of electron     400.0000000 magnetization 
 augmentation part      400.0000000 magnetization 

 Free energy of the ion-electron system (eV)
  ---------------------------------------------------
  alpha Z        PSCENC =       370.05370877
  Ewald energy   TEWEN  =    -15534.46532026
  -Hartree energ DENC   =     -8117.06397646
  -exchange      EXHF   =         0.00000000
  -V(xc)+E(xc)   XCENC  =       389.77469271
  PAW double counting   =     20601.23165652   -19855.90553853
  entropy T*S    EENTRO =        -0.00001012
  eigenvalues    EBANDS =       996.98577753
  atomic energy  EATOM  =     24749.00668030
  Solvation  Ediel_sol  =         0.00000000
  ---------------------------------------------------
  free energy    TOTEN  =      3599.61767045 eV

  energy without entropy =     3599.61768057  energy(sigma->0) =     3599.61767551


--------------------------------------------------------------------------------------------------------




----------------------------------------- Iteration    1(   2)  ---------------------------------------


     EDDAV:  cpu time  270.0409: real time  270.2145
       DOS:  cpu time    0.0000: real time    0.0004
    --------------------------------------------
      LOOP:  cpu time  270.0449: real time  270.3834

 eigenvalue-minimisations  :  7968
 total energy-change (2. order) :-0.3397330E+04  (-0.3198282E+04)
 number of electron     400.0000000 magnetization 
 augmentation part      400.0000000 magnetization 

 Free energy of the ion-electron system (eV)
  ---------------------------------------------------
  alpha Z        PSCENC =       370.05370877
  Ewald energy   TEWEN  =    -15534.46532026
  -Hartree energ DENC   =     -8117.06397646
  -exchange      EXHF   =         0.00000000
  -V(xc)+E(xc)   XCENC  =       389.77469271
  PAW double counting   =     20601.23165652   -19855.90553853
  entropy T*S    EENTRO =        -0.00000000
  eigenvalues    EBANDS =     -2400.34470521
  atomic energy  EATOM  =     24749.00668030
  Solvation  Ediel_sol  =         0.00000000
  ---------------------------------------------------
  free energy    TOTEN  =       202.28719782 eV

  energy without entropy =      202.28719782  energy(sigma->0) =      202.28719782


--------------------------------------------------------------------------------------------------------




----------------------------------------- Iteration    1(   3)  ---------------------------------------


     EDDAV:  cpu time  309.4473: real time  309.6410
       DOS:  cpu time    0.0000: real time    0.0003
    --------------------------------------------
      LOOP:  cpu time  309.4513: real time  309.7101

 eigenvalue-minimisations  :  9464
 total energy-change (2. order) :-0.6001900E+03  (-0.5910872E+03)
 number of electron     400.0000000 magnetization 
 augmentation part      400.0000000 magnetization 

 Free energy of the ion-electron system (eV)
  ---------------------------------------------------
  alpha Z        PSCENC =       370.05370877
  Ewald energy   TEWEN  =    -15534.46532026
  -Hartree energ DENC   =     -8117.06397646
  -exchange      EXHF   =         0.00000000
  -V(xc)+E(xc)   XCENC  =       389.77469271
  PAW double counting   =     20601.23165652   -19855.90553853
  entropy T*S    EENTRO =         0.00000000
  eigenvalues    EBANDS =     -3000.53471101
  atomic energy  EATOM  =     24749.00668030
  Solvation  Ediel_sol  =         0.00000000
  ---------------------------------------------------
  free energy    TOTEN  =      -397.90280797 eV

  energy without entropy =     -397.90280797  energy(sigma->0) =     -397.90280797


--------------------------------------------------------------------------------------------------------




----------------------------------------- Iteration    1(   4)  ---------------------------------------


     EDDAV:  cpu time  314.5557: real time  314.7539
       DOS:  cpu time    0.0000: real time    0.0004
    --------------------------------------------
      LOOP:  cpu time  314.5557: real time  314.7924

 eigenvalue-minimisations  :  9656
 total energy-change (2. order) :-0.4062820E+02  (-0.4045395E+02)
 number of electron     400.0000000 magnetization 
 augmentation part      400.0000000 magnetization 

 Free energy of the ion-electron system (eV)
  ---------------------------------------------------
  alpha Z        PSCENC =       370.05370877
  Ewald energy   TEWEN  =    -15534.46532026
  -Hartree energ DENC   =     -8117.06397646
  -exchange      EXHF   =         0.00000000
  -V(xc)+E(xc)   XCENC  =       389.77469271
  PAW double counting   =     20601.23165652   -19855.90553853
  entropy T*S    EENTRO =         0.00000000
  eigenvalues    EBANDS =     -3041.16290906
  atomic energy  EATOM  =     24749.00668030
  Solvation  Ediel_sol  =         0.00000000
  ---------------------------------------------------
  free energy    TOTEN  =      -438.53100602 eV

  energy without entropy =     -438.53100602  energy(sigma->0) =     -438.53100602


--------------------------------------------------------------------------------------------------------




----------------------------------------- Iteration    1(   5)  ---------------------------------------


     EDDAV:  cpu time  316.8078: real time  317.0100
       DOS:  cpu time    0.0000: real time    0.0004
    CHARGE:  cpu time    9.1886: real time    9.1976
    MIXING:  cpu time    0.0160: real time    0.0130
    --------------------------------------------
      LOOP:  cpu time  326.0204: real time  326.2572

 eigenvalue-minimisations  :  9768
 total energy-change (2. order) :-0.1508375E+01  (-0.1506118E+01)
 number of electron     400.0000000 magnetization 
 augmentation part        7.5646731 magnetization 

 Broyden mixing:
  rms(total) = 0.29552E+01    rms(broyden)= 0.29551E+01
  rms(prec ) = 0.35059E+01
  weight for this iteration     100.00

 Free energy of the ion-electron system (eV)
  ---------------------------------------------------
  alpha Z        PSCENC =       370.05370877
  Ewald energy   TEWEN  =    -15534.46532026
  -Hartree energ DENC   =     -8117.06397646
  -exchange      EXHF   =         0.00000000
  -V(xc)+E(xc)   XCENC  =       389.77469271
  PAW double counting   =     20601.23165652   -19855.90553853
  entropy T*S    EENTRO =         0.00000000
  eigenvalues    EBANDS =     -3042.67128395
  atomic energy  EATOM  =     24749.00668030
  Solvation  Ediel_sol  =         0.00000000
  ---------------------------------------------------
  free energy    TOTEN  =      -440.03938091 eV

  energy without entropy =     -440.03938091  energy(sigma->0) =     -440.03938091


--------------------------------------------------------------------------------------------------------




----------------------------------------- Iteration    1(   6)  ---------------------------------------


    POTLOK:  cpu time    0.4400: real time    0.4404
    SETDIJ:  cpu time    0.7520: real time    0.7537
     EDDAV:  cpu time  311.2835: real time  311.4789
       DOS:  cpu time    0.0000: real time    0.0005
    CHARGE:  cpu time    9.1966: real time    9.2030
    MIXING:  cpu time    0.0120: real time    0.0131
    --------------------------------------------
      LOOP:  cpu time  321.6881: real time  321.9377

 eigenvalue-minimisations  :  9592
 total energy-change (2. order) : 0.2048367E+02  (-0.4148288E+01)
 number of electron     400.0000000 magnetization 
 augmentation part        7.8734738 magnetization 

 Broyden mixing:
  rms(total) = 0.15641E+01    rms(broyden)= 0.15641E+01
  rms(prec ) = 0.17416E+01
  weight for this iteration     100.00

 eigenvalues of (default mixing * dielectric matrix)
  average eigenvalue GAMMA=   1.5467
  1.5467

 Free energy of the ion-electron system (eV)
  ---------------------------------------------------
  alpha Z        PSCENC =       370.05370877
  Ewald energy   TEWEN  =    -15534.46532026
  -Hartree energ DENC   =     -8288.58943502
  -exchange      EXHF   =         0.00000000
  -V(xc)+E(xc)   XCENC  =       403.92635390
  PAW double counting   =     23042.06246780   -22294.74236724
  entropy T*S    EENTRO =        -0.00000000
  eigenvalues    EBANDS =     -2866.80780311
  atomic energy  EATOM  =     24749.00668030
  Solvation  Ediel_sol  =         0.00000000
  ---------------------------------------------------
  free energy    TOTEN  =      -419.55571486 eV

  energy without entropy =     -419.55571486  energy(sigma->0) =     -419.55571486


--------------------------------------------------------------------------------------------------------




----------------------------------------- Iteration    1(   7)  ---------------------------------------


    POTLOK:  cpu time    0.4400: real time    0.4403
    SETDIJ:  cpu time    0.7520: real time    0.7547
     EDDAV:  cpu time  328.8206: real time  329.0279
       DOS:  cpu time    0.0000: real time    0.0006
    CHARGE:  cpu time    9.2326: real time    9.2410
    MIXING:  cpu time    0.0160: real time    0.0133
    --------------------------------------------
      LOOP:  cpu time  339.2692: real time  339.5402

 eigenvalue-minimisations  : 10232
 total energy-change (2. order) : 0.2463889E+01  (-0.1456945E+01)
 number of electron     400.0000000 magnetization 
 augmentation part        8.0050760 magnetization 

 Broyden mixing:
  rms(total) = 0.78174E+00    rms(broyden)= 0.78172E+00
  rms(prec ) = 0.83382E+00
  weight for this iteration     100.00

 eigenvalues of (default mixing * dielectric matrix)
  average eigenvalue GAMMA=   1.9321
  1.4491  2.4150

 Free energy of the ion-electron system (eV)
  ---------------------------------------------------
  alpha Z        PSCENC =       370.05370877
  Ewald energy   TEWEN  =    -15534.46532026
  -Hartree energ DENC   =     -8376.68659617
  -exchange      EXHF   =         0.00000000
  -V(xc)+E(xc)   XCENC  =       413.40376801
  PAW double counting   =     26118.08447344   -25369.62751850
  entropy T*S    EENTRO =        -0.00000000
  eigenvalues    EBANDS =     -2786.86102159
  atomic energy  EATOM  =     24749.00668030
  Solvation  Ediel_sol  =         0.00000000
  ---------------------------------------------------
  free energy    TOTEN  =      -417.09182601 eV

  energy without entropy =     -417.09182601  energy(sigma->0) =     -417.09182601


--------------------------------------------------------------------------------------------------------




----------------------------------------- Iteration    1(   8)  ---------------------------------------


    POTLOK:  cpu time    0.4400: real time    0.4414
    SETDIJ:  cpu time    0.7600: real time    0.7608
     EDDAV:  cpu time  286.3339: real time  286.5191
       DOS:  cpu time    0.0000: real time    0.0007
    CHARGE:  cpu time    9.2326: real time    9.2396
    MIXING:  cpu time    0.0120: real time    0.0135
    --------------------------------------------
      LOOP:  cpu time  296.7865: real time  297.0068

 eigenvalue-minimisations  :  8616
 total energy-change (2. order) : 0.1703832E+00  (-0.3070861E+00)
 number of electron     400.0000000 magnetization 
 augmentation part        7.9345903 magnetization 

 Broyden mixing:
  rms(total) = 0.18326E+00    rms(broyden)= 0.18325E+00
  rms(prec ) = 0.22251E+00
  weight for this iteration     100.00

 eigenvalues of (default mixing * dielectric matrix)
  average eigenvalue GAMMA=   1.6334
  2.3783  1.2610  1.2610

 Free energy of the ion-electron system (eV)
  ---------------------------------------------------
  alpha Z        PSCENC =       370.05370877
  Ewald energy   TEWEN  =    -15534.46532026
  -Hartree energ DENC   =     -8384.99237941
  -exchange      EXHF   =         0.00000000
  -V(xc)+E(xc)   XCENC  =       416.65311038
  PAW double counting   =     28584.63909376   -27837.19312997
  entropy T*S    EENTRO =         0.00000000
  eigenvalues    EBANDS =     -2780.62320641
  atomic energy  EATOM  =     24749.00668030
  Solvation  Ediel_sol  =         0.00000000
  ---------------------------------------------------
  free energy    TOTEN  =      -416.92144283 eV

  energy without entropy =     -416.92144283  energy(sigma->0) =     -416.92144283


--------------------------------------------------------------------------------------------------------




----------------------------------------- Iteration    1(   9)  ---------------------------------------


    POTLOK:  cpu time    0.4480: real time    0.4473
    SETDIJ:  cpu time    0.7560: real time    0.7575
     EDDAV:  cpu time  307.6272: real time  307.8214
       DOS:  cpu time    0.0000: real time    0.0007
    CHARGE:  cpu time    9.2326: real time    9.2367
    MIXING:  cpu time    0.0120: real time    0.0137
    --------------------------------------------
      LOOP:  cpu time  318.0799: real time  318.2834

 eigenvalue-minimisations  :  9424
 total energy-change (2. order) : 0.7343485E-01  (-0.7591355E-01)
 number of electron     400.0000000 magnetization 
 augmentation part        7.9453596 magnetization 

 Broyden mixing:
  rms(total) = 0.72486E-01    rms(broyden)= 0.72479E-01
  rms(prec ) = 0.81543E-01
  weight for this iteration     100.00

 eigenvalues of (default mixing * dielectric matrix)
  average eigenvalue GAMMA=   1.5394
  2.3271  1.0576  1.4507  1.3223

 Free energy of the ion-electron system (eV)
  ---------------------------------------------------
  alpha Z        PSCENC =       370.05370877
  Ewald energy   TEWEN  =    -15534.46532026
  -Hartree energ DENC   =     -8402.83753613
  -exchange      EXHF   =         0.00000000
  -V(xc)+E(xc)   XCENC  =       417.69794784
  PAW double counting   =     28585.73763605   -27838.37453178
  entropy T*S    EENTRO =        -0.00000000
  eigenvalues    EBANDS =     -2763.66659276
  atomic energy  EATOM  =     24749.00668030
  Solvation  Ediel_sol  =         0.00000000
  ---------------------------------------------------
  free energy    TOTEN  =      -416.84800798 eV

  energy without entropy =     -416.84800798  energy(sigma->0) =     -416.84800798


--------------------------------------------------------------------------------------------------------




----------------------------------------- Iteration    1(  10)  ---------------------------------------


    POTLOK:  cpu time    0.4400: real time    0.4434
    SETDIJ:  cpu time    0.7600: real time    0.7579
     EDDAV:  cpu time  294.7304: real time  294.9188
       DOS:  cpu time    0.0000: real time    0.0007
    CHARGE:  cpu time    9.2326: real time    9.2378
    MIXING:  cpu time    0.0160: real time    0.0141
    --------------------------------------------
      LOOP:  cpu time  305.1831: real time  305.4351

 eigenvalue-minimisations  :  8936
 total energy-change (2. order) :-0.1165821E-01  (-0.1090196E-01)
 number of electron     400.0000000 magnetization 
 augmentation part        7.9213806 magnetization 

 Broyden mixing:
  rms(total) = 0.46397E-01    rms(broyden)= 0.46396E-01
  rms(prec ) = 0.53446E-01
  weight for this iteration     100.00

 eigenvalues of (default mixing * dielectric matrix)
  average eigenvalue GAMMA=   1.4594
  2.3860  1.9315  1.0649  1.0649  0.8497

 Free energy of the ion-electron system (eV)
  ---------------------------------------------------
  alpha Z        PSCENC =       370.05370877
  Ewald energy   TEWEN  =    -15534.46532026
  -Hartree energ DENC   =     -8403.77088093
  -exchange      EXHF   =         0.00000000
  -V(xc)+E(xc)   XCENC  =       417.80422015
  PAW double counting   =     28624.94421579   -27877.82390463
  entropy T*S    EENTRO =         0.00000000
  eigenvalues    EBANDS =     -2762.60838538
  atomic energy  EATOM  =     24749.00668030
  Solvation  Ediel_sol  =         0.00000000
  ---------------------------------------------------
  free energy    TOTEN  =      -416.85966619 eV

  energy without entropy =     -416.85966619  energy(sigma->0) =     -416.85966619


--------------------------------------------------------------------------------------------------------




----------------------------------------- Iteration    1(  11)  ---------------------------------------


    POTLOK:  cpu time    0.4440: real time    0.4426
    SETDIJ:  cpu time    0.7560: real time    0.7579
     EDDAV:  cpu time  322.0921: real time  322.2950
       DOS:  cpu time    0.0000: real time    0.0005
    CHARGE:  cpu time    9.2406: real time    9.2443
    MIXING:  cpu time    0.0120: real time    0.0143
    --------------------------------------------
      LOOP:  cpu time  332.5448: real time  332.7726

 eigenvalue-minimisations  :  9976
 total energy-change (2. order) : 0.1309095E-03  (-0.1442215E-02)
 number of electron     400.0000000 magnetization 
 augmentation part        7.9220601 magnetization 

 Broyden mixing:
  rms(total) = 0.19581E-01    rms(broyden)= 0.19580E-01
  rms(prec ) = 0.23302E-01
  weight for this iteration     100.00

 eigenvalues of (default mixing * dielectric matrix)
  average eigenvalue GAMMA=   1.5233
  2.4497  1.9826  1.5130  1.1101  1.0421  1.0421

 Free energy of the ion-electron system (eV)
  ---------------------------------------------------
  alpha Z        PSCENC =       370.05370877
  Ewald energy   TEWEN  =    -15534.46532026
  -Hartree energ DENC   =     -8403.00103069
  -exchange      EXHF   =         0.00000000
  -V(xc)+E(xc)   XCENC  =       417.82091554
  PAW double counting   =     28661.96817761   -27914.92786161
  entropy T*S    EENTRO =         0.00000000
  eigenvalues    EBANDS =     -2763.31480492
  atomic energy  EATOM  =     24749.00668030
  Solvation  Ediel_sol  =         0.00000000
  ---------------------------------------------------
  free energy    TOTEN  =      -416.85953528 eV

  energy without entropy =     -416.85953528  energy(sigma->0) =     -416.85953528


--------------------------------------------------------------------------------------------------------




----------------------------------------- Iteration    1(  12)  ---------------------------------------


    POTLOK:  cpu time    0.4400: real time    0.4422
    SETDIJ:  cpu time    0.7600: real time    0.7602
     EDDAV:  cpu time  315.1437: real time  315.3438
       DOS:  cpu time    0.0000: real time    0.0007
    CHARGE:  cpu time    9.2406: real time    9.2454
    MIXING:  cpu time    0.0160: real time    0.0146
    --------------------------------------------
      LOOP:  cpu time  325.6043: real time  325.8490

 eigenvalue-minimisations  :  9712
 total energy-change (2. order) :-0.1369210E-02  (-0.8775172E-03)
 number of electron     400.0000000 magnetization 
 augmentation part        7.9329519 magnetization 

 Broyden mixing:
  rms(total) = 0.10272E-01    rms(broyden)= 0.10272E-01
  rms(prec ) = 0.12266E-01
  weight for this iteration     100.00

 eigenvalues of (default mixing * dielectric matrix)
  average eigenvalue GAMMA=   1.4761
  2.6000  2.3050  1.3116  1.3116  0.9305  0.9370  0.9370

 Free energy of the ion-electron system (eV)
  ---------------------------------------------------
  alpha Z        PSCENC =       370.05370877
  Ewald energy   TEWEN  =    -15534.46532026
  -Hartree energ DENC   =     -8403.47168706
  -exchange      EXHF   =         0.00000000
  -V(xc)+E(xc)   XCENC  =       417.88259197
  PAW double counting   =     28653.52443681   -27906.50794137
  entropy T*S    EENTRO =         0.00000000
  eigenvalues    EBANDS =     -2762.88337364
  atomic energy  EATOM  =     24749.00668030
  Solvation  Ediel_sol  =         0.00000000
  ---------------------------------------------------
  free energy    TOTEN  =      -416.86090449 eV

  energy without entropy =     -416.86090449  energy(sigma->0) =     -416.86090449


--------------------------------------------------------------------------------------------------------




----------------------------------------- Iteration    1(  13)  ---------------------------------------


    POTLOK:  cpu time    0.4440: real time    0.4425
    SETDIJ:  cpu time    0.7600: real time    0.7596
     EDDAV:  cpu time  280.8856: real time  281.0667
       DOS:  cpu time    0.0000: real time    0.0008
    CHARGE:  cpu time    9.2406: real time    9.2451
    MIXING:  cpu time    0.0160: real time    0.0148
    --------------------------------------------
      LOOP:  cpu time  291.3462: real time  291.5953

 eigenvalue-minimisations  :  8408
 total energy-change (2. order) :-0.1670939E-03  (-0.1273941E-03)
 number of electron     400.0000000 magnetization 
 augmentation part        7.9315353 magnetization 

 Broyden mixing:
  rms(total) = 0.71867E-02    rms(broyden)= 0.71865E-02
  rms(prec ) = 0.82171E-02
  weight for this iteration     100.00

 eigenvalues of (default mixing * dielectric matrix)
  average eigenvalue GAMMA=   1.4445
  2.6126  2.3453  1.5022  1.2076  0.9580  0.9580  0.9862  0.9862

 Free energy of the ion-electron system (eV)
  ---------------------------------------------------
  alpha Z        PSCENC =       370.05370877
  Ewald energy   TEWEN  =    -15534.46532026
  -Hartree energ DENC   =     -8403.74775515
  -exchange      EXHF   =         0.00000000
  -V(xc)+E(xc)   XCENC  =       417.90631781
  PAW double counting   =     28652.36468054   -27905.36071974
  entropy T*S    EENTRO =         0.00000000
  eigenvalues    EBANDS =     -2762.61866384
  atomic energy  EATOM  =     24749.00668030
  Solvation  Ediel_sol  =         0.00000000
  ---------------------------------------------------
  free energy    TOTEN  =      -416.86107158 eV

  energy without entropy =     -416.86107158  energy(sigma->0) =     -416.86107158


--------------------------------------------------------------------------------------------------------




----------------------------------------- Iteration    1(  14)  ---------------------------------------


    POTLOK:  cpu time    0.4480: real time    0.4472
    SETDIJ:  cpu time    0.7600: real time    0.7590
     EDDAV:  cpu time  285.1218: real time  285.3009
       DOS:  cpu time    0.0000: real time    0.0005
    CHARGE:  cpu time    9.2366: real time    9.2439
    MIXING:  cpu time    0.0160: real time    0.0154
    --------------------------------------------
      LOOP:  cpu time  295.5825: real time  295.7732

 eigenvalue-minimisations  :  8568
 total energy-change (2. order) :-0.3573429E-04  (-0.2776518E-04)
 number of electron     400.0000000 magnetization 
 augmentation part        7.9317650 magnetization 

 Broyden mixing:
  rms(total) = 0.31744E-02    rms(broyden)= 0.31743E-02
  rms(prec ) = 0.36792E-02
  weight for this iteration     100.00

 eigenvalues of (default mixing * dielectric matrix)
  average eigenvalue GAMMA=   1.5365
  2.7474  2.7474  1.8998  1.0513  1.0513  1.3014  0.9420  1.0441  1.0441

 Free energy of the ion-electron system (eV)
  ---------------------------------------------------
  alpha Z        PSCENC =       370.05370877
  Ewald energy   TEWEN  =    -15534.46532026
  -Hartree energ DENC   =     -8404.08330216
  -exchange      EXHF   =         0.00000000
  -V(xc)+E(xc)   XCENC  =       417.92792912
  PAW double counting   =     28647.72259269   -27900.70637730
  entropy T*S    EENTRO =         0.00000000
  eigenvalues    EBANDS =     -2762.31701848
  atomic energy  EATOM  =     24749.00668030
  Solvation  Ediel_sol  =         0.00000000
  ---------------------------------------------------
  free energy    TOTEN  =      -416.86110732 eV

  energy without entropy =     -416.86110732  energy(sigma->0) =     -416.86110732


--------------------------------------------------------------------------------------------------------




----------------------------------------- Iteration    1(  15)  ---------------------------------------


    POTLOK:  cpu time    0.4400: real time    0.4412
    SETDIJ:  cpu time    0.7560: real time    0.7592
     EDDAV:  cpu time  277.3093: real time  277.4797
       DOS:  cpu time    0.0000: real time    0.0006
    CHARGE:  cpu time    9.2446: real time    9.2498
    MIXING:  cpu time    0.0160: real time    0.0156
    --------------------------------------------
      LOOP:  cpu time  287.7700: real time  287.9926

 eigenvalue-minimisations  :  8272
 total energy-change (2. order) :-0.4392161E-04  (-0.1436952E-04)
 number of electron     400.0000000 magnetization 
 augmentation part        7.9315820 magnetization 

 Broyden mixing:
  rms(total) = 0.11580E-02    rms(broyden)= 0.11578E-02
  rms(prec ) = 0.13279E-02
  weight for this iteration     100.00

 eigenvalues of (default mixing * dielectric matrix)
  average eigenvalue GAMMA=   1.4968
  2.9946  2.4186  2.0469  1.5235  1.0278  1.0278  1.0473  1.0473  0.9609  0.8737

 Free energy of the ion-electron system (eV)
  ---------------------------------------------------
  alpha Z        PSCENC =       370.05370877
  Ewald energy   TEWEN  =    -15534.46532026
  -Hartree energ DENC   =     -8404.35872033
  -exchange      EXHF   =         0.00000000
  -V(xc)+E(xc)   XCENC  =       417.94475115
  PAW double counting   =     28641.45944397   -27894.42678831
  entropy T*S    EENTRO =         0.00000000
  eigenvalues    EBANDS =     -2762.07490653
  atomic energy  EATOM  =     24749.00668030
  Solvation  Ediel_sol  =         0.00000000
  ---------------------------------------------------
  free energy    TOTEN  =      -416.86115124 eV

  energy without entropy =     -416.86115124  energy(sigma->0) =     -416.86115124


--------------------------------------------------------------------------------------------------------




----------------------------------------- Iteration    1(  16)  ---------------------------------------


    POTLOK:  cpu time    0.4400: real time    0.4419
    SETDIJ:  cpu time    0.7640: real time    0.7608
     EDDAV:  cpu time  340.1093: real time  340.3260
       DOS:  cpu time    0.0000: real time    0.0009
    CHARGE:  cpu time    9.2406: real time    9.2451
    MIXING:  cpu time    0.0160: real time    0.0159
    --------------------------------------------
      LOOP:  cpu time  350.5699: real time  350.8470

 eigenvalue-minimisations  : 10648
 total energy-change (2. order) :-0.3668440E-05  (-0.1216442E-05)
 number of electron     400.0000000 magnetization 
 augmentation part        7.9315569 magnetization 

 Broyden mixing:
  rms(total) = 0.11704E-02    rms(broyden)= 0.11703E-02
  rms(prec ) = 0.13151E-02
  weight for this iteration     100.00

 eigenvalues of (default mixing * dielectric matrix)
  average eigenvalue GAMMA=   1.5039
  3.0484  2.4254  1.9281  1.9281  1.1256  1.1256  1.3253  0.9779  0.9779  0.8403
  0.8403

 Free energy of the ion-electron system (eV)
  ---------------------------------------------------
  alpha Z        PSCENC =       370.05370877
  Ewald energy   TEWEN  =    -15534.46532026
  -Hartree energ DENC   =     -8404.39124722
  -exchange      EXHF   =         0.00000000
  -V(xc)+E(xc)   XCENC  =       417.94844574
  PAW double counting   =     28642.84882061   -27895.81340635
  entropy T*S    EENTRO =        -0.00000000
  eigenvalues    EBANDS =     -2762.04883649
  atomic energy  EATOM  =     24749.00668030
  Solvation  Ediel_sol  =         0.00000000
  ---------------------------------------------------
[...]
   0.101E+02 0.401E-01 0.503E+02   -.103E+02 -.458E-01 -.558E+02   0.216E+00 0.582E-02 0.565E+01   -.190E-05 -.299E-06 0.454E-05
   0.133E+01 0.525E-01 0.525E+02   -.500E+00 -.579E-01 -.580E+02   -.847E+00 0.551E-02 0.559E+01   0.267E-05 -.659E-06 -.466E-05
   0.292E+02 -.391E+02 -.137E+02   -.319E+02 0.437E+02 0.156E+02   0.272E+01 -.462E+01 -.190E+01   -.173E-05 -.264E-05 0.506E-06
   0.314E+02 -.393E+02 -.656E+01   -.344E+02 0.439E+02 0.794E+01   0.299E+01 -.463E+01 -.139E+01   -.343E-05 0.537E-05 0.361E-05
   0.314E+02 -.393E+02 -.656E+01   -.344E+02 0.439E+02 0.794E+01   0.299E+01 -.463E+01 -.139E+01   -.357E-05 0.482E-05 0.428E-05
   0.292E+02 -.391E+02 -.137E+02   -.319E+02 0.437E+02 0.156E+02   0.272E+01 -.462E+01 -.190E+01   -.188E-05 -.362E-05 0.246E-06
   0.314E+02 -.393E+02 -.656E+01   -.344E+02 0.439E+02 0.794E+01   0.299E+01 -.463E+01 -.139E+01   -.413E-05 0.579E-05 0.484E-05
   0.292E+02 -.391E+02 -.137E+02   -.319E+02 0.437E+02 0.156E+02   0.272E+01 -.462E+01 -.190E+01   -.142E-05 -.210E-05 0.172E-05
   0.292E+02 -.391E+02 -.137E+02   -.319E+02 0.437E+02 0.156E+02   0.272E+01 -.462E+01 -.190E+01   -.155E-05 -.362E-05 0.136E-05
   0.314E+02 -.393E+02 -.656E+01   -.344E+02 0.439E+02 0.794E+01   0.299E+01 -.463E+01 -.139E+01   -.384E-05 0.405E-05 0.505E-05
   0.292E+02 0.391E+02 -.138E+02   -.318E+02 -.437E+02 0.157E+02   0.272E+01 0.462E+01 -.191E+01   -.150E-05 0.309E-05 0.797E-06
   0.314E+02 0.393E+02 -.664E+01   -.344E+02 -.439E+02 0.803E+01   0.299E+01 0.463E+01 -.140E+01   -.371E-05 -.467E-05 0.379E-05
   0.314E+02 0.393E+02 -.664E+01   -.344E+02 -.439E+02 0.803E+01   0.299E+01 0.463E+01 -.140E+01   -.381E-05 -.521E-05 0.389E-05
   0.292E+02 0.391E+02 -.138E+02   -.318E+02 -.437E+02 0.157E+02   0.272E+01 0.462E+01 -.191E+01   -.160E-05 0.295E-05 0.229E-07
   0.314E+02 0.393E+02 -.664E+01   -.344E+02 -.439E+02 0.803E+01   0.299E+01 0.463E+01 -.140E+01   -.359E-05 -.464E-05 0.471E-05
   0.292E+02 0.391E+02 -.138E+02   -.318E+02 -.437E+02 0.157E+02   0.272E+01 0.462E+01 -.191E+01   -.144E-05 0.370E-05 0.139E-05
   0.292E+02 0.391E+02 -.138E+02   -.318E+02 -.437E+02 0.157E+02   0.272E+01 0.462E+01 -.191E+01   -.204E-05 0.240E-05 0.160E-05
   0.314E+02 0.393E+02 -.664E+01   -.344E+02 -.439E+02 0.803E+01   0.299E+01 0.463E+01 -.140E+01   -.383E-05 -.561E-05 0.542E-05
   -.313E+02 -.483E+02 0.195E+02   0.346E+02 0.537E+02 -.217E+02   -.341E+01 -.550E+01 0.219E+01   -.933E-05 -.818E-05 0.215E-05
   -.354E+02 -.479E+02 0.152E+02   0.391E+02 0.534E+02 -.167E+02   -.371E+01 -.549E+01 0.156E+01   0.528E-05 -.234E-05 0.203E-05
   -.354E+02 -.479E+02 0.152E+02   0.391E+02 0.534E+02 -.167E+02   -.371E+01 -.549E+01 0.156E+01   0.503E-05 -.291E-05 0.166E-05
   -.313E+02 -.483E+02 0.195E+02   0.346E+02 0.537E+02 -.217E+02   -.341E+01 -.550E+01 0.219E+01   -.846E-05 -.928E-05 0.244E-05
   -.354E+02 -.479E+02 0.152E+02   0.391E+02 0.534E+02 -.167E+02   -.371E+01 -.549E+01 0.156E+01   0.480E-05 -.224E-05 0.311E-05
   -.313E+02 -.483E+02 0.195E+02   0.346E+02 0.537E+02 -.217E+02   -.341E+01 -.550E+01 0.219E+01   -.825E-05 -.708E-05 0.341E-05
   -.313E+02 -.483E+02 0.195E+02   0.346E+02 0.537E+02 -.217E+02   -.341E+01 -.550E+01 0.219E+01   -.913E-05 -.938E-05 0.349E-05
   -.354E+02 -.479E+02 0.152E+02   0.391E+02 0.534E+02 -.167E+02   -.371E+01 -.549E+01 0.156E+01   0.524E-05 -.415E-05 0.271E-05
   -.314E+02 0.482E+02 0.194E+02   0.347E+02 -.537E+02 -.216E+02   -.341E+01 0.550E+01 0.219E+01   -.919E-05 0.812E-05 0.245E-05
   -.354E+02 0.479E+02 0.150E+02   0.391E+02 -.534E+02 -.166E+02   -.371E+01 0.550E+01 0.154E+01   0.531E-05 0.336E-05 0.213E-05
   -.354E+02 0.479E+02 0.150E+02   0.391E+02 -.534E+02 -.166E+02   -.371E+01 0.550E+01 0.154E+01   0.491E-05 0.316E-05 0.133E-05
   -.314E+02 0.482E+02 0.194E+02   0.347E+02 -.537E+02 -.216E+02   -.341E+01 0.550E+01 0.219E+01   -.850E-05 0.818E-05 0.214E-05
   -.354E+02 0.479E+02 0.150E+02   0.391E+02 -.534E+02 -.166E+02   -.371E+01 0.550E+01 0.154E+01   0.437E-05 0.344E-05 0.299E-05
   -.314E+02 0.482E+02 0.194E+02   0.347E+02 -.537E+02 -.216E+02   -.341E+01 0.550E+01 0.219E+01   -.870E-05 0.948E-05 0.311E-05
   -.314E+02 0.482E+02 0.194E+02   0.347E+02 -.537E+02 -.216E+02   -.341E+01 0.550E+01 0.219E+01   -.877E-05 0.815E-05 0.372E-05
   -.354E+02 0.479E+02 0.150E+02   0.391E+02 -.534E+02 -.166E+02   -.371E+01 0.550E+01 0.154E+01   0.575E-05 0.159E-05 0.298E-05
   -.216E+01 -.600E-01 -.614E+02   0.278E+01 0.652E-01 0.679E+02   -.677E+00 -.495E-02 -.670E+01   -.540E-05 -.576E-07 -.123E-04
   0.892E+01 -.800E-01 -.650E+02   -.965E+01 0.900E-01 0.718E+02   0.723E+00 -.995E-02 -.700E+01   0.393E-05 0.625E-06 -.186E-05
   0.892E+01 -.800E-01 -.650E+02   -.965E+01 0.900E-01 0.718E+02   0.723E+00 -.995E-02 -.700E+01   0.333E-05 0.223E-06 -.153E-05
   -.216E+01 -.600E-01 -.614E+02   0.278E+01 0.652E-01 0.679E+02   -.677E+00 -.495E-02 -.670E+01   -.431E-05 -.578E-06 -.122E-04
   0.892E+01 -.800E-01 -.650E+02   -.965E+01 0.900E-01 0.718E+02   0.723E+00 -.995E-02 -.700E+01   0.319E-05 0.427E-06 -.131E-05
   -.216E+01 -.600E-01 -.614E+02   0.278E+01 0.652E-01 0.679E+02   -.677E+00 -.495E-02 -.670E+01   -.476E-05 0.126E-05 -.122E-04
   -.216E+01 -.600E-01 -.614E+02   0.278E+01 0.652E-01 0.679E+02   -.677E+00 -.495E-02 -.670E+01   -.432E-05 -.655E-06 -.106E-04
   0.892E+01 -.800E-01 -.650E+02   -.965E+01 0.900E-01 0.718E+02   0.723E+00 -.995E-02 -.700E+01   0.371E-05 -.130E-05 -.880E-06
   -.308E+02 0.583E+01 -.114E+02   0.297E+02 -.579E+01 0.111E+02   0.110E+01 -.428E-01 0.281E+00   0.707E-05 0.159E-04 -.398E-05
   -.307E+02 -.569E+01 -.114E+02   0.297E+02 0.564E+01 0.111E+02   0.110E+01 0.527E-01 0.282E+00   0.151E-04 0.383E-05 -.181E-05
   -.307E+02 -.569E+01 -.114E+02   0.297E+02 0.564E+01 0.111E+02   0.110E+01 0.527E-01 0.282E+00   -.525E-05 -.170E-04 -.198E-04
   -.308E+02 0.583E+01 -.114E+02   0.297E+02 -.579E+01 0.111E+02   0.110E+01 -.428E-01 0.281E+00   0.316E-04 -.624E-05 -.174E-04
   -.307E+02 -.569E+01 -.114E+02   0.297E+02 0.564E+01 0.111E+02   0.110E+01 0.527E-01 0.282E+00   0.128E-04 0.230E-04 -.190E-04
   -.308E+02 0.583E+01 -.114E+02   0.297E+02 -.579E+01 0.111E+02   0.110E+01 -.428E-01 0.281E+00   0.881E-05 0.180E-04 -.225E-04
   -.308E+02 0.583E+01 -.114E+02   0.297E+02 -.579E+01 0.111E+02   0.110E+01 -.428E-01 0.281E+00   0.153E-06 -.203E-04 -.483E-05
   -.307E+02 -.569E+01 -.114E+02   0.297E+02 0.564E+01 0.111E+02   0.110E+01 0.527E-01 0.282E+00   0.270E-04 -.167E-04 -.972E-05
   -.171E+02 -.258E+01 0.550E+01   0.172E+02 0.264E+01 -.543E+01   -.147E+00 -.578E-01 -.645E-01   0.983E-05 0.129E-04 -.636E-05
   -.172E+02 0.266E+01 0.548E+01   0.173E+02 -.272E+01 -.542E+01   -.149E+00 0.589E-01 -.646E-01   0.127E-04 -.466E-05 -.252E-06
   -.172E+02 0.266E+01 0.548E+01   0.173E+02 -.272E+01 -.542E+01   -.149E+00 0.589E-01 -.646E-01   0.738E-05 -.130E-04 0.135E-05
   -.171E+02 -.258E+01 0.550E+01   0.172E+02 0.264E+01 -.543E+01   -.147E+00 -.578E-01 -.645E-01   0.143E-04 0.473E-05 0.715E-05
   -.172E+02 0.266E+01 0.548E+01   0.173E+02 -.272E+01 -.542E+01   -.149E+00 0.589E-01 -.646E-01   0.109E-04 -.406E-05 0.179E-04
   -.171E+02 -.258E+01 0.550E+01   0.172E+02 0.264E+01 -.543E+01   -.147E+00 -.578E-01 -.645E-01   0.123E-04 0.106E-04 0.123E-04
   -.171E+02 -.258E+01 0.550E+01   0.172E+02 0.264E+01 -.543E+01   -.147E+00 -.578E-01 -.645E-01   0.764E-05 0.436E-05 0.113E-04
   -.172E+02 0.266E+01 0.548E+01   0.173E+02 -.272E+01 -.542E+01   -.149E+00 0.589E-01 -.646E-01   0.138E-04 -.108E-04 0.553E-05
   -.317E+02 -.529E-01 -.125E+02   0.319E+02 0.541E-01 0.129E+02   -.139E+00 -.964E-03 -.500E+00   -.234E-06 0.794E-05 -.175E-04
   0.352E+01 -.537E-01 -.179E+02   -.383E+01 0.550E-01 0.186E+02   0.306E+00 -.101E-02 -.789E+00   0.266E-04 0.126E-04 -.555E-05
   0.352E+01 -.537E-01 -.179E+02   -.383E+01 0.550E-01 0.186E+02   0.306E+00 -.101E-02 -.789E+00   0.249E-04 -.782E-05 -.422E-05
   -.317E+02 -.529E-01 -.125E+02   0.319E+02 0.541E-01 0.129E+02   -.139E+00 -.964E-03 -.500E+00   0.285E-05 -.127E-04 -.171E-04
   0.352E+01 -.537E-01 -.179E+02   -.383E+01 0.550E-01 0.186E+02   0.306E+00 -.101E-02 -.789E+00   0.209E-04 0.120E-05 -.151E-05
   -.317E+02 -.529E-01 -.125E+02   0.319E+02 0.541E-01 0.129E+02   -.139E+00 -.964E-03 -.500E+00   0.382E-05 0.604E-05 -.145E-04
   -.317E+02 -.529E-01 -.125E+02   0.319E+02 0.541E-01 0.129E+02   -.139E+00 -.964E-03 -.500E+00   -.117E-05 -.140E-05 -.144E-04
   0.352E+01 -.537E-01 -.179E+02   -.383E+01 0.550E-01 0.186E+02   0.306E+00 -.101E-02 -.789E+00   0.279E-04 -.611E-05 -.227E-05
   0.445E+01 0.119E+01 -.408E+01   -.392E+01 -.106E+01 0.368E+01   -.545E+00 -.113E+00 0.436E+00   -.892E-05 -.375E-05 0.319E-06
   0.445E+01 -.118E+01 -.413E+01   -.392E+01 0.105E+01 0.373E+01   -.545E+00 0.112E+00 0.436E+00   0.230E-05 0.947E-05 0.612E-06
   0.445E+01 -.118E+01 -.413E+01   -.392E+01 0.105E+01 0.373E+01   -.545E+00 0.112E+00 0.436E+00   -.418E-05 0.322E-05 -.177E-05
   0.445E+01 0.119E+01 -.408E+01   -.392E+01 -.106E+01 0.368E+01   -.545E+00 -.113E+00 0.436E+00   -.247E-05 -.859E-05 -.120E-05
   0.445E+01 -.118E+01 -.413E+01   -.392E+01 0.105E+01 0.373E+01   -.545E+00 0.112E+00 0.436E+00   -.503E-05 0.122E-04 0.962E-06
   0.445E+01 0.119E+01 -.408E+01   -.392E+01 -.106E+01 0.368E+01   -.545E+00 -.113E+00 0.436E+00   -.514E-05 -.420E-05 0.226E-06
   0.445E+01 0.119E+01 -.408E+01   -.392E+01 -.106E+01 0.368E+01   -.545E+00 -.113E+00 0.436E+00   0.123E-05 -.962E-05 0.397E-06
   0.445E+01 -.118E+01 -.413E+01   -.392E+01 0.105E+01 0.373E+01   -.545E+00 0.112E+00 0.436E+00   -.827E-05 0.145E-05 0.483E-06
 -----------------------------------------------------------------------------------------------
   -.540E+02 -.101E+00 -.226E+02   -.747E-12 0.786E-13 -.666E-14   0.540E+02 0.101E+00 0.226E+02   0.256E-03 0.668E-06 0.477E-04
 
 
 POSITION                                       TOTAL-FORCE (eV/Angst)
 -----------------------------------------------------------------------------------
      2.51648      3.11311      2.94210         0.095237     -0.000337     -0.044807
      8.79148      3.11512      3.01723         0.106187     -0.000376     -0.022650
      2.50366      9.34293      2.94776         0.106187     -0.000376     -0.022650
      8.80550      9.34284      3.01083         0.095237     -0.000337     -0.044807
      2.57277      3.11421      9.32184         0.106187     -0.000376     -0.022650
      8.87461      3.11412      9.38491         0.095237     -0.000337     -0.044807
      2.58679      9.34193      9.31544         0.095237     -0.000337     -0.044807
      8.86179      9.34394      9.39057         0.106187     -0.000376     -0.022650
      3.92952      3.11471      3.40409        -0.035699     -0.000511      0.028415
     10.09609      3.11633      3.73144        -0.043965     -0.000564     -0.012090
      3.80827      9.34414      3.66197        -0.043965     -0.000564     -0.012090
     10.21854      9.34444      3.47282        -0.035699     -0.000511      0.028415
      3.87738      3.11541     10.03606        -0.043965     -0.000564     -0.012090
     10.28765      3.11571      9.84690        -0.035699     -0.000511      0.028415
      3.99983      9.34352      9.77743        -0.035699     -0.000511      0.028415
     10.16639      9.34514     10.10478        -0.043965     -0.000564     -0.012090
      2.50258      3.11202      1.83801         0.013563      0.000047      0.157680
      8.98467      3.11406      1.93032        -0.021623      0.000040      0.158881
      2.69685      9.34187      1.86085        -0.021623      0.000040      0.158881
      8.79160      9.34175      1.90674         0.013563      0.000047      0.157680
      2.76595      3.11314      8.23493        -0.021623      0.000040      0.158881
      8.86071      3.11303      8.28082         0.013563      0.000047      0.157680
      2.57289      9.34084      8.21135         0.013563      0.000047      0.157680
      9.05497      9.34287      8.30366        -0.021623      0.000040      0.158881
      2.01285      4.01476      3.32324         0.043530     -0.027410     -0.014116
      8.22975      4.01827      3.30236         0.044766     -0.027557     -0.007143
      1.94192     10.24608      3.23289         0.044766     -0.027557     -0.007143
      8.30187     10.24448      3.39196         0.043530     -0.027410     -0.014116
      2.01103      4.01735      9.60697         0.044766     -0.027557     -0.007143
      8.37097      4.01576      9.76605         0.043530     -0.027410     -0.014116
      2.08315     10.24357      9.69657         0.043530     -0.027410     -0.014116
      8.30005     10.24708      9.67570         0.044766     -0.027557     -0.007143
      2.01446      2.21129      3.32498         0.043341      0.027897     -0.014545
      8.23047      2.21213      3.30431         0.044666      0.028007     -0.007558
      1.94264      8.43994      3.23484         0.044666      0.028007     -0.007558
      8.30348      8.44102      3.39371         0.043341      0.027897     -0.014545
      2.01175      2.21122      9.60893         0.044666      0.028007     -0.007558
      8.37259      2.21230      9.76779         0.043341      0.027897     -0.014545
      2.08477      8.44011      9.69832         0.043341      0.027897     -0.014545
      8.30077      8.44095      9.67765         0.044666      0.028007     -0.007558
      4.44950      3.95963      3.06758        -0.054806     -0.039880      0.019511
     10.66646      3.96257      3.49027        -0.059632     -0.041736      0.010038
      4.37864     10.19038      3.42080        -0.059632     -0.041736      0.010038
     10.73851     10.18936      3.13630        -0.054806     -0.039880      0.019511
      4.44775      3.96166      9.79488        -0.059632     -0.041736      0.010038
     10.80762      3.96063      9.51039        -0.054806     -0.039880      0.019511
      4.51980     10.18844      9.44091        -0.054806     -0.039880      0.019511
     10.73676     10.19138      9.86360        -0.059632     -0.041736      0.010038
      4.45077      2.26996      3.06893        -0.055319      0.040253      0.018988
     10.66668      2.26953      3.49256        -0.060046      0.042163      0.009376
      4.37886      8.49734      3.42309        -0.060046      0.042163      0.009376
     10.73979      8.49969      3.13766        -0.055319      0.040253      0.018988
      4.44797      2.26862      9.79717        -0.060046      0.042163      0.009376
     10.80890      2.27097      9.51174        -0.055319      0.040253      0.018988
      4.52108      8.49878      9.44227        -0.055319      0.040253      0.018988
     10.73698      8.49834      9.86590        -0.060046      0.042163      0.009376
      4.03012      3.11549      4.45080        -0.052670      0.000165     -0.149337
      9.98389      3.11779      4.76792        -0.009229      0.000090     -0.145088
      3.69607      9.34560      4.69845        -0.009229      0.000090     -0.145088
     10.31914      9.34522      4.51953        -0.052670      0.000165     -0.149337
      3.76517      3.11688     11.07253        -0.009229      0.000090     -0.145088
     10.38825      3.11649     10.89361        -0.052670      0.000165     -0.149337
      4.10043      9.34430     10.82414        -0.052670      0.000165     -0.149337
     10.05419      9.34660     11.14126        -0.009229      0.000090     -0.145088
      6.01053      6.21309      6.29596         0.000366     -0.004838     -0.001024
     12.29902      6.24705      6.36515         0.000385      0.004454     -0.000974
      6.01000      0.01732      6.29642         0.000385      0.004454     -0.000974
     12.29955     12.44282      6.36468         0.000366     -0.004838     -0.001024
      6.08031      6.24614     12.66976         0.000385      0.004454     -0.000974
     12.36866      6.21409     12.73877         0.000366     -0.004838     -0.001024
      6.08084     12.44190     12.66930         0.000366     -0.004838     -0.001024
     12.36813      0.01833     12.73923         0.000385      0.004454     -0.000974
      5.75257      6.26371      3.09093         0.002394      0.003248     -0.002124
     12.04176      6.19635      3.16000         0.002474     -0.003640     -0.002123
      5.75394     12.42416      3.09052         0.002474     -0.003640     -0.002123
     12.04039      0.03590      3.16040         0.002394      0.003248     -0.002124
      5.82305      6.19543      9.46461         0.002474     -0.003640     -0.002123
     12.11069      6.26471      9.53373         0.002394      0.003248     -0.002124
      5.82168      0.03499      9.46501         0.002394      0.003248     -0.002124
     12.11206     12.42516      9.53333         0.002474     -0.003640     -0.002123
      5.91253      3.11496      0.20401         0.030166      0.000277     -0.020622
     11.68977      3.11597      0.29065        -0.009024      0.000281     -0.030671
      5.40195      9.34378      0.22118        -0.009024      0.000281     -0.030671
     12.20154      9.34469      0.27274         0.030166      0.000277     -0.020622
      5.47106      3.11505      6.59526        -0.009024      0.000281     -0.030671
     12.27065      3.11597      6.64682         0.030166      0.000277     -0.020622
      5.98283      9.34378      6.57735         0.030166      0.000277     -0.020622
     11.76007      9.34478      6.66399        -0.009024      0.000281     -0.030671
      2.78362      6.51974      5.90941        -0.012510      0.014131      0.035947
      9.07210      5.93960      5.97793        -0.012553     -0.014205      0.036036
      2.78428     12.16741      5.90845        -0.012553     -0.014205      0.036036
      9.07144      0.29193      5.97888        -0.012510      0.014131      0.035947
      2.85339      5.93869     12.28254        -0.012553     -0.014205      0.036036
      9.14174      6.52074     12.35222        -0.012510      0.014131      0.035947
      2.85273      0.29102     12.28349        -0.012510      0.014131      0.035947
      9.14241     12.16841     12.35126        -0.012553     -0.014205      0.036036
 -----------------------------------------------------------------------------------
    total drift:                                0.003750     -0.000032     -0.000565


--------------------------------------------------------------------------------------------------------



  FREE ENERGIE OF THE ION-ELECTRON SYSTEM (eV)
  ---------------------------------------------------
  free  energy   TOTEN  =      -416.86115502 eV

  energy  without entropy=     -416.86115502  energy(sigma->0) =     -416.86115502
 


--------------------------------------------------------------------------------------------------------


    POTLOK:  cpu time    1.2121: real time    1.2130


--------------------------------------------------------------------------------------------------------


     LOOP+:  cpu time 6906.2796: real time 6911.9284
    4ORBIT:  cpu time    0.0000: real time    0.0000

 total amount of memory used by VASP on root node   697522. kBytes
========================================================================

   base      :      30000. kBytes
   nonl-proj :     325712. kBytes
   fftplans  :      80881. kBytes
   grid      :      57435. kBytes
   one-center:        497. kBytes
   wavefun   :     202997. kBytes
 
  
  
 General timing and accounting informations for this job:
 ========================================================
  
                  Total CPU time used (sec):     6955.403
                            User time (sec):     6953.319
                          System time (sec):        2.084
                         Elapsed time (sec):     6962.292
  
                   Maximum memory used (kb):      640336.
                   Average memory used (kb):           0.
  
                          Minor page faults:       281596
                          Major page faults:            0
                 Voluntary context switches:         1781
