Name                                    
   5.65360000000000     
     0.500000    0.500000    0.000000
     0.500000    0.000000   -0.500000
     0.000000    0.500000   -0.500000
   Ga   As
     1     1
Direct
  0.000000  0.000000  0.000000
  0.250000  0.250000  0.250000
 
   60   60   60
 0.74921445144E+03 0.73671184517E+03 0.70035502888E+03 0.64341913346E+03 0.57081268859E+03
 0.48838923688E+03 0.40221292010E+03 0.31791686072E+03 0.24023698345E+03 0.17273104133E+03
 0.11763975927E+03 0.75839239134E+02 0.46866346906E+02 0.29040188707E+02 0.19715879671E+02
 0.15678583330E+02 0.13699374404E+02 0.12222937250E+02 0.11110587372E+02 0.10265793895E+02
 0.96085586175E+01 0.90838591526E+01 0.86580568645E+01 0.83114900900E+01 0.80318757416E+01
 0.78101698896E+01 0.76388194774E+01 0.75115361517E+01 0.74235798635E+01 0.73718758281E+01
 0.73548044008E+01 0.73718758281E+01 0.74235798635E+01 0.75115361517E+01 0.76388194774E+01
 0.78101698896E+01 0.80318757416E+01 0.83114900900E+01 0.86580568645E+01 0.90838591526E+01
 0.96085586175E+01 0.10265793895E+02 0.11110587372E+02 0.12222937250E+02 0.13699374404E+02
 0.15678583330E+02 0.19715879671E+02 0.29040188707E+02 0.46866346906E+02 0.75839239134E+02
 0.11763975927E+03 0.17273104133E+03 0.24023698345E+03 0.31791686072E+03 0.40221292010E+03
 0.48838923688E+03 0.57081268859E+03 0.64341913346E+03 0.70035502888E+03 0.73671184517E+03
 0.73671184517E+03 0.71222907481E+03 0.66550972676E+03 0.60070143334E+03 0.52324633119E+03
 0.43915150581E+03 0.35428840342E+03 0.27383593939E+03 0.20191303269E+03 0.14137935712E+03
 0.93751344567E+02 0.59195200718E+02 0.36599975045E+02 0.23763819716E+02 0.17719009726E+02
 0.15178203109E+02 0.13543517104E+02 0.12311100473E+02 0.11385937161E+02 0.10678493826E+02
 0.10122296701E+02 0.96748733983E+01 0.93113310710E+01 0.90169621251E+01 0.87818243422E+01
 0.85979332537E+01 0.84584822291E+01 0.83580463299E+01 0.82928582815E+01 0.82607354446E+01
 0.82607354446E+01 0.82928582815E+01 0.83580463299E+01 0.84584822291E+01 0.85979332537E+01
 0.87818243422E+01 0.90169621251E+01 0.93113310710E+01 0.96748733983E+01 0.10122296701E+02
 0.10678493826E+02 0.11385937161E+02 0.12311100473E+02 0.13543517104E+02 0.15178203109E+02
 0.17719009726E+02 0.23763819716E+02 0.36599975045E+02 0.59195200718E+02 0.93751344567E+02
 0.14137935712E+03 0.20191303269E+03 0.27383593939E+03 0.35428840342E+03 0.43915150581E+03
 0.52324633119E+03 0.60070143334E+03 0.66550972676E+03 0.71222907481E+03 0.73671184517E+03
 0.70035502888E+03 0.66550972676E+03 0.61097270027E+03 0.54148770434E+03 0.46270621901E+03
 0.38047502213E+03 0.30021413032E+03 0.22646427421E+03 0.16261334211E+03 0.11076168093E+03
 0.71679377801E+02 0.44839167948E+02 0.28545852923E+02 0.20193513302E+02 0.16654068569E+02
 0.14859197377E+02 0.13518091762E+02 0.12518851829E+02 0.11767388807E+02 0.11187313894E+02
 0.10726955854E+02 0.10355255893E+02 0.10054311646E+02 0.98129186175E+01 0.96226443320E+01
 0.94763057857E+01 0.93679229031E+01 0.92930897880E+01 0.92490766307E+01 0.92345343819E+01
 0.92490766307E+01 0.92930897880E+01 0.93679229031E+01 0.94763057857E+01 0.96226443320E+01
 0.98129186175E+01 0.10054311646E+02 0.10355255893E+02 0.10726955854E+02 0.11187313894E+02
 0.11767388807E+02 0.12518851829E+02 0.13518091762E+02 0.14859197377E+02 0.16654068569E+02
 0.20193513302E+02 0.28545852923E+02 0.44839167948E+02 0.71679377801E+02 0.11076168093E+03
 0.16261334211E+03 0.22646427421E+03 0.30021413032E+03 0.38047502213E+03 0.46270621901E+03
 0.54148770434E+03 0.61097270027E+03 0.66550972676E+03 0.70035502888E+03 0.71234129318E+03
 0.64341913346E+03 0.60070143334E+03 0.54148770434E+03 0.47079977352E+03 0.39418261246E+03
 0.31705747270E+03 0.24420315020E+03 0.17940639001E+03 0.12526449219E+03 0.83097707809E+02
 0.52943092673E+02 0.33635601508E+02 0.23003936292E+02 0.18196932329E+02 0.16122436610E+02
 0.14694150099E+02 0.13633636068E+02 0.12848113276E+02 0.12254154399E+02 0.11791496766E+02
 0.11422439097E+02 0.11125202289E+02 0.10886864404E+02 0.10698407377E+02 0.10552343312E+02
 0.10442254123E+02 0.10363158422E+02 0.10311794671E+02 0.10286443802E+02 0.10286443802E+02
 0.10311794671E+02 0.10363158422E+02 0.10442254123E+02 0.10552343312E+02 0.10698407377E+02
 0.10886864404E+02 0.11125202289E+02 0.11422439097E+02 0.11791496766E+02 0.12254154399E+02
 0.12848113276E+02 0.13633636068E+02 0.14694150099E+02 0.16122436610E+02 0.18196932329E+02
 0.23003936292E+02 0.33635601508E+02 0.52943092673E+02 0.83097707809E+02 0.12526449219E+03
 0.17940639001E+03 0.24420315020E+03 0.31705747270E+03 0.39418261246E+03 0.47079977352E+03
 0.54148770434E+03 0.60070143334E+03 0.64341913346E+03 0.66581413705E+03 0.66581413705E+03
 0.57081268859E+03 0.52324633119E+03 0.46270621901E+03 0.39418261246E+03 0.32284819312E+03
 0.25350583314E+03 0.19017593657E+03 0.13583330091E+03 0.92266126208E+02 0.60026982320E+02
 0.38469711659E+02 0.25891055565E+02 0.19796525964E+02 0.17281447445E+02 0.15796363239E+02
 0.14694285793E+02 0.13888995076E+02 0.13293768090E+02 0.12841328694E+02 0.12487481376E+02
 0.12206137695E+02 0.11982205235E+02 0.11805843171E+02 0.11669234708E+02 0.11565591071E+02
 0.11489399357E+02 0.11436860519E+02 0.11405888141E+02 0.11395630364E+02 0.11405888141E+02
 0.11436860519E+02 0.11489399357E+02 0.11565591071E+02 0.11669234708E+02 0.11805843171E+02
 0.11982205235E+02 0.12206137695E+02 0.12487481376E+02 0.12841328694E+02 0.13293768090E+02
 0.13888995076E+02 0.14694285793E+02 0.15796363239E+02 0.17281447445E+02 0.19796525964E+02
 0.25891055565E+02 0.38469711659E+02 0.60026982320E+02 0.92266126208E+02 0.13583330091E+03
 0.19017593657E+03 0.25350583314E+03 0.32284819312E+03 0.39418261246E+03 0.46270621901E+03
 0.52324633119E+03 0.57081268859E+03 0.60122271165E+03 0.61168622460E+03 0.60122271165E+03
 0.48838923688E+03 0.43915150581E+03 0.38047502213E+03 0.31705747270E+03 0.25350583314E+03
 0.19388594099E+03 0.14140233803E+03 0.98201496413E+02 0.65275662085E+02 0.42456216366E+02
 0.28506452978E+02 0.21331301974E+02 0.18303756940E+02 0.16779277298E+02 0.15661536248E+02
 0.14855087803E+02 0.14273836625E+02 0.13845822442E+02 0.13521177056E+02 0.13269447084E+02
 0.13073024798E+02 0.12920960098E+02 0.12804987086E+02 0.12717937718E+02 0.12653765802E+02
 0.12608087478E+02 0.12578393888E+02 0.12563666843E+02 0.12563666843E+02 0.12578393888E+02
 0.12608087478E+02 0.12653765802E+02 0.12717937718E+02 0.12804987086E+02 0.12920960098E+02
 0.13073024798E+02 0.13269447084E+02 0.13521177056E+02 0.13845822442E+02 0.14273836625E+02
 0.14855087803E+02 0.15661536248E+02 0.16779277298E+02 0.18303756940E+02 0.21331301974E+02
 0.28506452978E+02 0.42456216366E+02 0.65275662085E+02 0.98201496413E+02 0.14140233803E+03
 0.19388594099E+03 0.25350583314E+03 0.31705747270E+03 0.38047502213E+03 0.43915150581E+03
 0.48838923688E+03 0.52394627094E+03 0.54259709969E+03 0.54259709969E+03 0.52394627094E+03
 0.40221292010E+03 0.35428840342E+03 0.30021413032E+03 0.24420315020E+03 0.19017593657E+03
 0.14140233803E+03 0.10025538269E+03 0.68067667472E+02 0.45081101828E+02 0.30494285204E+02
 0.22620854784E+02 0.19162101387E+02 0.17598607889E+02 0.16495526387E+02 0.15710110567E+02
 0.15160320074E+02 0.14772221694E+02 0.14491685362E+02 0.14284275896E+02 0.14129727258E+02
 0.14015710833E+02 0.13933318223E+02 0.13874908651E+02 0.13833836737E+02 0.13805030559E+02
 0.13785430269E+02 0.13773781676E+02 0.13769883403E+02 0.13773781676E+02 0.13785430269E+02
 0.13805030559E+02 0.13833836737E+02 0.13874908651E+02 0.13933318223E+02 0.14015710833E+02
 0.14129727258E+02 0.14284275896E+02 0.14491685362E+02 0.14772221694E+02 0.15160320074E+02
 0.15710110567E+02 0.16495526387E+02 0.17598607889E+02 0.19162101387E+02 0.22620854784E+02
 0.30494285204E+02 0.45081101828E+02 0.68067667472E+02 0.10025538269E+03 0.14140233803E+03
 0.19017593657E+03 0.24420315020E+03 0.30021413032E+03 0.35428840342E+03 0.40221292010E+03
 0.43993838562E+03 0.46408236540E+03 0.47239374626E+03 0.46408236540E+03 0.43993838562E+03
 0.31791686072E+03 0.27383593939E+03 0.22646427421E+03 0.17940639001E+03 0.13583330091E+03
 0.98201496413E+02 0.68067667472E+02 0.45996925396E+02 0.31567785042E+02 0.23483504239E+02
 0.19793600011E+02 0.18215115214E+02 0.17158973872E+02 0.16418933402E+02 0.15919477668E+02
 0.15587389794E+02 0.15366088885E+02 0.15217961641E+02 0.15120202210E+02 0.15058919078E+02
 0.15024335600E+02 0.15008169745E+02 0.15003040835E+02 0.15003024062E+02 0.15004302897E+02
 0.15005208559E+02 0.15005534573E+02 0.15005534573E+02 0.15005208559E+02 0.15004302897E+02
 0.15003024062E+02 0.15003040835E+02 0.15008169745E+02 0.15024335600E+02 0.15058919078E+02
 0.15120202210E+02 0.15217961641E+02 0.15366088885E+02 0.15587389794E+02 0.15919477668E+02
 0.16418933402E+02 0.17158973872E+02 0.18215115214E+02 0.19793600011E+02 0.23483504239E+02
 0.31567785042E+02 0.45996925396E+02 0.68067667472E+02 0.98201496413E+02 0.13583330091E+03
 0.17940639001E+03 0.22646427421E+03 0.27383593939E+03 0.31791686072E+03 0.35503978444E+03
 0.38190537383E+03 0.39601301959E+03 0.39601301959E+03 0.38190537383E+03 0.35503978444E+03
 0.24023698345E+03 0.20191303269E+03 0.16261334211E+03 0.12526449219E+03 0.92266126208E+02
 0.65275662085E+02 0.45081101828E+02 0.31567785042E+02 0.23787092920E+02 0.20130509562E+02
 0.18598078544E+02 0.17620423435E+02 0.16950342280E+02 0.16520212247E+02 0.16259876575E+02
 0.16112277213E+02 0.16037756942E+02 0.16011363520E+02 0.16017597183E+02 0.16045605028E+02
 0.16086247158E+02 0.16131209329E+02 0.16173491492E+02 0.16208245583E+02 0.16233103623E+02
 0.16247667863E+02 0.16252420878E+02 0.16247667863E+02 0.16233103623E+02 0.16208245583E+02
 0.16173491492E+02 0.16131209329E+02 0.16086247158E+02 0.16045605028E+02 0.16017597183E+02
 0.16011363520E+02 0.16037756942E+02 0.16112277213E+02 0.16259876575E+02 0.16520212247E+02
 0.16950342280E+02 0.17620423435E+02 0.18598078544E+02 0.20130509562E+02 0.23787092920E+02
 0.31567785042E+02 0.45081101828E+02 0.65275662085E+02 0.92266126208E+02 0.12526449219E+03
 0.16261334211E+03 0.20191303269E+03 0.24023698345E+03 0.27442774720E+03 0.30145473014E+03
 0.31879374896E+03 0.32476919301E+03 0.31879374896E+03 0.30145473014E+03 0.27442774720E+03
 0.17273104133E+03 0.14137935712E+03 0.11076168093E+03 0.83097707809E+02 0.60026982320E+02
 0.42456216366E+02 0.30494285204E+02 0.23483504239E+02 0.20130509562E+02 0.18727964918E+02
 0.17857117708E+02 0.17279728541E+02 0.16936492498E+02 0.16762134978E+02 0.16701032024E+02
 0.16712810636E+02 0.16771006911E+02 0.16858636980E+02 0.16963631427E+02 0.17075768097E+02
 0.17185561411E+02 0.17284670225E+02 0.17366886586E+02 0.17428371630E+02 0.17467857906E+02
 0.17486799400E+02 0.17486799400E+02 0.17467857906E+02 0.17428371630E+02 0.17366886586E+02
 0.17284670225E+02 0.17185561411E+02 0.17075768097E+02 0.16963631427E+02 0.16858636980E+02
 0.16771006911E+02 0.16712810636E+02 0.16701032024E+02 0.16762134978E+02 0.16936492498E+02
 0.17279728541E+02 0.17857117708E+02 0.18727964918E+02 0.20130509562E+02 0.23483504239E+02
 0.30494285204E+02 0.42456216366E+02 0.60026982320E+02 0.83097707809E+02 0.11076168093E+03
 0.14137935712E+03 0.17273104133E+03 0.20224655112E+03 0.22729569131E+03 0.24551128213E+03
 0.25510185107E+03 0.25510185107E+03 0.24551128213E+03 0.22729569131E+03 0.20224655112E+03
 0.11763975927E+03 0.93751344567E+02 0.71679377801E+02 0.52943092673E+02 0.38469711659E+02
 0.28506452978E+02 0.22620854784E+02 0.19793600011E+02 0.18598078544E+02 0.17857117708E+02
 0.17391332646E+02 0.17149550147E+02 0.17072651574E+02 0.17108126129E+02 0.17216255608E+02
 0.17369869005E+02 0.17550793540E+02 0.17745711993E+02 0.17943135846E+02 0.18132167650E+02
 0.18302762185E+02 0.18444586807E+02 0.18550663677E+02 0.18621283574E+02 0.18660661885E+02
 0.18673187620E+02 0.18660661885E+02 0.18621283574E+02 0.18550663677E+02 0.18444586807E+02
 0.18302762185E+02 0.18132167650E+02 0.17943135846E+02 0.17745711993E+02 0.17550793540E+02
 0.17369869005E+02 0.17216255608E+02 0.17108126129E+02 0.17072651574E+02 0.17149550147E+02
 0.17391332646E+02 0.17857117708E+02 0.18598078544E+02 0.19793600011E+02 0.22620854784E+02
 0.28506452978E+02 0.38469711659E+02 0.52943092673E+02 0.71679377801E+02 0.93751344567E+02
 0.11763975927E+03 0.14139906923E+03 0.16288505679E+03 0.18002175130E+03 0.19107530484E+03
 0.19489432022E+03 0.19107530484E+03 0.18002175130E+03 0.16288505679E+03 0.14139906923E+03
 0.75839239134E+02 0.59195200718E+02 0.44839167948E+02 0.33635601508E+02 0.25891055565E+02
 0.21331301974E+02 0.19162101387E+02 0.18215115214E+02 0.17620423435E+02 0.17279728541E+02
 0.17149550147E+02 0.17177725529E+02 0.17316203900E+02 0.17527196295E+02 0.17783704921E+02
 0.18066807114E+02 0.18362040123E+02 0.18656553605E+02 0.18937841700E+02 0.19191350270E+02
 0.19399946885E+02 0.19556397198E+02 0.19662873056E+02 0.19726755296E+02 0.19756145885E+02
 0.19756145885E+02 0.19726755296E+02 0.19662873056E+02 0.19556397198E+02 0.19399946885E+02
 0.19191350270E+02 0.18937841700E+02 0.18656553605E+02 0.18362040123E+02 0.18066807114E+02
 0.17783704921E+02 0.17527196295E+02 0.17316203900E+02 0.17177725529E+02 0.17149550147E+02
 0.17279728541E+02 0.17620423435E+02 0.18215115214E+02 0.19162101387E+02 0.21331301974E+02
 0.25891055565E+02 0.33635601508E+02 0.44839167948E+02 0.59195200718E+02 0.75839239134E+02
 0.93449788768E+02 0.11041408460E+03 0.12503930382E+03 0.13578319538E+03 0.14147211586E+03
 0.14147211586E+03 0.13578319538E+03 0.12503930382E+03 0.11041408460E+03 0.93449788768E+02
 0.46866346906E+02 0.36599975045E+02 0.28545852923E+02 0.23003936292E+02 0.19796525964E+02
 0.18303756940E+02 0.17598607889E+02 0.17158973872E+02 0.16950342280E+02 0.16936492498E+02
 0.17072651574E+02 0.17316203900E+02 0.17632360584E+02 0.17995153979E+02 0.18385443445E+02
 0.18787858684E+02 0.19188219719E+02 0.19571891185E+02 0.19916096436E+02 0.20198874305E+02
 0.20412215552E+02 0.20559650043E+02 0.20651642924E+02 0.20700454245E+02 0.20715549118E+02
 0.20700454245E+02 0.20651642924E+02 0.20559650043E+02 0.20412215552E+02 0.20198874305E+02
 0.19916096436E+02 0.19571891185E+02 0.19188219719E+02 0.18787858684E+02 0.18385443445E+02
 0.17995153979E+02 0.17632360584E+02 0.17316203900E+02 0.17072651574E+02 0.16936492498E+02
 0.16950342280E+02 0.17158973872E+02 0.17598607889E+02 0.18303756940E+02 0.19796525964E+02
 0.23003936292E+02 0.28545852923E+02 0.36599975045E+02 0.46866346906E+02 0.58605077354E+02
 0.70739949744E+02 0.82012898086E+02 0.91168119379E+02 0.97139655560E+02 0.99213821205E+02
 0.97139655560E+02 0.91168119379E+02 0.82012898086E+02 0.70739949744E+02 0.58605077354E+02
 0.29040188707E+02 0.23763819716E+02 0.20193513302E+02 0.18196932329E+02 0.17281447445E+02
 0.16779277298E+02 0.16495526387E+02 0.16418933402E+02 0.16520212247E+02 0.16762134978E+02
 0.17108126129E+02 0.17527196295E+02 0.17995153979E+02 0.18493200165E+02 0.19005408121E+02
 0.19516447374E+02 0.20008785721E+02 0.20451126727E+02 0.20816583647E+02 0.21095001010E+02
 0.21290211995E+02 0.21415146735E+02 0.21486122364E+02 0.21517476610E+02 0.21517476610E+02
 0.21486122364E+02 0.21415146735E+02 0.21290211995E+02 0.21095001010E+02 0.20816583647E+02
 0.20451126727E+02 0.20008785721E+02 0.19516447374E+02 0.19005408121E+02 0.18493200165E+02
 0.17995153979E+02 0.17527196295E+02 0.17108126129E+02 0.16762134978E+02 0.16520212247E+02
 0.16418933402E+02 0.16495526387E+02 0.16779277298E+02 0.17281447445E+02 0.18196932329E+02
 0.20193513302E+02 0.23763819716E+02 0.29040188707E+02 0.35777411349E+02 0.43397188563E+02
 0.51085617074E+02 0.57927908194E+02 0.63059295555E+02 0.65808218780E+02 0.65808218780E+02
 0.63059295555E+02 0.57927908194E+02 0.51085617074E+02 0.43397188563E+02 0.35777411349E+02
 0.19715879671E+02 0.17719009726E+02 0.16654068569E+02 0.16122436610E+02 0.15796363239E+02
 0.15661536248E+02 0.15710110567E+02 0.15919477668E+02 0.16259876575E+02 0.16701032024E+02
 0.17216255608E+02 0.17783704921E+02 0.18385443445E+02 0.19005408121E+02 0.19627435841E+02
 0.20231455707E+02 0.20778857001E+02 0.21236488385E+02 0.21590252238E+02 0.21842693256E+02
 0.22008016058E+02 0.22105916297E+02 0.22155516041E+02 0.22170416623E+02 0.22155516041E+02
 0.22105916297E+02 0.22008016058E+02 0.21842693256E+02 0.21590252238E+02 0.21236488385E+02
 0.20778857001E+02 0.20231455707E+02 0.19627435841E+02 0.19005408121E+02 0.18385443445E+02
 0.17783704921E+02 0.17216255608E+02 0.16701032024E+02 0.16259876575E+02 0.15919477668E+02
 0.15710110567E+02 0.15661536248E+02 0.15796363239E+02 0.16122436610E+02 0.16654068569E+02
 0.17719009726E+02 0.19715879671E+02 0.22768911594E+02 0.26715899130E+02 0.31152365643E+02
 0.35516298437E+02 0.39198076210E+02 0.41656364829E+02 0.42519796020E+02 0.41656364829E+02
 0.39198076210E+02 0.35516298437E+02 0.31152365643E+02 0.26715899130E+02 0.22768911594E+02
 0.15678583330E+02 0.15178203109E+02 0.14859197377E+02 0.14694150099E+02 0.14694285793E+02
 0.14855087803E+02 0.15160320074E+02 0.15587389794E+02 0.16112277213E+02 0.16712810636E+02
 0.17369869005E+02 0.18066807114E+02 0.18787858684E+02 0.19516447374E+02 0.20231455707E+02
 0.20889193063E+02 0.21448709138E+02 0.21889896064E+02 0.22211940592E+02 0.22428556303E+02
 0.22561540370E+02 0.22634104725E+02 0.22665141131E+02 0.22665141131E+02 0.22634104725E+02
 0.22561540370E+02 0.22428556303E+02 0.22211940592E+02 0.21889896064E+02 0.21448709138E+02
 0.20889193063E+02 0.20231455707E+02 0.19516447374E+02 0.18787858684E+02 0.18066807114E+02
 0.17369869005E+02 0.16712810636E+02 0.16112277213E+02 0.15587389794E+02 0.15160320074E+02
 0.14855087803E+02 0.14694285793E+02 0.14694150099E+02 0.14859197377E+02 0.15178203109E+02
 0.15678583330E+02 0.16599886565E+02 0.18080250760E+02 0.20049350224E+02 0.22266891007E+02
 0.24390595631E+02 0.26059676077E+02 0.26977496614E+02 0.26977496614E+02 0.26059676077E+02
 0.24390595631E+02 0.22266891007E+02 0.20049350224E+02 0.18080250760E+02 0.16599886565E+02
 0.13699374404E+02 0.13543517104E+02 0.13518091762E+02 0.13633636068E+02 0.13888995076E+02
 0.14273836625E+02 0.14772221694E+02 0.15366088885E+02 0.16037756942E+02 0.16771006911E+02
 0.17550793540E+02 0.18362040123E+02 0.19188219719E+02 0.20008785721E+02 0.20778857001E+02
 0.21448709138E+02 0.21990136171E+02 0.22396572383E+02 0.22678954402E+02 0.22859301924E+02
 0.22963607323E+02 0.23015383443E+02 0.23030740950E+02 0.23015383443E+02 0.22963607323E+02
 0.22859301924E+02 0.22678954402E+02 0.22396572383E+02 0.21990136171E+02 0.21448709138E+02
 0.20778857001E+02 0.20008785721E+02 0.19188219719E+02 0.18362040123E+02 0.17550793540E+02
 0.16771006911E+02 0.16037756942E+02 0.15366088885E+02 0.14772221694E+02 0.14273836625E+02
 0.13888995076E+02 0.13633636068E+02 0.13518091762E+02 0.13543517104E+02 0.13699374404E+02
 0.13962961075E+02 0.14328938765E+02 0.14891138029E+02 0.15663360275E+02 0.16543123004E+02
 0.17361439528E+02 0.17941095795E+02 0.18150444616E+02 0.17941095795E+02 0.17361439528E+02
 0.16543123004E+02 0.15663360275E+02 0.14891138029E+02 0.14328938765E+02 0.13962961075E+02
 0.12222937250E+02 0.12311100473E+02 0.12518851829E+02 0.12848113276E+02 0.13293768090E+02
 0.13845822442E+02 0.14491685362E+02 0.15217961641E+02 0.16011363520E+02 0.16858636980E+02
 0.17745711993E+02 0.18656553605E+02 0.19571891185E+02 0.20451126727E+02 0.21236488385E+02
 0.21889896064E+02 0.22396572383E+02 0.22762020135E+02 0.23006048630E+02 0.23155501344E+02
 0.23237219163E+02 0.23272319419E+02 0.23272319419E+02 0.23237219163E+02 0.23155501344E+02
 0.23006048630E+02 0.22762020135E+02 0.22396572383E+02 0.21889896064E+02 0.21236488385E+02
 0.20451126727E+02 0.19571891185E+02 0.18656553605E+02 0.17745711993E+02 0.16858636980E+02
 0.16011363520E+02 0.15217961641E+02 0.14491685362E+02 0.13845822442E+02 0.13293768090E+02
 0.12848113276E+02 0.12518851829E+02 0.12311100473E+02 0.12222937250E+02 0.12244029459E+02
 0.12355580062E+02 0.12531775946E+02 0.12742788968E+02 0.12977712427E+02 0.13228923799E+02
 0.13448221505E+02 0.13576947383E+02 0.13576947383E+02 0.13448221505E+02 0.13228923799E+02
 0.12977712427E+02 0.12742788968E+02 0.12531775946E+02 0.12355580062E+02 0.12244029459E+02
 0.11110587372E+02 0.11385937161E+02 0.11767388807E+02 0.12254154399E+02 0.12841328694E+02
 0.13521177056E+02 0.14284275896E+02 0.15120202210E+02 0.16017597183E+02 0.16963631427E+02
 0.17943135846E+02 0.18937841700E+02 0.19916096436E+02 0.20816583647E+02 0.21590252238E+02
 0.22211940592E+02 0.22678954402E+02 0.23006048630E+02 0.23218408271E+02 0.23344278070E+02
 0.23408542115E+02 0.23427995426E+02 0.23408542115E+02 0.23344278070E+02 0.23218408271E+02
 0.23006048630E+02 0.22678954402E+02 0.22211940592E+02 0.21590252238E+02 0.20816583647E+02
 0.19916096436E+02 0.18937841700E+02 0.17943135846E+02 0.16963631427E+02 0.16017597183E+02
 0.15120202210E+02 0.14284275896E+02 0.13521177056E+02 0.12841328694E+02 0.12254154399E+02
 0.11767388807E+02 0.11385937161E+02 0.11110587372E+02 0.10936930663E+02 0.10854827298E+02
 0.10848656960E+02 0.10898425666E+02 0.10981603897E+02 0.11075409500E+02 0.11159177418E+02
 0.11216485568E+02 0.11236797449E+02 0.11216485568E+02 0.11159177418E+02 0.11075409500E+02
 0.10981603897E+02 0.10898425666E+02 0.10848656960E+02 0.10854827298E+02 0.10936930663E+02
 0.10265793895E+02 0.10678493826E+02 0.11187313894E+02 0.11791496766E+02 0.12487481376E+02
 0.13269447084E+02 0.14129727258E+02 0.15058919078E+02 0.16045605028E+02 0.17075768097E+02
 0.18132167650E+02 0.19191350270E+02 0.20198874305E+02 0.21095001010E+02 0.21842693256E+02
 0.22428556303E+02 0.22859301924E+02 0.23155501344E+02 0.23344278070E+02 0.23452404798E+02
 0.23500789493E+02 0.23500789493E+02 0.23452404798E+02 0.23344278070E+02 0.23155501344E+02
 0.22859301924E+02 0.22428556303E+02 0.21842693256E+02 0.21095001010E+02 0.20198874305E+02
 0.19191350270E+02 0.18132167650E+02 0.17075768097E+02 0.16045605028E+02 0.15058919078E+02
 0.14129727258E+02 0.13269447084E+02 0.12487481376E+02 0.11791496766E+02 0.11187313894E+02
 0.10678493826E+02 0.10265793895E+02 0.99466761461E+01 0.97150196015E+01 0.95611484995E+01
 0.94722514610E+01 0.94332216010E+01 0.94278858148E+01 0.94405171747E+01 0.94574540549E+01
 0.94686038147E+01 0.94686038147E+01 0.94574540549E+01 0.94405171747E+01 0.94278858148E+01
 0.94332216010E+01 0.94722514610E+01 0.95611484995E+01 0.97150196015E+01 0.99466761461E+01
 0.96085586175E+01 0.10122296701E+02 0.10726955854E+02 0.11422439097E+02 0.12206137695E+02
 0.13073024798E+02 0.14015710833E+02 0.15024335600E+02 0.16086247158E+02 0.17185561411E+02
 0.18302762185E+02 0.19399946885E+02 0.20412215552E+02 0.21290211995E+02 0.22008016058E+02
 0.22561540370E+02 0.22963607323E+02 0.23237219163E+02 0.23408542115E+02 0.23500789493E+02
 0.23529691851E+02 0.23500789493E+02 0.23408542115E+02 0.23237219163E+02 0.22963607323E+02
 0.22561540370E+02 0.22008016058E+02 0.21290211995E+02 0.20412215552E+02 0.19399946885E+02
 0.18302762185E+02 0.17185561411E+02 0.16086247158E+02 0.15024335600E+02 0.14015710833E+02
 0.13073024798E+02 0.12206137695E+02 0.11422439097E+02 0.10726955854E+02 0.10122296701E+02
 0.96085586175E+01 0.91833094059E+01 0.88416995866E+01 0.85766994083E+01 0.83794400247E+01
 0.82396608696E+01 0.81462970863E+01 0.80882444115E+01 0.80552951522E+01 0.80391597389E+01
 0.80344114222E+01 0.80391597389E+01 0.80552951522E+01 0.80882444115E+01 0.81462970863E+01
 0.82396608696E+01 0.83794400247E+01 0.85766994083E+01 0.88416995866E+01 0.91833094059E+01
 0.90838591526E+01 0.96748733983E+01 0.10355255893E+02 0.11125202289E+02 0.11982205235E+02
 0.12920960098E+02 0.13933318223E+02 0.15008169745E+02 0.16131209329E+02 0.17284670225E+02
 0.18444586807E+02 0.19556397198E+02 0.20559650043E+02 0.21415146735E+02 0.22105916297E+02
 0.22634104725E+02 0.23015383443E+02 0.23272319419E+02 0.23427995426E+02 0.23500789493E+02
 0.23500789493E+02 0.23427995426E+02 0.23272319419E+02 0.23015383443E+02 0.22634104725E+02
 0.22105916297E+02 0.21415146735E+02 0.20559650043E+02 0.19556397198E+02 0.18444586807E+02
 0.17284670225E+02 0.16131209329E+02 0.15008169745E+02 0.13933318223E+02 0.12920960098E+02
 0.11982205235E+02 0.11125202289E+02 0.10355255893E+02 0.96748733983E+01 0.90838591526E+01
 0.85795576800E+01 0.81572672409E+01 0.78107589527E+01 0.75327967251E+01 0.73155798022E+01
 0.71511019152E+01 0.70314914333E+01 0.69494188738E+01 0.68986138939E+01 0.68744463758E+01
 0.68744463758E+01 0.68986138939E+01 0.69494188738E+01 0.70314914333E+01 0.71511019152E+01
 0.73155798022E+01 0.75327967251E+01 0.78107589527E+01 0.81572672409E+01 0.85795576800E+01
 0.86580568645E+01 0.93113310710E+01 0.10054311646E+02 0.10886864404E+02 0.11805843171E+02
 0.12804987086E+02 0.13874908651E+02 0.15003040835E+02 0.16173491492E+02 0.17366886586E+02
 0.18550663677E+02 0.19662873056E+02 0.20651642924E+02 0.21486122364E+02 0.22155516041E+02
 0.22665141131E+02 0.23030740950E+02 0.23272319419E+02 0.23408542115E+02 0.23452404798E+02
 0.23408542115E+02 0.23272319419E+02 0.23030740950E+02 0.22665141131E+02 0.22155516041E+02
 0.21486122364E+02 0.20651642924E+02 0.19662873056E+02 0.18550663677E+02 0.17366886586E+02
 0.16173491492E+02 0.15003040835E+02 0.13874908651E+02 0.12804987086E+02 0.11805843171E+02
 0.10886864404E+02 0.10054311646E+02 0.93113310710E+01 0.86580568645E+01 0.80919245104E+01
 0.76082263494E+01 0.72008308915E+01 0.68629155265E+01 0.65875645555E+01 0.63681566735E+01
 0.61985682224E+01 0.60732954930E+01 0.59876099605E+01 0.59378016623E+01 0.59214758061E+01
 0.59378016623E+01 0.59876099605E+01 0.60732954930E+01 0.61985682224E+01 0.63681566735E+01
 0.65875645555E+01 0.68629155265E+01 0.72008308915E+01 0.76082263494E+01 0.80919245104E+01
 0.83114900900E+01 0.90169621251E+01 0.98129186175E+01 0.10698407377E+02 0.11669234708E+02
 0.12717937718E+02 0.13833836737E+02 0.15003024062E+02 0.16208245583E+02 0.17428371630E+02
 0.18621283574E+02 0.19726755296E+02 0.20700454245E+02 0.21517476610E+02 0.22170416623E+02
 0.22665141131E+02 0.23015383443E+02 0.23237219163E+02 0.23344278070E+02 0.23344278070E+02
 0.23237219163E+02 0.23015383443E+02 0.22665141131E+02 0.22170416623E+02 0.21517476610E+02
 0.20700454245E+02 0.19726755296E+02 0.18621283574E+02 0.17428371630E+02 0.16208245583E+02
 0.15003024062E+02 0.13833836737E+02 0.12717937718E+02 0.11669234708E+02 0.10698407377E+02
 0.98129186175E+01 0.90169621251E+01 0.83114900900E+01 0.76944718627E+01 0.71614510552E+01
 0.67063434712E+01 0.63223165030E+01 0.60025598488E+01 0.57408085699E+01 0.55315853007E+01
 0.53702367112E+01 0.52528977651E+01 0.51765007722E+01 0.51388716096E+01 0.51388716096E+01
 0.51765007722E+01 0.52528977651E+01 0.53702367112E+01 0.55315853007E+01 0.57408085699E+01
 0.60025598488E+01 0.63223165030E+01 0.67063434712E+01 0.71614510552E+01 0.76944718627E+01
 0.80318757416E+01 0.87818243422E+01 0.96226443320E+01 0.10552343312E+02 0.11565591071E+02
 0.12653765802E+02 0.13805030559E+02 0.15004302897E+02 0.16233103623E+02 0.17467857906E+02
 0.18660661885E+02 0.19756145885E+02 0.20715549118E+02 0.21517476610E+02 0.22155516041E+02
 0.22634104725E+02 0.22963607323E+02 0.23155501344E+02 0.23218408271E+02 0.23155501344E+02
 0.22963607323E+02 0.22634104725E+02 0.22155516041E+02 0.21517476610E+02 0.20715549118E+02
 0.19756145885E+02 0.18660661885E+02 0.17467857906E+02 0.16233103623E+02 0.15004302897E+02
 0.13805030559E+02 0.12653765802E+02 0.11565591071E+02 0.10552343312E+02 0.96226443320E+01
 0.87818243422E+01 0.80318757416E+01 0.73716110364E+01 0.67971354555E+01 0.63026191384E+01
 0.58812305043E+01 0.55260286257E+01 0.52306329965E+01 0.49895803791E+01 0.47983967706E+01
 0.46535034869E+01 0.45521001858E+01 0.44921207219E+01 0.44722747725E+01 0.44921207219E+01
 0.45521001858E+01 0.46535034869E+01 0.47983967706E+01 0.49895803791E+01 0.52306329965E+01
 0.55260286257E+01 0.58812305043E+01 0.63026191384E+01 0.67971354555E+01 0.73716110364E+01
 0.78101698896E+01 0.85979332537E+01 0.94763057857E+01 0.10442254123E+02 0.11489399357E+02
 0.12608087478E+02 0.13785430269E+02 0.15005208559E+02 0.16247667863E+02 0.17486799400E+02
 0.18673187620E+02 0.19756145885E+02 0.20700454245E+02 0.21486122364E+02 0.22105916297E+02
 0.22561540370E+02 0.22859301924E+02 0.23006048630E+02 0.23006048630E+02 0.22859301924E+02
 0.22561540370E+02 0.22105916297E+02 0.21486122364E+02 0.20700454245E+02 0.19756145885E+02
 0.18673187620E+02 0.17486799400E+02 0.16247667863E+02 0.15005208559E+02 0.13785430269E+02
 0.12608087478E+02 0.11489399357E+02 0.10442254123E+02 0.94763057857E+01 0.85979332537E+01
 0.78101698896E+01 0.71127793137E+01 0.65026206725E+01 0.59743356785E+01 0.55212586813E+01
 0.51363614333E+01 0.48130326855E+01 0.45455593677E+01 0.43292884364E+01 0.41605559925E+01
 0.40365261026E+01 0.39550657468E+01 0.39147124172E+01 0.39147124172E+01 0.39550657468E+01
 0.40365261026E+01 0.41605559925E+01 0.43292884364E+01 0.45455593677E+01 0.48130326855E+01
 0.51363614333E+01 0.55212586813E+01 0.59743356785E+01 0.65026206725E+01 0.71127793137E+01
 0.76388194774E+01 0.84584822291E+01 0.93679229031E+01 0.10363158422E+02 0.11436860519E+02
 0.12578393888E+02 0.13773781676E+02 0.15005534573E+02 0.16252420878E+02 0.17486799400E+02
 0.18660661885E+02 0.19726755296E+02 0.20651642924E+02 0.21415146735E+02 0.22008016058E+02
 0.22428556303E+02 0.22678954402E+02 0.22762020135E+02 0.22678954402E+02 0.22428556303E+02
 0.22008016058E+02 0.21415146735E+02 0.20651642924E+02 0.19726755296E+02 0.18660661885E+02
 0.17486799400E+02 0.16252420878E+02 0.15005534573E+02 0.13773781676E+02 0.12578393888E+02
 0.11436860519E+02 0.10363158422E+02 0.93679229031E+01 0.84584822291E+01 0.76388194774E+01
 0.69096169873E+01 0.62685389699E+01 0.57108224647E+01 0.52301222515E+01 0.48194516473E+01
 0.44720226461E+01 0.41818277807E+01 0.39439020777E+01 0.37543138350E+01 0.36100099612E+01
 0.35086541019E+01 0.34485456882E+01 0.34286296342E+01 0.34485456882E+01 0.35086541019E+01
 0.36100099612E+01 0.37543138350E+01 0.39439020777E+01 0.41818277807E+01 0.44720226461E+01
 0.48194516473E+01 0.52301222515E+01 0.57108224647E+01 0.62685389699E+01 0.69096169873E+01
 0.75115361517E+01 0.83580463299E+01 0.92930897880E+01 0.10311794671E+02 0.11405888141E+02
 0.12563666843E+02 0.13769883403E+02 0.15005534573E+02 0.16247667863E+02 0.17467857906E+02