   2   2   1   0
  0.2258839E+02  0.3997699E-09  0.3997699E-09  0.3997699E-09  0.5000000E-15
  1.000000000000000E-004
  CAR 
 Name                                    
     20.93108079    -15.60848327  301      3.65091195      1.00000000
    -15.608  0.0000E+00  0.0000E+00
    -15.487  0.0000E+00  0.0000E+00
    -15.365  0.0000E+00  0.0000E+00
    -15.243  0.0000E+00  0.0000E+00
    -15.121  0.0000E+00  0.0000E+00
    -14.999  0.0000E+00  0.0000E+00
    -14.878  0.0000E+00  0.0000E+00
    -14.756  0.0000E+00  0.0000E+00
    -14.634  0.0000E+00  0.0000E+00
    -14.512  0.0000E+00  0.0000E+00
    -14.390  0.0000E+00  0.0000E+00
    -14.269  0.0000E+00  0.0000E+00
    -14.147  0.0000E+00  0.0000E+00
    -14.025  0.0000E+00  0.0000E+00
    -13.903  0.1386E+02  0.1689E+01
    -13.782  0.5412E+02  0.8611E+01
    -13.660  0.0000E+00  0.1000E+02
    -13.538  0.0000E+00  0.1000E+02
    -13.416  0.0000E+00  0.1000E+02
    -13.294  0.0000E+00  0.1000E+02
    -13.173  0.0000E+00  0.1000E+02
    -13.051  0.0000E+00  0.1000E+02
    -12.929  0.0000E+00  0.1000E+02
    -12.807  0.0000E+00  0.1000E+02
    -12.685  0.0000E+00  0.1000E+02
    -12.564  0.0000E+00  0.1000E+02
    -12.442  0.0000E+00  0.1000E+02
    -12.320  0.0000E+00  0.1000E+02
    -12.198  0.0000E+00  0.1000E+02
    -12.076  0.0000E+00  0.1000E+02
    -11.955  0.0000E+00  0.1000E+02
    -11.833  0.0000E+00  0.1000E+02
    -11.711  0.0000E+00  0.1000E+02
    -11.589  0.0000E+00  0.1000E+02
    -11.467  0.0000E+00  0.1000E+02
    -11.346  0.0000E+00  0.1000E+02
    -11.224  0.0000E+00  0.1000E+02
    -11.102  0.0000E+00  0.1000E+02
    -10.980  0.0000E+00  0.1000E+02
    -10.858  0.0000E+00  0.1000E+02
    -10.737  0.0000E+00  0.1000E+02
    -10.615  0.0000E+00  0.1000E+02
    -10.493  0.1993E-07  0.1000E+02
    -10.371  0.0000E+00  0.1001E+02
    -10.249  0.0000E+00  0.1001E+02
    -10.128  0.1282E-01  0.1001E+02
    -10.006  0.5073E-01  0.1009E+02
     -9.884  0.0000E+00  0.1014E+02
     -9.762  0.0000E+00  0.1014E+02
     -9.640  0.0000E+00  0.1014E+02
     -9.519  0.9123E+00  0.1025E+02
     -9.397  0.0000E+00  0.1025E+02
     -9.275  0.2099E+00  0.1028E+02
     -9.153  0.6082E+00  0.1055E+02
     -9.031  0.0000E+00  0.1055E+02
     -8.910  0.0000E+00  0.1055E+02
     -8.788  0.9751E-05  0.1055E+02
     -8.666  0.2667E-03  0.1060E+02
     -8.544  0.5406E-01  0.1083E+02
     -8.422  0.1825E+01  0.1108E+02
     -8.301  0.0000E+00  0.1131E+02
     -8.179  0.0000E+00  0.1131E+02
     -8.057  0.2026E-15  0.1131E+02
     -7.935  0.2379E+01  0.1160E+02
     -7.813  0.0000E+00  0.1186E+02
     -7.692  0.2297E+00  0.1189E+02
     -7.570  0.0000E+00  0.1200E+02
     -7.448  0.0000E+00  0.1200E+02
     -7.326  0.0000E+00  0.1200E+02
     -7.204  0.0000E+00  0.1200E+02
     -7.083  0.0000E+00  0.1200E+02
     -6.961  0.0000E+00  0.1200E+02
     -6.839  0.0000E+00  0.1200E+02
     -6.717  0.0000E+00  0.1200E+02
     -6.595  0.0000E+00  0.1200E+02
     -6.474  0.0000E+00  0.1200E+02
     -6.352  0.0000E+00  0.1200E+02
     -6.230  0.0000E+00  0.1200E+02
     -6.108  0.0000E+00  0.1200E+02
     -5.986  0.0000E+00  0.1200E+02
     -5.865  0.0000E+00  0.1200E+02
     -5.743  0.0000E+00  0.1200E+02
     -5.621  0.0000E+00  0.1200E+02
     -5.499  0.0000E+00  0.1200E+02
     -5.377  0.0000E+00  0.1200E+02
     -5.256  0.0000E+00  0.1200E+02
     -5.134  0.0000E+00  0.1200E+02
     -5.012  0.0000E+00  0.1200E+02
     -4.890  0.0000E+00  0.1200E+02
     -4.768  0.0000E+00  0.1200E+02
     -4.647  0.0000E+00  0.1200E+02
     -4.525  0.0000E+00  0.1200E+02
     -4.403  0.0000E+00  0.1200E+02
     -4.281  0.0000E+00  0.1200E+02
     -4.159  0.0000E+00  0.1200E+02
     -4.038  0.0000E+00  0.1200E+02
     -3.916  0.1527E-09  0.1200E+02
     -3.794  0.2281E+00  0.1203E+02
     -3.672  0.1216E+01  0.1218E+02
     -3.550  0.3332E-10  0.1218E+02
     -3.429  0.2743E+01  0.1251E+02
     -3.307  0.0000E+00  0.1295E+02
     -3.185  0.0000E+00  0.1295E+02
     -3.063  0.0000E+00  0.1295E+02
     -2.941  0.5751E+00  0.1302E+02
     -2.820  0.0000E+00  0.1318E+02
     -2.698  0.1825E+01  0.1340E+02
     -2.576  0.0000E+00  0.1340E+02
     -2.454  0.0000E+00  0.1340E+02
     -2.332  0.4706E-12  0.1340E+02
     -2.211  0.1057E+01  0.1353E+02
     -2.089  0.0000E+00  0.1353E+02
     -1.967  0.0000E+00  0.1353E+02
     -1.845  0.0000E+00  0.1353E+02
     -1.723  0.0000E+00  0.1353E+02
     -1.602  0.9115E-15  0.1353E+02
     -1.480  0.1825E+01  0.1375E+02
     -1.358  0.0000E+00  0.1375E+02
     -1.236  0.0000E+00  0.1375E+02
     -1.114  0.0000E+00  0.1375E+02
     -0.993  0.0000E+00  0.1375E+02
     -0.871  0.1955E-03  0.1375E+02
     -0.749  0.9123E+00  0.1397E+02
     -0.627  0.0000E+00  0.1397E+02
     -0.505  0.0000E+00  0.1397E+02
     -0.384  0.1825E+01  0.1419E+02
     -0.262  0.0000E+00  0.1419E+02
     -0.140  0.6013E-04  0.1419E+02
     -0.018  0.1077E+01  0.1444E+02
      0.104  0.2737E+01  0.1486E+02
      0.225  0.0000E+00  0.1486E+02
      0.347  0.0000E+00  0.1486E+02
      0.469  0.1105E-02  0.1486E+02
      0.591  0.1223E-01  0.1508E+02
      0.713  0.4773E+00  0.1520E+02
      0.834  0.4561E+00  0.1549E+02
      0.956  0.1823E+01  0.1594E+02
      1.078  0.1125E-03  0.1594E+02
      1.200  0.0000E+00  0.1605E+02
      1.322  0.2449E+01  0.1634E+02
      1.443  0.9123E+00  0.1649E+02
      1.565  0.1530E+01  0.1668E+02
      1.687  0.3342E-14  0.1671E+02
      1.809  0.1853E+01  0.1694E+02
      1.931  0.0000E+00  0.1716E+02
      2.052  0.0000E+00  0.1716E+02
      2.174  0.3359E-09  0.1716E+02
      2.296  0.2428E+01  0.1745E+02
      2.418  0.9830E-02  0.1745E+02
      2.540  0.1216E+01  0.1771E+02
      2.661  0.0000E+00  0.1771E+02
      2.783  0.0000E+00  0.1771E+02
      2.905  0.2854E-08  0.1771E+02
      3.027  0.0000E+00  0.1782E+02
      3.148  0.1216E+01  0.1797E+02
      3.270  0.0000E+00  0.1797E+02
      3.392  0.0000E+00  0.1797E+02
      3.514  0.1776E+00  0.1799E+02
      3.636  0.0000E+00  0.1800E+02
      3.757  0.0000E+00  0.1800E+02
      3.879  0.0000E+00  0.1800E+02
      4.001  0.0000E+00  0.1800E+02
      4.123  0.0000E+00  0.1800E+02
      4.245  0.0000E+00  0.1800E+02
      4.366  0.0000E+00  0.1800E+02
      4.488  0.0000E+00  0.1800E+02
      4.610  0.0000E+00  0.1800E+02
      4.732  0.0000E+00  0.1800E+02
      4.854  0.0000E+00  0.1800E+02
      4.975  0.7602E-01  0.1801E+02
      5.097  0.0000E+00  0.1801E+02
      5.219  0.2140E-13  0.1801E+02
      5.341  0.3041E+00  0.1805E+02
      5.463  0.3083E-09  0.1805E+02
      5.584  0.7989E+00  0.1814E+02
      5.706  0.1945E-03  0.1815E+02
      5.828  0.1369E-01  0.1821E+02
      5.950  0.1200E-01  0.1823E+02
      6.072  0.1825E+01  0.1853E+02
      6.193  0.0000E+00  0.1853E+02
      6.315  0.0000E+00  0.1853E+02
      6.437  0.3582E-03  0.1853E+02
      6.559  0.2212E-06  0.1864E+02
      6.681  0.0000E+00  0.1886E+02
      6.802  0.4000E+01  0.1935E+02
      6.924  0.4561E+00  0.1942E+02
      7.046  0.9123E+00  0.1953E+02
      7.168  0.0000E+00  0.1953E+02
      7.290  0.0000E+00  0.1953E+02
      7.411  0.9881E-07  0.1953E+02
      7.533  0.9123E+00  0.1969E+02
      7.655  0.1825E+01  0.1992E+02
      7.777  0.2260E+01  0.2019E+02
      7.899  0.0000E+00  0.2025E+02
      8.020  0.1825E+01  0.2047E+02
      8.142  0.8685E-06  0.2050E+02
      8.264  0.1741E+01  0.2093E+02
      8.386  0.0000E+00  0.2094E+02
      8.508  0.0000E+00  0.2094E+02
      8.629  0.7858E+00  0.2104E+02
      8.751  0.1223E-08  0.2131E+02
      8.873  0.2737E+01  0.2165E+02
      8.995  0.1520E+01  0.2183E+02
      9.117  0.3649E+01  0.2228E+02
      9.238  0.0000E+00  0.2228E+02
      9.360  0.3579E-05  0.2228E+02
      9.482  0.0000E+00  0.2250E+02
      9.604  0.0000E+00  0.2250E+02
      9.726  0.1815E+01  0.2272E+02
      9.847  0.0000E+00  0.2283E+02
      9.969  0.3137E+00  0.2287E+02
     10.091  0.9122E+00  0.2317E+02
     10.213  0.1824E+01  0.2339E+02
     10.335  0.9222E-13  0.2339E+02
     10.456  0.9123E+00  0.2350E+02
     10.578  0.1825E+01  0.2372E+02
     10.700  0.1804E-01  0.2372E+02
     10.822  0.0000E+00  0.2394E+02
     10.944  0.0000E+00  0.2394E+02
     11.065  0.0000E+00  0.2394E+02
     11.187  0.0000E+00  0.2394E+02
     11.309  0.0000E+00  0.2394E+02
     11.431  0.0000E+00  0.2394E+02
     11.553  0.1824E+01  0.2417E+02
     11.674  0.2489E+01  0.2447E+02
     11.796  0.1518E+01  0.2468E+02
     11.918  0.1070E+01  0.2487E+02
     12.040  0.2140E-10  0.2507E+02
     12.162  0.1183E+01  0.2522E+02
     12.283  0.2737E+01  0.2556E+02
     12.405  0.9122E+00  0.2568E+02
     12.527  0.0000E+00  0.2590E+02
     12.649  0.3773E+00  0.2594E+02
     12.771  0.0000E+00  0.2601E+02
     12.892  0.7371E-05  0.2601E+02
     13.014  0.0000E+00  0.2623E+02
     13.136  0.1118E-02  0.2623E+02
     13.258  0.8405E+00  0.2656E+02
     13.380  0.5939E-01  0.2659E+02
     13.501  0.2533E+01  0.2711E+02
     13.623  0.0000E+00  0.2725E+02
     13.745  0.0000E+00  0.2725E+02
     13.867  0.0000E+00  0.2725E+02
     13.989  0.1825E+01  0.2747E+02
     14.110  0.2918E+00  0.2751E+02
     14.232  0.1217E+01  0.2773E+02
     14.354  0.7534E-07  0.2779E+02
     14.476  0.9123E+00  0.2812E+02
     14.598  0.1498E+00  0.2814E+02
     14.719  0.0000E+00  0.2836E+02
     14.841  0.0000E+00  0.2836E+02
     14.963  0.2975E-14  0.2836E+02
     15.085  0.9085E+00  0.2847E+02
     15.207  0.0000E+00  0.2851E+02
     15.328  0.1186E+01  0.2865E+02
     15.450  0.1833E+01  0.2907E+02
     15.572  0.0000E+00  0.2929E+02
     15.694  0.0000E+00  0.2929E+02
     15.816  0.2051E+01  0.2954E+02
     15.937  0.0000E+00  0.2965E+02
     16.059  0.0000E+00  0.2965E+02
     16.181  0.3743E-08  0.2965E+02
     16.303  0.0000E+00  0.2987E+02
     16.425  0.1825E+01  0.3009E+02
     16.546  0.8918E+00  0.3026E+02
     16.668  0.0000E+00  0.3044E+02
     16.790  0.7262E-13  0.3044E+02
     16.912  0.1930E+01  0.3068E+02
     17.034  0.9123E+00  0.3100E+02
     17.155  0.0000E+00  0.3100E+02
     17.277  0.0000E+00  0.3100E+02
     17.399  0.0000E+00  0.3100E+02
     17.521  0.4417E-01  0.3101E+02
     17.643  0.6077E-15  0.3122E+02
     17.764  0.1825E+01  0.3144E+02
     17.886  0.4562E+00  0.3150E+02
     18.008  0.4550E+00  0.3178E+02
     18.130  0.9123E+00  0.3189E+02
     18.252  0.0000E+00  0.3189E+02
     18.373  0.0000E+00  0.3189E+02
     18.495  0.0000E+00  0.3189E+02
     18.617  0.0000E+00  0.3189E+02
     18.739  0.0000E+00  0.3189E+02
     18.861  0.0000E+00  0.3189E+02
     18.982  0.6149E-05  0.3189E+02
     19.104  0.0000E+00  0.3200E+02
     19.226  0.0000E+00  0.3200E+02
     19.348  0.0000E+00  0.3200E+02
     19.469  0.0000E+00  0.3200E+02
     19.591  0.0000E+00  0.3200E+02
     19.713  0.0000E+00  0.3200E+02
     19.835  0.0000E+00  0.3200E+02
     19.957  0.0000E+00  0.3200E+02
     20.078  0.0000E+00  0.3200E+02
     20.200  0.0000E+00  0.3200E+02
     20.322  0.0000E+00  0.3200E+02
     20.444  0.0000E+00  0.3200E+02
     20.566  0.0000E+00  0.3200E+02
     20.687  0.0000E+00  0.3200E+02
     20.809  0.0000E+00  0.3200E+02
     20.931  0.0000E+00  0.3200E+02
     20.93108079    -15.60848327  301      3.65091195      1.00000000
    -15.608  0.0000E+00  0.0000E+00  0.0000E+00
    -15.487  0.0000E+00  0.0000E+00  0.0000E+00
    -15.365  0.0000E+00  0.0000E+00  0.0000E+00
    -15.243  0.0000E+00  0.0000E+00  0.0000E+00
    -15.121  0.0000E+00  0.0000E+00  0.0000E+00
    -14.999  0.0000E+00  0.0000E+00  0.0000E+00
    -14.878  0.0000E+00  0.0000E+00  0.0000E+00
    -14.756  0.0000E+00  0.0000E+00  0.0000E+00
    -14.634  0.0000E+00  0.0000E+00  0.0000E+00
    -14.512  0.0000E+00  0.0000E+00  0.0000E+00
    -14.390  0.0000E+00  0.0000E+00  0.0000E+00
    -14.269  0.0000E+00  0.0000E+00  0.0000E+00
    -14.147  0.0000E+00  0.0000E+00  0.0000E+00
    -14.025  0.0000E+00  0.0000E+00  0.0000E+00
    -13.903  0.3365E-02  0.6860E-02  0.1341E+02
    -13.782  0.4738E-03  0.2030E-02  0.5352E+02
    -13.660  0.0000E+00  0.0000E+00  0.0000E+00
    -13.538  0.0000E+00  0.0000E+00  0.0000E+00
    -13.416  0.0000E+00  0.0000E+00  0.0000E+00
    -13.294  0.0000E+00  0.0000E+00  0.0000E+00
    -13.173  0.0000E+00  0.0000E+00  0.0000E+00
    -13.051  0.0000E+00  0.0000E+00  0.0000E+00
    -12.929  0.0000E+00  0.0000E+00  0.0000E+00
    -12.807  0.0000E+00  0.0000E+00  0.0000E+00
    -12.685  0.0000E+00  0.0000E+00  0.0000E+00
    -12.564  0.0000E+00  0.0000E+00  0.0000E+00
    -12.442  0.0000E+00  0.0000E+00  0.0000E+00
    -12.320  0.0000E+00  0.0000E+00  0.0000E+00
    -12.198  0.0000E+00  0.0000E+00  0.0000E+00
    -12.076  0.0000E+00  0.0000E+00  0.0000E+00
    -11.955  0.0000E+00  0.0000E+00  0.0000E+00
    -11.833  0.0000E+00  0.0000E+00  0.0000E+00
    -11.711  0.0000E+00  0.0000E+00  0.0000E+00
    -11.589  0.0000E+00  0.0000E+00  0.0000E+00
    -11.467  0.0000E+00  0.0000E+00  0.0000E+00
    -11.346  0.0000E+00  0.0000E+00  0.0000E+00
    -11.224  0.0000E+00  0.0000E+00  0.0000E+00
    -11.102  0.0000E+00  0.0000E+00  0.0000E+00
    -10.980  0.0000E+00  0.0000E+00  0.0000E+00
    -10.858  0.0000E+00  0.0000E+00  0.0000E+00
    -10.737  0.0000E+00  0.0000E+00  0.0000E+00
    -10.615  0.0000E+00  0.0000E+00  0.0000E+00
    -10.493  0.3481E-08  0.7944E-19  0.1149E-18
    -10.371  0.0000E+00  0.0000E+00  0.0000E+00
    -10.249  0.0000E+00  0.0000E+00  0.0000E+00
    -10.128  0.2098E-02  0.6487E-04  0.8314E-04
    -10.006  0.8091E-02  0.3528E-03  0.4085E-03
     -9.884  0.0000E+00  0.0000E+00  0.0000E+00
     -9.762  0.0000E+00  0.0000E+00  0.0000E+00
     -9.640  0.0000E+00  0.0000E+00  0.0000E+00
     -9.519  0.1313E+00  0.1204E-01  0.1339E-01
     -9.397  0.0000E+00  0.0000E+00  0.0000E+00
     -9.275  0.2734E-01  0.3856E-02  0.3856E-02
     -9.153  0.7807E-01  0.1114E-01  0.1248E-01
     -9.031  0.0000E+00  0.0000E+00  0.0000E+00
     -8.910  0.0000E+00  0.0000E+00  0.0000E+00
     -8.788  0.9895E-06  0.2802E-06  0.2243E-06
     -8.666  0.2572E-04  0.7520E-05  0.7459E-05
     -8.544  0.4803E-02  0.1554E-02  0.1719E-02
     -8.422  0.1547E+00  0.5952E-01  0.5158E-01
     -8.301  0.0000E+00  0.0000E+00  0.0000E+00
     -8.179  0.0000E+00  0.0000E+00  0.0000E+00
     -8.057  0.7998E-17  0.9225E-17  0.6853E-17
     -7.935  0.9143E-01  0.1079E+00  0.8235E-01
     -7.813  0.0000E+00  0.0000E+00  0.0000E+00
     -7.692  0.9197E-12  0.1300E-01  0.8474E-02
     -7.570  0.0000E+00  0.0000E+00  0.0000E+00
     -7.448  0.0000E+00  0.0000E+00  0.0000E+00
     -7.326  0.0000E+00  0.0000E+00  0.0000E+00
     -7.204  0.0000E+00  0.0000E+00  0.0000E+00
     -7.083  0.0000E+00  0.0000E+00  0.0000E+00
     -6.961  0.0000E+00  0.0000E+00  0.0000E+00
     -6.839  0.0000E+00  0.0000E+00  0.0000E+00
     -6.717  0.0000E+00  0.0000E+00  0.0000E+00
     -6.595  0.0000E+00  0.0000E+00  0.0000E+00
     -6.474  0.0000E+00  0.0000E+00  0.0000E+00
     -6.352  0.0000E+00  0.0000E+00  0.0000E+00
     -6.230  0.0000E+00  0.0000E+00  0.0000E+00
     -6.108  0.0000E+00  0.0000E+00  0.0000E+00
     -5.986  0.0000E+00  0.0000E+00  0.0000E+00
     -5.865  0.0000E+00  0.0000E+00  0.0000E+00
     -5.743  0.0000E+00  0.0000E+00  0.0000E+00
     -5.621  0.0000E+00  0.0000E+00  0.0000E+00
     -5.499  0.0000E+00  0.0000E+00  0.0000E+00
     -5.377  0.0000E+00  0.0000E+00  0.0000E+00
     -5.256  0.0000E+00  0.0000E+00  0.0000E+00
     -5.134  0.0000E+00  0.0000E+00  0.0000E+00
     -5.012  0.0000E+00  0.0000E+00  0.0000E+00
     -4.890  0.0000E+00  0.0000E+00  0.0000E+00
     -4.768  0.0000E+00  0.0000E+00  0.0000E+00
     -4.647  0.0000E+00  0.0000E+00  0.0000E+00
     -4.525  0.0000E+00  0.0000E+00  0.0000E+00
     -4.403  0.0000E+00  0.0000E+00  0.0000E+00
     -4.281  0.0000E+00  0.0000E+00  0.0000E+00
     -4.159  0.0000E+00  0.0000E+00  0.0000E+00
     -4.038  0.0000E+00  0.0000E+00  0.0000E+00
     -3.916  0.6612E-10  0.6696E-22  0.8219E-12
     -3.794  0.9878E-01  0.1000E-12  0.1228E-02
     -3.672  0.4943E+00  0.1883E-01  0.2229E-02
     -3.550  0.1319E-10  0.6880E-12  0.8116E-13
     -3.429  0.1096E+01  0.5346E-01  0.7372E-02
     -3.307  0.0000E+00  0.0000E+00  0.0000E+00
     -3.185  0.0000E+00  0.0000E+00  0.0000E+00
     -3.063  0.0000E+00  0.0000E+00  0.0000E+00
     -2.941  0.1579E+00  0.3152E-01  0.4511E-02
     -2.820  0.0000E+00  0.0000E+00  0.0000E+00
     -2.698  0.6045E+00  0.6107E-01  0.2227E-01
     -2.576  0.0000E+00  0.0000E+00  0.0000E+00
     -2.454  0.0000E+00  0.0000E+00  0.0000E+00
     -2.332  0.1000E-12  0.3407E-13  0.5944E-14
     -2.211  0.2714E+00  0.5689E-01  0.1675E-01
     -2.089  0.0000E+00  0.0000E+00  0.0000E+00
     -1.967  0.0000E+00  0.0000E+00  0.0000E+00
     -1.845  0.0000E+00  0.0000E+00  0.0000E+00
     -1.723  0.0000E+00  0.0000E+00  0.0000E+00
     -1.602  0.2195E-15  0.5336E-16  0.1832E-16
     -1.480  0.4393E+00  0.1068E+00  0.3666E-01
     -1.358  0.0000E+00  0.0000E+00  0.0000E+00
     -1.236  0.0000E+00  0.0000E+00  0.0000E+00
     -1.114  0.0000E+00  0.0000E+00  0.0000E+00
     -0.993  0.0000E+00  0.0000E+00  0.0000E+00
     -0.871  0.4248E-04  0.1277E-04  0.4667E-05
     -0.749  0.4379E-02  0.1440E+00  0.8316E-02
     -0.627  0.0000E+00  0.0000E+00  0.0000E+00
     -0.505  0.0000E+00  0.0000E+00  0.0000E+00
     -0.384  0.4177E-01  0.2777E+00  0.2156E-01
     -0.262  0.0000E+00  0.0000E+00  0.0000E+00
     -0.140  0.2930E-06  0.9197E-05  0.9571E-06
     -0.018  0.1004E-01  0.1818E+00  0.1058E-01
      0.104  0.3700E-01  0.4670E+00  0.2534E-01
      0.225  0.0000E+00  0.0000E+00  0.0000E+00
      0.347  0.0000E+00  0.0000E+00  0.0000E+00
      0.469  0.5121E-04  0.1631E-03  0.1924E-04
      0.591  0.2288E-15  0.2331E-02  0.8777E-04
      0.713  0.3412E-01  0.6389E-01  0.1016E-01
      0.834  0.9572E-01  0.2468E-01  0.1609E-01
      0.956  0.2801E-12  0.3422E+00  0.2091E-01
      1.078  0.8539E-16  0.2065E-04  0.1669E-05
      1.200  0.0000E+00  0.0000E+00  0.0000E+00
      1.322  0.2938E-01  0.4107E+00  0.5088E-01
      1.443  0.2891E-13  0.1680E+00  0.1543E-01
      1.565  0.5853E-01  0.2288E+00  0.3920E-01
      1.687  0.1703E-26  0.5978E-15  0.7264E-16
      1.809  0.1203E-11  0.3312E+00  0.4036E-01
      1.931  0.0000E+00  0.0000E+00  0.0000E+00
      2.052  0.0000E+00  0.0000E+00  0.0000E+00
      2.174  0.1722E-21  0.5756E-10  0.9507E-11
      2.296  0.1189E-11  0.4159E+00  0.6887E-01
      2.418  0.1235E-13  0.1512E-02  0.3645E-03
      2.540  0.5347E-12  0.1961E+00  0.4157E-01
      2.661  0.0000E+00  0.0000E+00  0.0000E+00
      2.783  0.0000E+00  0.0000E+00  0.0000E+00
      2.905  0.4599E-21  0.4168E-09  0.1222E-09
      3.027  0.0000E+00  0.0000E+00  0.0000E+00
      3.148  0.4728E-12  0.1592E+00  0.6021E-01
      3.270  0.0000E+00  0.0000E+00  0.0000E+00
      3.392  0.0000E+00  0.0000E+00  0.0000E+00
      3.514  0.2588E-12  0.1816E-01  0.1100E-01
      3.636  0.0000E+00  0.0000E+00  0.0000E+00
      3.757  0.0000E+00  0.0000E+00  0.0000E+00
      3.879  0.0000E+00  0.0000E+00  0.0000E+00
      4.001  0.0000E+00  0.0000E+00  0.0000E+00
      4.123  0.0000E+00  0.0000E+00  0.0000E+00
      4.245  0.0000E+00  0.0000E+00  0.0000E+00
      4.366  0.0000E+00  0.0000E+00  0.0000E+00
      4.488  0.0000E+00  0.0000E+00  0.0000E+00
      4.610  0.0000E+00  0.0000E+00  0.0000E+00
      4.732  0.0000E+00  0.0000E+00  0.0000E+00
      4.854  0.0000E+00  0.0000E+00  0.0000E+00
      4.975  0.3116E-01  0.1799E-10  0.2680E-12
      5.097  0.0000E+00  0.0000E+00  0.0000E+00
      5.219  0.6311E-14  0.1094E-14  0.4115E-15
      5.341  0.8966E-01  0.1554E-01  0.5847E-02
      5.463  0.8701E-10  0.2149E-10  0.4537E-11
      5.584  0.1716E+00  0.6960E-01  0.1787E-01
      5.706  0.2139E-04  0.2374E-04  0.6564E-05
      5.828  0.2881E-02  0.1353E-11  0.6447E-03
      5.950  0.3233E-02  0.1097E-02  0.7125E-04
      6.072  0.1706E+00  0.1707E+00  0.8116E-01
      6.193  0.0000E+00  0.0000E+00  0.0000E+00
      6.315  0.0000E+00  0.0000E+00  0.0000E+00
      6.437  0.4168E-04  0.3317E-04  0.1511E-04
      6.559  0.3954E-07  0.1982E-07  0.7119E-08
      6.681  0.0000E+00  0.0000E+00  0.0000E+00
      6.802  0.7211E+00  0.4130E+00  0.1145E+00
      6.924  0.4922E-01  0.2674E-01  0.2131E-01
      7.046  0.2209E+00  0.9770E-01  0.1091E-01
      7.168  0.0000E+00  0.0000E+00  0.0000E+00
      7.290  0.0000E+00  0.0000E+00  0.0000E+00
      7.411  0.1061E-07  0.1791E-07  0.5645E-09
      7.533  0.1148E-10  0.1165E+00  0.5212E-01
      7.655  0.1952E+00  0.1374E+00  0.8377E-01
      7.777  0.3193E+00  0.1594E+00  0.1044E+00
      7.899  0.0000E+00  0.0000E+00  0.0000E+00
      8.020  0.3113E+00  0.9181E-01  0.8439E-01
      8.142  0.9583E-07  0.1611E-06  0.1390E-07
      8.264  0.1953E+00  0.2503E+00  0.4490E-01
      8.386  0.0000E+00  0.0000E+00  0.0000E+00
      8.508  0.0000E+00  0.0000E+00  0.0000E+00
      8.629  0.1511E-03  0.2738E+00  0.1642E-01
      8.751  0.5181E-10  0.2414E-09  0.4843E-10
      8.873  0.1436E+00  0.4464E+00  0.1094E+00
      8.995  0.6059E-09  0.4531E+00  0.5368E-01
      9.117  0.9943E-01  0.6992E+00  0.1555E+00
      9.238  0.0000E+00  0.0000E+00  0.0000E+00
      9.360  0.3861E-08  0.5933E-06  0.1834E-06
      9.482  0.0000E+00  0.0000E+00  0.0000E+00
      9.604  0.0000E+00  0.0000E+00  0.0000E+00
      9.726  0.9696E-11  0.5378E+00  0.6964E-01
      9.847  0.0000E+00  0.0000E+00  0.0000E+00
      9.969  0.3261E-03  0.4534E-01  0.1970E-01
     10.091  0.2121E-01  0.1364E+00  0.3370E-01
     10.213  0.8203E-09  0.4066E+00  0.1063E+00
     10.335  0.1236E-13  0.1360E-14  0.2419E-14
     10.456  0.1223E+00  0.1346E-01  0.2393E-01
     10.578  0.7025E-09  0.5067E+00  0.8624E-01
     10.700  0.1581E-02  0.1824E-02  0.5709E-03
     10.822  0.0000E+00  0.0000E+00  0.0000E+00
     10.944  0.0000E+00  0.0000E+00  0.0000E+00
     11.065  0.0000E+00  0.0000E+00  0.0000E+00
     11.187  0.0000E+00  0.0000E+00  0.0000E+00
     11.309  0.0000E+00  0.0000E+00  0.0000E+00
     11.431  0.0000E+00  0.0000E+00  0.0000E+00
     11.553  0.4210E-01  0.2841E+00  0.9561E-01
     11.674  0.7558E-01  0.3952E+00  0.1070E+00
     11.796  0.1924E-01  0.2971E+00  0.5595E-01
     11.918  0.1923E-02  0.2837E+00  0.5902E-01
     12.040  0.4080E-11  0.6874E-12  0.5896E-12
     12.162  0.5204E-01  0.9528E-01  0.8073E-01
     12.283  0.1014E+00  0.6915E+00  0.1028E+00
     12.405  0.1950E-07  0.2031E-02  0.1156E+00
     12.527  0.0000E+00  0.0000E+00  0.0000E+00
     12.649  0.4843E-10  0.1144E+00  0.1725E-01
     12.771  0.0000E+00  0.0000E+00  0.0000E+00
     12.892  0.1043E-14  0.1824E-05  0.4026E-06
     13.014  0.0000E+00  0.0000E+00  0.0000E+00
     13.136  0.9392E-06  0.1977E-03  0.9927E-04
     13.258  0.9237E-01  0.3684E-01  0.1858E-01
     13.380  0.1970E-02  0.6251E-02  0.3826E-02
     13.501  0.8783E-01  0.1254E+00  0.2428E+00
     13.623  0.0000E+00  0.0000E+00  0.0000E+00
     13.745  0.0000E+00  0.0000E+00  0.0000E+00
     13.867  0.0000E+00  0.0000E+00  0.0000E+00
     13.989  0.5159E-01  0.3346E-01  0.1343E+00
     14.110  0.3804E-10  0.1794E-01  0.3710E-01
     14.232  0.1498E-03  0.8075E-01  0.1353E+00
     14.354  0.8104E-09  0.7396E-08  0.4254E-08
     14.476  0.1163E-02  0.1212E+00  0.6827E-01
     14.598  0.3083E-02  0.2410E-01  0.9593E-02
     14.719  0.0000E+00  0.0000E+00  0.0000E+00
     14.841  0.0000E+00  0.0000E+00  0.0000E+00
     14.963  0.1101E-20  0.1076E-14  0.9364E-16
     15.085  0.4663E-02  0.1653E+00  0.8272E-01
     15.207  0.0000E+00  0.0000E+00  0.0000E+00
     15.328  0.1326E+00  0.1936E+00  0.1402E-01
     15.450  0.6275E-01  0.2492E+00  0.1018E+00
     15.572  0.0000E+00  0.0000E+00  0.0000E+00
     15.694  0.0000E+00  0.0000E+00  0.0000E+00
     15.816  0.2854E-01  0.5056E+00  0.1650E+00
     15.937  0.0000E+00  0.0000E+00  0.0000E+00
     16.059  0.0000E+00  0.0000E+00  0.0000E+00
     16.181  0.2822E-09  0.2189E-09  0.1447E-09
     16.303  0.0000E+00  0.0000E+00  0.0000E+00
     16.425  0.8477E-01  0.1482E+00  0.1177E+00
     16.546  0.2683E-04  0.1388E+00  0.4820E-01
     16.668  0.0000E+00  0.0000E+00  0.0000E+00
     16.790  0.3449E-15  0.4150E-14  0.7645E-14
     16.912  0.8666E-02  0.1172E+00  0.2008E+00
     17.034  0.1997E-04  0.3032E+00  0.4686E-01
     17.155  0.0000E+00  0.0000E+00  0.0000E+00
     17.277  0.0000E+00  0.0000E+00  0.0000E+00
     17.399  0.0000E+00  0.0000E+00  0.0000E+00
     17.521  0.3814E-03  0.1159E-01  0.2250E-02
     17.643  0.7359E-17  0.2075E-15  0.2243E-16
     17.764  0.2210E-01  0.6229E+00  0.6733E-01
     17.886  0.2503E-01  0.1615E+00  0.1423E-02
     18.008  0.1747E-06  0.2039E-01  0.4954E-01
     18.130  0.1462E-01  0.3462E-01  0.9766E-01
     18.252  0.0000E+00  0.0000E+00  0.0000E+00
     18.373  0.0000E+00  0.0000E+00  0.0000E+00
     18.495  0.0000E+00  0.0000E+00  0.0000E+00
     18.617  0.0000E+00  0.0000E+00  0.0000E+00
     18.739  0.0000E+00  0.0000E+00  0.0000E+00
     18.861  0.0000E+00  0.0000E+00  0.0000E+00
     18.982  0.1854E-06  0.8642E-06  0.1663E-07
     19.104  0.0000E+00  0.0000E+00  0.0000E+00
     19.226  0.0000E+00  0.0000E+00  0.0000E+00
     19.348  0.0000E+00  0.0000E+00  0.0000E+00
     19.469  0.0000E+00  0.0000E+00  0.0000E+00
     19.591  0.0000E+00  0.0000E+00  0.0000E+00
     19.713  0.0000E+00  0.0000E+00  0.0000E+00
     19.835  0.0000E+00  0.0000E+00  0.0000E+00
     19.957  0.0000E+00  0.0000E+00  0.0000E+00
     20.078  0.0000E+00  0.0000E+00  0.0000E+00
     20.200  0.0000E+00  0.0000E+00  0.0000E+00
     20.322  0.0000E+00  0.0000E+00  0.0000E+00
     20.444  0.0000E+00  0.0000E+00  0.0000E+00
     20.566  0.0000E+00  0.0000E+00  0.0000E+00
     20.687  0.0000E+00  0.0000E+00  0.0000E+00
     20.809  0.0000E+00  0.0000E+00  0.0000E+00
     20.931  0.0000E+00  0.0000E+00  0.0000E+00
     20.93108079    -15.60848327  301      3.65091195      1.00000000
    -15.608  0.0000E+00  0.0000E+00  0.0000E+00
    -15.487  0.0000E+00  0.0000E+00  0.0000E+00
    -15.365  0.0000E+00  0.0000E+00  0.0000E+00
    -15.243  0.0000E+00  0.0000E+00  0.0000E+00
    -15.121  0.0000E+00  0.0000E+00  0.0000E+00
    -14.999  0.0000E+00  0.0000E+00  0.0000E+00
    -14.878  0.0000E+00  0.0000E+00  0.0000E+00
    -14.756  0.0000E+00  0.0000E+00  0.0000E+00
    -14.634  0.0000E+00  0.0000E+00  0.0000E+00
    -14.512  0.0000E+00  0.0000E+00  0.0000E+00
    -14.390  0.0000E+00  0.0000E+00  0.0000E+00
    -14.269  0.0000E+00  0.0000E+00  0.0000E+00
    -14.147  0.0000E+00  0.0000E+00  0.0000E+00
    -14.025  0.0000E+00  0.0000E+00  0.0000E+00
    -13.903  0.2098E+00  0.4373E-02  0.1204E-02
    -13.782  0.1191E-02  0.6395E-01  0.1543E-01
    -13.660  0.0000E+00  0.0000E+00  0.0000E+00
    -13.538  0.0000E+00  0.0000E+00  0.0000E+00
    -13.416  0.0000E+00  0.0000E+00  0.0000E+00
    -13.294  0.0000E+00  0.0000E+00  0.0000E+00
    -13.173  0.0000E+00  0.0000E+00  0.0000E+00
    -13.051  0.0000E+00  0.0000E+00  0.0000E+00
    -12.929  0.0000E+00  0.0000E+00  0.0000E+00
    -12.807  0.0000E+00  0.0000E+00  0.0000E+00
    -12.685  0.0000E+00  0.0000E+00  0.0000E+00
    -12.564  0.0000E+00  0.0000E+00  0.0000E+00
    -12.442  0.0000E+00  0.0000E+00  0.0000E+00
    -12.320  0.0000E+00  0.0000E+00  0.0000E+00
    -12.198  0.0000E+00  0.0000E+00  0.0000E+00
    -12.076  0.0000E+00  0.0000E+00  0.0000E+00
    -11.955  0.0000E+00  0.0000E+00  0.0000E+00
    -11.833  0.0000E+00  0.0000E+00  0.0000E+00
    -11.711  0.0000E+00  0.0000E+00  0.0000E+00
    -11.589  0.0000E+00  0.0000E+00  0.0000E+00
    -11.467  0.0000E+00  0.0000E+00  0.0000E+00
    -11.346  0.0000E+00  0.0000E+00  0.0000E+00
    -11.224  0.0000E+00  0.0000E+00  0.0000E+00
    -11.102  0.0000E+00  0.0000E+00  0.0000E+00
    -10.980  0.0000E+00  0.0000E+00  0.0000E+00
    -10.858  0.0000E+00  0.0000E+00  0.0000E+00
    -10.737  0.0000E+00  0.0000E+00  0.0000E+00
    -10.615  0.0000E+00  0.0000E+00  0.0000E+00
    -10.493  0.8607E-08  0.1041E-19  0.1182E-19
    -10.371  0.0000E+00  0.0000E+00  0.0000E+00
    -10.249  0.0000E+00  0.0000E+00  0.0000E+00
    -10.128  0.5606E-02  0.3380E-04  0.1125E-05
    -10.006  0.2229E-01  0.1807E-03  0.5307E-05
     -9.884  0.0000E+00  0.0000E+00  0.0000E+00
     -9.762  0.0000E+00  0.0000E+00  0.0000E+00
     -9.640  0.0000E+00  0.0000E+00  0.0000E+00
     -9.519  0.4123E+00  0.5170E-02  0.2137E-03
     -9.397  0.0000E+00  0.0000E+00  0.0000E+00
     -9.275  0.9743E-01  0.1437E-02  0.6518E-04
     -9.153  0.2857E+00  0.3458E-02  0.2688E-03
     -9.031  0.0000E+00  0.0000E+00  0.0000E+00
     -8.910  0.0000E+00  0.0000E+00  0.0000E+00
     -8.788  0.4776E-05  0.8070E-07  0.3517E-08
     -8.666  0.1348E-03  0.1491E-05  0.1439E-06
     -8.544  0.2834E-01  0.8820E-04  0.4712E-04
     -8.422  0.9356E+00  0.1253E-01  0.7560E-03
     -8.301  0.0000E+00  0.0000E+00  0.0000E+00
     -8.179  0.0000E+00  0.0000E+00  0.0000E+00
     -8.057  0.1137E-15  0.8226E-18  0.7405E-19
     -7.935  0.1343E+01  0.8673E-02  0.8560E-03
     -7.813  0.0000E+00  0.0000E+00  0.0000E+00
     -7.692  0.1385E+00  0.9434E-08  0.7813E-04
     -7.570  0.0000E+00  0.0000E+00  0.0000E+00
     -7.448  0.0000E+00  0.0000E+00  0.0000E+00
     -7.326  0.0000E+00  0.0000E+00  0.0000E+00
     -7.204  0.0000E+00  0.0000E+00  0.0000E+00
     -7.083  0.0000E+00  0.0000E+00  0.0000E+00
     -6.961  0.0000E+00  0.0000E+00  0.0000E+00
     -6.839  0.0000E+00  0.0000E+00  0.0000E+00
     -6.717  0.0000E+00  0.0000E+00  0.0000E+00
     -6.595  0.0000E+00  0.0000E+00  0.0000E+00
     -6.474  0.0000E+00  0.0000E+00  0.0000E+00
     -6.352  0.0000E+00  0.0000E+00  0.0000E+00
     -6.230  0.0000E+00  0.0000E+00  0.0000E+00
     -6.108  0.0000E+00  0.0000E+00  0.0000E+00
     -5.986  0.0000E+00  0.0000E+00  0.0000E+00
     -5.865  0.0000E+00  0.0000E+00  0.0000E+00
     -5.743  0.0000E+00  0.0000E+00  0.0000E+00
     -5.621  0.0000E+00  0.0000E+00  0.0000E+00
     -5.499  0.0000E+00  0.0000E+00  0.0000E+00
     -5.377  0.0000E+00  0.0000E+00  0.0000E+00
     -5.256  0.0000E+00  0.0000E+00  0.0000E+00
     -5.134  0.0000E+00  0.0000E+00  0.0000E+00
     -5.012  0.0000E+00  0.0000E+00  0.0000E+00
     -4.890  0.0000E+00  0.0000E+00  0.0000E+00
     -4.768  0.0000E+00  0.0000E+00  0.0000E+00