    2    2    1    1
  0.2258839E+02  0.3997699E-09  0.3997699E-09  0.3997699E-09  0.5000000E-15
  1.000000000000000E-004
  CAR 
 Name                                    
     18   1158     16
 
  0.0000000E+00  0.0000000E+00  0.0000000E+00  0.4629630E-02
    1      -13.864512   1.000000
    2      -13.864513   1.000000
    3      -13.864513   1.000000
    4      -13.784260   1.000000
    5      -13.784260   1.000000
    6      -10.457468   1.000000
    7        3.508461   1.000000
    8        3.508465   1.000000
    9        3.508464   1.000000
   10        4.922941   0.000000
   11        8.045730   0.000000
   12        8.045736   0.000000
   13        8.045737   0.000000
   14       12.084085   0.000000
   15       14.602095   0.000000
   16       14.606709   0.000000
 
  0.1666667E+00  0.0000000E+00  0.0000000E+00  0.3703704E-01
    1      -13.878428   1.000000
    2      -13.859143   1.000000
    3      -13.859143   1.000000
    4      -13.784492   1.000000
    5      -13.784492   1.000000
    6      -10.113181   1.000000
    7        0.720644   1.000000
    8        3.107647   1.000000
    9        3.107646   1.000000
   10        5.964421   0.000000
   11        8.627285   0.000000
   12        8.627290   0.000000
   13        9.051903   0.000000
   14       13.460991   0.000000
   15       13.462133   0.000000
   16       13.483578   0.000000
 
  0.3333333E+00  0.0000000E+00  0.0000000E+00  0.3703704E-01
    1      -13.904911   1.000000
    2      -13.849921   1.000000
    3      -13.849921   1.000000
    4      -13.783321   1.000000
    5      -13.783322   1.000000
    6       -9.213553   1.000000
    7       -2.282448   1.000000
    8        2.515402   1.000000
    9        2.515400   1.000000
   10        5.505850   0.000000
   11        9.049309   0.000000
   12        9.049315   0.000000
   13       11.777523   0.000000
   14       13.244034   0.000000
   15       14.156704   0.000000
   16       14.156768   0.000000
 
  0.5000000E+00  0.0000000E+00  0.0000000E+00  0.1851852E-01
    1      -13.917618   1.000000
    2      -13.846291   1.000000
    3      -13.846291   1.000000
    4      -13.781728   1.000000
    5      -13.781727   1.000000
    6       -8.537635   1.000000
    7       -3.698152   1.000000
    8        2.278590   1.000000
    9        2.278588   1.000000
   10        5.271363   0.000000
   11        8.964951   0.000000
   12        8.964958   0.000000
   13       12.159070   0.000000
   14       15.092724   0.000000
   15       16.545724   0.000000
   16       16.548682   0.000000
 
  0.1666667E+00  0.1666667E+00  0.0000000E+00  0.2777778E-01
    1      -13.888216   1.000000
    2      -13.853811   1.000000
    3      -13.853811   1.000000
    4      -13.788777   1.000000
    5      -13.781530   1.000000
    6       -9.997123   1.000000
    7        0.765241   1.000000
    8        2.433952   1.000000
    9        2.433953   1.000000
   10        6.795750   0.000000
   11        7.447177   0.000000
   12        9.689247   0.000000
   13        9.689253   0.000000
   14       11.820052   0.000000
   15       14.252712   0.000000
   16       15.075470   0.000000
 
  0.3333333E+00  0.1666667E+00  0.0000000E+00  0.1111111E+00
    1      -13.909375   1.000000
    2      -13.845724   1.000000
    3      -13.843676   1.000000
    4      -13.791359   1.000000
    5      -13.779574   1.000000
    6       -9.266474   1.000000
    7       -1.544907   1.000000
    8        1.558117   1.000000
    9        1.823968   1.000000
   10        6.748713   0.000000
   11        8.176891   0.000000
   12        9.975905   0.000000
   13       10.529584   0.000000
   14       13.392614   0.000000
   15       15.335677   0.000000
   16       15.468589   0.000000
 
  0.5000000E+00  0.1666667E+00  0.0000000E+00  0.1111111E+00
    1      -13.922166   1.000000
    2      -13.842535   1.000000
    3      -13.839225   1.000000
    4      -13.788074   1.000000
    5      -13.780302   1.000000
    6       -8.391801   1.000000
    7       -3.407655   1.000000
    8        0.717986   1.000000
    9        1.742534   1.000000
   10        6.595363   0.000000
   11        8.811974   0.000000
   12       10.186955   0.000000
   13       11.522872   0.000000
   14       14.391870   0.000000
   15       16.222515   0.000000
   16       16.549286   0.000000
 
 -0.3333333E+00  0.1666667E+00  0.0000000E+00  0.1111111E+00
    1      -13.916732   1.000000
    2      -13.843751   1.000000
    3      -13.843008   1.000000
    4      -13.784927   1.000000
    5      -13.783714   1.000000
    6       -8.640355   1.000000
    7       -2.938032   1.000000
    8        0.491809   1.000000
    9        2.218418   1.000000
   10        6.787041   0.000000
   11        9.049244   0.000000
   12        9.725705   0.000000
   13       11.666545   0.000000
   14       13.503343   0.000000
   15       14.608144   0.000000
   16       16.379252   0.000000
 
 -0.1666667E+00  0.1666667E+00  0.0000000E+00  0.5555556E-01
    1      -13.896811   1.000000
    2      -13.853010   1.000000
    3      -13.849676   1.000000
    4      -13.786956   1.000000
    5      -13.782681   1.000000
    6       -9.573693   1.000000
    7       -0.845956   1.000000
    8        1.291531   1.000000
    9        2.945977   1.000000
   10        6.970754   0.000000
   11        8.793299   0.000000
   12        8.969149   0.000000
   13       10.059659   0.000000
   14       12.374972   0.000000
   15       14.440502   0.000000
   16       15.271957   0.000000
 
  0.3333333E+00  0.3333333E+00  0.0000000E+00  0.2777778E-01
    1      -13.929249   1.000000
    2      -13.831737   1.000000
    3      -13.831737   1.000000
    4      -13.799969   1.000000
    5      -13.776031   1.000000
    6       -8.758829   1.000000
    7       -2.225645   1.000000
    8        1.103836   1.000000
    9        1.103840   1.000000
   10        5.729845   0.000000
   11        6.883861   0.000000
   12       12.650319   0.000000
   13       12.650327   0.000000
   14       13.256991   0.000000
   15       16.461041   0.000000
   16       17.832091   0.000000
 
  0.5000000E+00  0.3333333E+00  0.0000000E+00  0.1111111E+00
    1      -13.937907   1.000000
    2      -13.829121   1.000000
    3      -13.826141   1.000000
    4      -13.800022   1.000000
    5      -13.776203   1.000000
    6       -7.998774   1.000000
    7       -3.408213   1.000000
    8       -0.019883   1.000000
    9        0.933322   1.000000
   10        6.021855   0.000000
   11        7.610319   0.000000
   12       12.222295   0.000000
   13       12.923935   0.000000
   14       15.384535   0.000000
   15       16.922851   0.000000
   16       17.699647   0.000000
 
 -0.3333333E+00  0.3333333E+00  0.0000000E+00  0.5555556E-01
    1      -13.930325   1.000000
    2      -13.836337   1.000000
    3      -13.830921   1.000000
    4      -13.791926   1.000000
    5      -13.781601   1.000000
    6       -7.929984   1.000000
    7       -3.458919   1.000000
    8       -0.786343   1.000000
    9        1.397213   1.000000
   10        6.460798   0.000000
   11       10.386561   0.000000
   12       11.738035   0.000000
   13       12.087450   0.000000
   14       12.215939   0.000000
   15       14.113672   0.000000
   16       19.013078   0.000000
 
  0.5000000E+00  0.5000000E+00  0.0000000E+00  0.1388889E-01
    1      -13.947594   1.000000
    2      -13.820377   1.000000
    3      -13.820376   1.000000
    4      -13.806224   1.000000
    5      -13.773272   1.000000
    6       -7.716455   1.000000
    7       -3.872953   1.000000
    8        0.604369   1.000000
    9        0.604371   1.000000
   10        5.577532   0.000000
   11        5.839053   0.000000
   12       15.017291   0.000000
   13       15.017609   0.000000
   14       15.755601   0.000000
   15       17.958548   0.000000
   16       17.989737   0.000000
 
  0.5000000E+00  0.3333333E+00  0.1666667E+00  0.1111111E+00
    1      -13.924657   1.000000
    2      -13.839709   1.000000
    3      -13.833487   1.000000
    4      -13.793535   1.000000
    5      -13.779334   1.000000
    6       -8.484050   1.000000
    7       -2.730064   1.000000
    8        0.057175   1.000000
    9        1.314420   1.000000
   10        7.727770   0.000000
   11        8.252114   0.000000
   12        9.392855   0.000000
   13       12.438088   0.000000
   14       13.945346   0.000000
   15       15.793798   0.000000
   16       17.914197   0.000000
 
 -0.3333333E+00  0.3333333E+00  0.1666667E+00  0.1111111E+00
    1      -13.929989   1.000000
    2      -13.839106   1.000000
    3      -13.828820   1.000000
    4      -13.791823   1.000000
    5      -13.781379   1.000000
    6       -7.928917   1.000000
    7       -3.503634   1.000000
    8       -0.435204   1.000000
    9        0.868790   1.000000
   10        7.965491   0.000000
   11        8.644242   0.000000
   12       10.716483   0.000000
   13       11.916446   0.000000
   14       13.158833   0.000000
   15       16.842758   0.000000
   16       17.534678   0.000000
 
 -0.3333333E+00  0.5000000E+00  0.1666667E+00  0.5555556E-01
    1      -13.938340   1.000000
    2      -13.832208   1.000000
    3      -13.822732   1.000000
    4      -13.798154   1.000000
    5      -13.778195   1.000000
    6       -7.671032   1.000000
    7       -3.710572   1.000000
    8       -0.113035   1.000000
    9        0.063409   1.000000
   10        7.492698   0.000000
   11        7.777244   0.000000
   12       11.655947   0.000000
   13       11.940504   0.000000
   14       15.837606   0.000000
   15       16.965769   0.000000
   16       18.068581   0.000000
 
  0.0000000E+00  0.0000000E+00  0.0000000E+00  0.0000000E+00
    1      -13.864513   1.000000
    2      -13.864513   1.000000
    3      -13.864512   1.000000
    4      -13.784260   1.000000
    5      -13.784260   1.000000
    6      -10.457468   1.000000
    7        3.508461   1.000000
    8        3.508465   1.000000
    9        3.508464   1.000000
   10        4.922941   0.000000
   11        8.045728   0.000000
   12        8.045737   0.000000
   13        8.045737   0.000000
   14       12.084056   0.000000
   15       14.601676   0.000000
   16       14.602407   0.000000
 
  0.1831500E-02  0.0000000E+00  0.1831500E-02  0.0000000E+00
    1      -13.864515   1.000000
    2      -13.864512   1.000000
    3      -13.864511   1.000000
    4      -13.784260   1.000000
    5      -13.784261   1.000000
    6      -10.457412   1.000000
    7        3.507434   1.000000
    8        3.508272   1.000000
    9        3.508275   1.000000
   10        4.923960   0.000000
   11        8.045512   0.000000
   12        8.045990   0.000000
   13        8.045997   0.000000
   14       12.084400   0.000000
   15       14.600417   0.000000
   16       14.601776   0.000000
 
  0.3663000E-02  0.0000000E+00  0.3663000E-02  0.0000000E+00
    1      -13.864526   1.000000
    2      -13.864507   1.000000
    3      -13.864507   1.000000
    4      -13.784263   1.000000
    5      -13.784259   1.000000
    6      -10.457243   1.000000
    7        3.504583   1.000000
    8        3.507686   1.000000
    9        3.507495   1.000000
   10        4.927009   0.000000
   11        8.044849   0.000000
   12        8.046769   0.000000
   13        8.046776   0.000000
   14       12.085443   0.000000
   15       14.597270   0.000000
   16       14.602076   0.000000
 
  0.5494510E-02  0.0000000E+00  0.5494510E-02  0.0000000E+00
    1      -13.864543   1.000000
    2      -13.864501   1.000000
    3      -13.864501   1.000000
    4      -13.784266   1.000000
    5      -13.784257   1.000000
    6      -10.456961   1.000000
    7        3.499506   1.000000
    8        3.506756   1.000000
    9        3.506503   1.000000
   10        4.932061   0.000000
   11        8.043745   0.000000
   12        8.048067   0.000000
   13        8.048072   0.000000
   14       12.087172   0.000000
   15       14.593240   0.000000
   16       14.602550   0.000000
 
  0.7326010E-02  0.0000000E+00  0.7326010E-02  0.0000000E+00
    1      -13.864566   1.000000
    2      -13.864491   1.000000
    3      -13.864491   1.000000
    4      -13.784270   1.000000
    5      -13.784255   1.000000
    6      -10.456565   1.000000
    7        3.492170   1.000000
    8        3.505430   1.000000
    9        3.505432   1.000000
   10        4.939071   0.000000
   11        8.042201   0.000000
   12        8.049882   0.000000
   13        8.049888   0.000000
   14       12.089575   0.000000
   15       14.581591   0.000000
   16       14.602610   0.000000
 
  0.9157510E-02  0.0000000E+00  0.9157510E-02  0.0000000E+00
    1      -13.864597   1.000000
    2      -13.864495   1.000000
    3      -13.864488   1.000000
    4      -13.784275   1.000000
    5      -13.784252   1.000000
    6      -10.456055   1.000000
    7        3.483168   1.000000
    8        3.503737   1.000000
    9        3.530760   0.000385
   10        4.947980   0.000000
   11        8.040219   0.000000
   12        8.052213   0.000000
   13        8.052219   0.000000
   14       12.092694   0.000000
   15       14.571617   0.000000
   16       14.603600   0.000000
 
  0.1098901E-01  0.0000000E+00  0.1098901E-01  0.0000000E+00
    1      -13.864634   1.000000
    2      -13.864464   1.000000
    3      -13.864464   1.000000
    4      -13.784282   1.000000
    5      -13.784248   1.000000
    6      -10.455432   1.000000
    7        3.472317   1.000000
    8        3.501648   1.000000
    9        3.501650   1.000000
   10        4.958716   0.000000
   11        8.037801   0.000000
   12        8.055061   0.000000
   13        8.055067   0.000000
   14       12.096458   0.000000
   15       14.557828   0.000000
   16       14.603762   0.000000
 
  0.1282051E-01  0.0000000E+00  0.1282051E-01  0.0000000E+00
    1      -13.864694   1.000000
    2      -13.864447   1.000000
    3      -13.864446   1.000000
    4      -13.784289   1.000000
    5      -13.784244   1.000000
    6      -10.454695   1.000000
    7        3.499195   1.000000
    8        3.499198   1.000000
    9        3.459726   1.000000
   10        4.971190   0.000000
   11        8.034948   0.000000
   12        8.058423   0.000000
   13        8.058428   0.000000
   14       12.100930   0.000000
   15       14.541972   0.000000
   16       14.606175   0.000000
 
  0.1465201E-01  0.0000000E+00  0.1465201E-01  0.0000000E+00
    1      -13.864744   1.000000
    2      -13.864426   1.000000
    3      -13.864427   1.000000
    4      -13.784298   1.000000
    5      -13.784239   1.000000
    6      -10.453845   1.000000
    7        3.496371   1.000000
    8        3.496365   1.000000
    9        3.445435   1.000000
   10        4.985328   0.000000
   11        8.031669   0.000000
   12        8.062300   0.000000
   13        8.062298   0.000000
   14       12.106063   0.000000
   15       14.524489   0.000000
   16       14.607471   0.000000
 
  0.1648352E-01  0.0000000E+00  0.1648352E-01  0.0000000E+00
    1      -13.864801   1.000000
    2      -13.864404   1.000000
    3      -13.864403   1.000000
    4      -13.784308   1.000000
    5      -13.784233   1.000000
    6      -10.452881   1.000000
    7        3.429545   1.000000
    8        3.493175   1.000000
    9        3.493178   1.000000
   10        5.001029   0.000000
   11        8.027964   0.000000
   12        8.066679   0.000000
   13        8.066685   0.000000
   14       12.111879   0.000000
   15       14.506508   0.000000
   16       14.606539   0.000000
 
  0.1831502E-01  0.0000000E+00  0.1831502E-01  0.0000000E+00
    1      -13.864864   1.000000
    2      -13.864378   1.000000
    3      -13.864378   1.000000
    4      -13.784320   1.000000
    5      -13.784226   1.000000
    6      -10.451804   1.000000
    7        3.412178   1.000000
    8        3.489611   1.000000
    9        3.489613   1.000000
   10        5.018192   0.000000
   11        8.023836   0.000000
   12        8.071569   0.000000
   13        8.071575   0.000000
   14       12.118361   0.000000
   15       14.483712   0.000000
   16       14.607552   0.000000
 
  0.2014652E-01  0.0000000E+00  0.2014652E-01  0.0000000E+00
    1      -13.864935   1.000000
    2      -13.864350   1.000000
    3      -13.864350   1.000000
    4      -13.784332   1.000000
    5      -13.784219   1.000000
    6      -10.450614   1.000000
    7        3.393414   1.000000
    8        3.485685   1.000000
    9        3.485687   1.000000
   10        5.036721   0.000000
   11        8.019291   0.000000
   12        8.076964   0.000000
   13        8.076970   0.000000
   14       12.125531   0.000000
   15       14.462520   0.000000
   16       14.610689   0.000000
 
  0.2197802E-01  0.0000000E+00  0.2197802E-01  0.0000000E+00
    1      -13.865006   1.000000
    2      -13.864321   1.000000
    3      -13.864321   1.000000
    4      -13.784349   1.000000
    5      -13.784212   1.000000
    6      -10.449311   1.000000
    7        3.373349   1.000000
    8        3.481394   1.000000
    9        3.481396   1.000000
   10        5.056519   0.000000
   11        8.014333   0.000000
   12        8.082855   0.000000
   13        8.082861   0.000000
   14       12.133313   0.000000
   15       14.436583   0.000000
   16       14.610090   0.000000
 
  0.2380952E-01  0.0000000E+00  0.2380952E-01  0.0000000E+00
    1      -13.865086   1.000000
    2      -13.864280   1.000000
    3      -13.864280   1.000000
    4      -13.784354   1.000000
    5      -13.784200   1.000000
    6      -10.447892   1.000000
    7        3.354421   1.000000
    8        3.476997   1.000000
    9        3.476999   1.000000
   10        5.075217   0.000000
   11        8.008966   0.000000
   12        8.089005   0.000000
   13        8.089001   0.000000
   14       12.141773   0.000000
   15       14.409707   0.000000
   16       14.612986   0.000000
 
  0.2564103E-01  0.0000000E+00  0.2564103E-01  0.0000000E+00
    1      -13.865174   1.000000
    2      -13.864243   1.000000
    3      -13.864242   1.000000
    4      -13.784368   1.000000
    5      -13.784191   1.000000
    6      -10.446362   1.000000
    7        3.332310   1.000000
    8        3.472033   1.000000
    9        3.472033   1.000000
   10        5.097022   0.000000
   11        8.003202   0.000000
   12        8.095850   0.000000
   13        8.095856   0.000000
   14       12.150876   0.000000
   15       14.383271   0.000000
   16       14.613507   0.000000
 
  0.2747253E-01  0.0000000E+00  0.2747253E-01  0.0000000E+00
    1      -13.865271   1.000000
    2      -13.864205   1.000000
    3      -13.864205   1.000000
    4      -13.784384   1.000000
    5      -13.784181   1.000000
    6      -10.444720   1.000000
    7        3.309170   1.000000
    8        3.466718   1.000000
    9        3.466718   1.000000
   10        5.119825   0.000000
   11        7.997042   0.000000
   12        8.103187   0.000000
   13        8.103194   0.000000
   14       12.160610   0.000000
   15       14.355082   0.000000
   16       14.614635   0.000000
 
  0.2930403E-01  0.0000000E+00  0.2930403E-01  0.0000000E+00
    1      -13.865369   1.000000
    2      -13.864162   1.000000
    3      -13.864162   1.000000
    4      -13.784400   1.000000
    5      -13.784170   1.000000
    6      -10.442962   1.000000
    7        3.285073   1.000000
    8        3.461059   1.000000
    9        3.461059   1.000000
   10        5.143556   0.000000
   11        7.990496   0.000000
   12        8.111011   0.000000
   13        8.111017   0.000000
   14       12.170986   0.000000
   15       14.325233   0.000000
   16       14.616405   0.000000
 
  0.3113553E-01  0.0000000E+00  0.3113553E-01  0.0000000E+00
    1      -13.865474   1.000000
    2      -13.864133   1.000000
    3      -13.864132   1.000000
    4      -13.784417   1.000000
    5      -13.784158   1.000000
    6      -10.441092   1.000000
    7        3.260096   1.000000
    8        3.455076   1.000000
    9        3.455079   1.000000
   10        5.168136   0.000000
   11        7.983569   0.000000
   12        8.119314   0.000000
   13        8.119319   0.000000
   14       12.181990   0.000000
   15       14.294864   0.000000
   16       14.618761   0.000000
 
  0.3296703E-01  0.0000000E+00  0.3296703E-01  0.0000000E+00
    1      -13.865590   1.000000
    2      -13.864084   1.000000
    3      -13.864084   1.000000
    4      -13.784435   1.000000
    5      -13.784146   1.000000
    6      -10.439108   1.000000
    7        3.234311   1.000000
    8        3.448740   1.000000
    9        3.448743   1.000000
   10        5.193495   0.000000
   11        7.976268   0.000000
   12        8.128094   0.000000
   13        8.128100   0.000000
   14       12.193605   0.000000
   15       14.263360   0.000000
   16       14.620298   0.000000
 
  0.3479854E-01  0.0000000E+00  0.3479854E-01  0.0000000E+00
    1      -13.865712   1.000000
    2      -13.864032   1.000000
    3      -13.864032   1.000000
    4      -13.784454   1.000000
    5      -13.784133   1.000000
    6      -10.437011   1.000000
    7        3.207778   1.000000
    8        3.442083   1.000000
    9        3.442066   1.000000
   10        5.219566   0.000000
   11        7.968602   0.000000
   12        8.137347   0.000000
   13        8.137354   0.000000
   14       12.205829   0.000000
   15       14.230868   0.000000
   16       14.622427   0.000000
 
  0.3663004E-01  0.0000000E+00  0.3663004E-01  0.0000000E+00
    1      -13.865840   1.000000
    2      -13.863978   1.000000
    3      -13.863978   1.000000
    4      -13.784475   1.000000
    5      -13.784119   1.000000
    6      -10.434802   1.000000
    7        3.180557   1.000000
    8        3.435067   1.000000
    9        3.435069   1.000000
   10        5.246290   0.000000
   11        7.960578   0.000000
   12        8.147067   0.000000
   13        8.147074   0.000000
   14       12.218656   0.000000
   15       14.197562   0.000000
   16       14.624654   0.000000
 
  0.3846154E-01  0.0000000E+00  0.3846154E-01  0.0000000E+00
    1      -13.865975   1.000000
    2      -13.863924   1.000000
    3      -13.863923   1.000000
    4      -13.784496   1.000000
    5      -13.784108   1.000000
    6      -10.432480   1.000000
    7        3.152701   1.000000
    8        3.427741   1.000000
    9        3.427743   1.000000
   10        5.273607   0.000000
   11        7.952200   0.000000
   12        8.157247   0.000000
   13        8.157254   0.000000
   14       12.232070   0.000000
   15       14.163910   0.000000
   16       14.628641   0.000000
 
  0.4029304E-01  0.0000000E+00  0.4029304E-01  0.0000000E+00
    1      -13.866116   1.000000
    2      -13.863863   1.000000
    3      -13.863864   1.000000
    4      -13.784519   1.000000
    5      -13.784092   1.000000
    6      -10.430044   1.000000
    7        3.124261   1.000000
    8        3.420100   1.000000
    9        3.420101   1.000000
   10        5.301469   0.000000
   11        7.943484   0.000000
   12        8.167887   0.000000
   13        8.167893   0.000000
   14       12.246076   0.000000
   15       14.130551   0.000000
   16       14.629997   0.000000
 
  0.4212454E-01  0.0000000E+00  0.4212454E-01  0.0000000E+00
    1      -13.866263   1.000000
    2      -13.863801   1.000000
    3      -13.863801   1.000000
    4      -13.784542   1.000000
    5      -13.784076   1.000000
    6      -10.427496   1.000000
    7        3.095285   1.000000
    8        3.412145   1.000000
    9        3.412145   1.000000
   10        5.329825   0.000000
   11        7.934435   0.000000
   12        8.178980   0.000000
   13        8.178985   0.000000
   14       12.260669   0.000000
   15       14.094363   0.000000
   16       14.634035   0.000000
 
  0.4395605E-01  0.0000000E+00  0.4395605E-01  0.0000000E+00
    1      -13.866417   1.000000
    2      -13.863736   1.000000
    3      -13.863736   1.000000
    4      -13.784570   1.000000
    5      -13.784060   1.000000
    6      -10.424835   1.000000
    7        3.065810   1.000000
    8        3.403881   1.000000
    9        3.403883   1.000000
   10        5.358630   0.000000
   11        7.925059   0.000000
   12        8.190519   0.000000
   13        8.190524   0.000000
   14       12.275764   0.000000
   15       14.059635   0.000000
   16       14.635462   0.000000
 
  0.4578755E-01  0.0000000E+00  0.4578755E-01  0.0000000E+00
    1      -13.866577   1.000000
    2      -13.863666   1.000000
    3      -13.863666   1.000000
    4      -13.784596   1.000000
    5      -13.784042   1.000000
    6      -10.422061   1.000000
    7        3.035881   1.000000
    8        3.395314   1.000000
    9        3.395314   1.000000
   10        5.387845   0.000000
   11        7.915369   0.000000
   12        8.202499   0.000000
   13        8.202505   0.000000
   14       12.291440   0.000000
   15       14.023010   0.000000
   16       14.637687   0.000000
 
  0.4761905E-01  0.0000000E+00  0.4761905E-01  0.0000000E+00
    1      -13.866742   1.000000
    2      -13.863596   1.000000
    3      -13.863595   1.000000
    4      -13.784623   1.000000
    5      -13.784024   1.000000
    6      -10.419175   1.000000
    7        3.005532   1.000000
    8        3.386449   1.000000
    9        3.386451   1.000000
   10        5.417432   0.000000
   11        7.905373   0.000000
   12        8.214916   0.000000
   13        8.214922   0.000000
   14       12.307668   0.000000
   15       13.987256   0.000000
   16       14.640748   0.000000
 
  0.4945055E-01  0.0000000E+00  0.4945055E-01  0.0000000E+00
    1      -13.866915   1.000000
    2      -13.863522   1.000000
    3      -13.863522   1.000000
    4      -13.784651   1.000000
    5      -13.784005   1.000000
    6      -10.416176   1.000000
    7        2.974795   1.000000
    8        3.377294   1.000000
    9        3.377294   1.000000
   10        5.447354   0.000000
   11        7.895079   0.000000
   12        8.227765   0.000000
   13        8.227770   0.000000
   14       12.324411   0.000000
   15       13.951118   0.000000
   16       14.643870   0.000000
 
  0.5128205E-01  0.0000000E+00  0.5128205E-01  0.0000000E+00
    1      -13.867093   1.000000
    2      -13.863442   1.000000
    3      -13.863442   1.000000
    4      -13.784680   1.000000
    5      -13.783986   1.000000
    6      -10.413065   1.000000
    7        2.943699   1.000000
    8        3.367845   1.000000
    9        3.367847   1.000000
   10        5.477578   0.000000
   11        7.884496   0.000000
   12        8.241037   0.000000
   13        8.241044   0.000000
   14       12.341665   0.000000
   15       13.913762   0.000000
   16       14.646668   0.000000
 
  0.5311355E-01  0.0000000E+00  0.5311355E-01  0.0000000E+00
    1      -13.867277   1.000000
    2      -13.863363   1.000000
    3      -13.863363   1.000000
    4      -13.784710   1.000000
    5      -13.783966   1.000000
    6      -10.409841   1.000000
    7        2.912272   1.000000
    8        3.358121   1.000000
    9        3.358124   1.000000
   10        5.508074   0.000000
   11        7.873634   0.000000
   12        8.254730   0.000000
   13        8.254736   0.000000
   14       12.359426   0.000000
   15       13.876677   0.000000
   16       14.649939   0.000000
 
  0.5494506E-01  0.0000000E+00  0.5494506E-01  0.0000000E+00
    1      -13.867467   1.000000
    2      -13.863282   1.000000
    3      -13.863282   1.000000
    4      -13.784741   1.000000
    5      -13.783945   1.000000
    6      -10.406506   1.000000
    7        2.880540   1.000000
    8        3.348123   1.000000
    9        3.348124   1.000000
   10        5.538814   0.000000
   11        7.862503   0.000000
   12        8.268837   0.000000
   13        8.268842   0.000000
   14       12.377710   0.000000
   15       13.839997   0.000000
   16       14.655208   0.000000
 
  0.5677656E-01  0.0000000E+00  0.5677656E-01  0.0000000E+00
    1      -13.867663   1.000000
    2      -13.863198   1.000000
    3      -13.863197   1.000000
    4      -13.784770   1.000000
    5      -13.783924   1.000000
    6      -10.403057   1.000000
    7        2.848525   1.000000
    8        3.337854   1.000000
    9        3.337856   1.000000
   10        5.569771   0.000000
   11        7.851113   0.000000
   12        8.283350   0.000000
   13        8.283356   0.000000
   14       12.396404   0.000000
   15       13.801778   0.000000
   16       14.656817   0.000000
 
  0.5860806E-01  0.0000000E+00  0.5860806E-01  0.0000000E+00
    1      -13.867865   1.000000
    2      -13.863111   1.000000
    3      -13.863110   1.000000
    4      -13.784803   1.000000
    5      -13.783901   1.000000
    6      -10.399497   1.000000
    7        2.816249   1.000000
    8        3.327322   1.000000
    9        3.327323   1.000000
   10        5.600920   0.000000
   11        7.839471   0.000000
   12        8.298265   0.000000
   13        8.298272   0.000000
   14       12.415588   0.000000
   15       13.764154   0.000000
   16       14.660481   0.000000
 
  0.6043956E-01  0.0000000E+00  0.6043956E-01  0.0000000E+00
    1      -13.868073   1.000000
    2      -13.863019   1.000000
    3      -13.863019   1.000000
    4      -13.784837   1.000000
    5      -13.783879   1.000000
    6      -10.395825   1.000000
    7        2.783732   1.000000
    8        3.316530   1.000000
    9        3.316530   1.000000
   10        5.632237   0.000000
   11        7.827589   0.000000
   12        8.313577   0.000000
   13        8.313582   0.000000
   14       12.435222   0.000000
   15       13.727656   0.000000
   16       14.666819   0.000000
 
  0.6227106E-01  0.0000000E+00  0.6227106E-01  0.0000000E+00
    1      -13.868287   1.000000
    2      -13.862927   1.000000
    3      -13.862927   1.000000
    4      -13.784873   1.000000
    5      -13.783855   1.000000