       N       E                     dE             d eps       ncg     rms          ort
DAV:   1     0.778488128920E+03    0.77849E+03   -0.34783E+04 18528   0.635E+03
DAV:   2     0.120292042187E+03   -0.65820E+03   -0.61039E+03 18528   0.157E+03
DAV:   3     0.362775508115E+02   -0.84014E+02   -0.80080E+02 18528   0.205E+02
DAV:   4     0.312625345066E+02   -0.50150E+01   -0.49677E+01 18528   0.527E+01
DAV:   5     0.311857773332E+02   -0.76757E-01   -0.76738E-01 18528   0.674E+00
SDA:   6    -0.944739365288E+01   -0.40633E+02   -0.76738E-01 18528   0.220E+01 0.000E+00
CGA:   7    -0.973889692121E+01   -0.29150E+00   -0.29459E+00 18528   0.164E+00-0.165E-02
CGA:   8    -0.980053846223E+01   -0.61642E-01   -0.60960E-01 18528   0.117E+00 0.379E-02
CGA:   9    -0.983361311588E+01   -0.33075E-01   -0.32958E-01 18528   0.293E-01 0.127E-02
CGA:  10    -0.984229605946E+01   -0.86829E-02   -0.86507E-02 18528   0.128E-01 0.309E-03
CGA:  11    -0.984487689362E+01   -0.25808E-02   -0.25812E-02 18528   0.202E-02 0.673E-05
CGA:  12    -0.984541942693E+01   -0.54253E-03   -0.54213E-03 18528   0.722E-03 0.622E-05
CGA:  13    -0.984560057965E+01   -0.18115E-03   -0.18124E-03 18528   0.324E-03-0.289E-05
CGA:  14    -0.984567258347E+01   -0.72004E-04   -0.72027E-04 18528   0.131E-03-0.372E-05
CGA:  15    -0.984570196362E+01   -0.29380E-04   -0.29403E-04 18528   0.609E-04-0.221E-05
CGA:  16    -0.984571442208E+01   -0.12458E-04   -0.12453E-04 18528   0.221E-04-0.539E-06
CGA:  17    -0.984571899557E+01   -0.45735E-05   -0.45699E-05 18528   0.789E-05-0.483E-06
CGA:  18    -0.984572071455E+01   -0.17190E-05   -0.17199E-05 18528   0.295E-05-0.183E-06
CGA:  19    -0.984572128167E+01   -0.56713E-06   -0.56658E-06 18528   0.108E-05-0.478E-07
   1 F= -.98457213E+01 E0= -.98457213E+01  d E =-.984572E+01
