 vasp.5.4.1 24Jun15 (build Nov 25 2015 16:01:35) complex                        
  
 executed on         CrayXC-Intel date 2016.06.04  02:24:44
 running on   96 total cores
 distrk:  each k-point on   24 cores,    4 groups
 distr:  one band on NCORES_PER_BAND=   6 cores,    4 groups


--------------------------------------------------------------------------------------------------------


 INCAR:
 POTCAR:    PAW_PBE Ga_d 06Jul2010                
 POTCAR:    PAW_PBE As 22Sep2009                  

 ----------------------------------------------------------------------------- 
|                                                                             |
|           W    W    AA    RRRRR   N    N  II  N    N   GGGG   !!!           |
|           W    W   A  A   R    R  NN   N  II  NN   N  G    G  !!!           |
|           W    W  A    A  R    R  N N  N  II  N N  N  G       !!!           |
|           W WW W  AAAAAA  RRRRR   N  N N  II  N  N N  G  GGG   !            |
|           WW  WW  A    A  R   R   N   NN  II  N   NN  G    G                |
|           W    W  A    A  R    R  N    N  II  N    N   GGGG   !!!           |
|                                                                             |
|      You have enabled k-point parallelism (KPAR>1).                         |
|      This developmental code was originally  written by Paul Kent at ORNL,  |
|      and carefully double checked in Vienna.                                |
|      GW as well as linear response parallelism added by Martijn Marsman     |
|      and Georg Kresse.                                                      |
|      Carefully verify results versus KPAR=1.                                |
|      Report problems to Paul Kent and Vienna.                               |
|                                                                             |
 ----------------------------------------------------------------------------- 


 ----------------------------------------------------------------------------- 
|                                                                             |
|           W    W    AA    RRRRR   N    N  II  N    N   GGGG   !!!           |
|           W    W   A  A   R    R  NN   N  II  NN   N  G    G  !!!           |
|           W    W  A    A  R    R  N N  N  II  N N  N  G       !!!           |
|           W WW W  AAAAAA  RRRRR   N  N N  II  N  N N  G  GGG   !            |
|           WW  WW  A    A  R   R   N   NN  II  N   NN  G    G                |
|           W    W  A    A  R    R  N    N  II  N    N   GGGG   !!!           |
|                                                                             |
|      You have selected ISYM=2 for HF type calculation. This will symmetrize |
|      the charge density but not the exchange potential.                     |
|      I suggest to use ISYM=3 instead. This uses symmetry to obtain          |
|      the orbitals at all k-points in the Brillouine zone, but does not      |
|      apply symmetry to the Hartree potential directly.                      |
|      The resultant charge might have lower symmetry than the crystal,       |
|      but at least, Hartree and exchange are fully compatible.               |
|                                                                             |
 ----------------------------------------------------------------------------- 

 POTCAR:    PAW_PBE Ga_d 06Jul2010                
   VRHFIN =Ga: s2p1                                                             
   LEXCH  = PE                                                                  
   EATOM  =  2148.8298 eV,  157.9345 Ry                                         
                                                                                
   TITEL  = PAW_PBE Ga_d 06Jul2010                                              
   LULTRA =        F    use ultrasoft PP ?                                      
   IUNSCR =        1    unscreen: 0-lin 1-nonlin 2-no                           
   RPACOR =    1.700    partial core radius                                     
   POMASS =   69.723; ZVAL   =   13.000    mass and valenz                      
   RCORE  =    2.300    outmost cutoff radius                                   
   RWIGS  =    2.300; RWIGS  =    1.217    wigner-seitz radius (au A)           
   ENMAX  =  282.691; ENMIN  =  212.018 eV                                      
   ICORE  =        3    local potential                                         
   LCOR   =        T    correct aug charges                                     
   LPAW   =        T    paw PP                                                  
   EAUG   =  490.690                                                            
   DEXC   =    0.000                                                            
   RMAX   =    2.341    core radius for proj-oper                               
   RAUG   =    1.300    factor for augmentation sphere                          
   RDEP   =    2.413    radius for radial grids                                 
   RDEPT  =    1.856    core radius for aug-charge                              
                                                                                
   Atomic configuration                                                         
    9 entries                                                                   
     n  l   j            E        occ.                                          
     1  0  0.50    -10228.7831   2.0000                                         
     2  0  0.50     -1262.1604   2.0000                                         
     2  1  1.50     -1098.6333   6.0000                                         
     3  0  0.50      -148.1110   2.0000                                         
     3  1  1.50       -98.8436   6.0000                                         
     3  2  2.50       -19.1549  10.0000                                         
     4  0  0.50        -8.9483   2.0000                                         
     4  1  0.50        -2.5791   1.0000                                         
     4  3  2.50        -2.7416   0.0000                                         
   Description                                                                  
     l       E           TYP  RCUT    TYP  RCUT                                 
     2    -19.1549037     23  2.300                                             
     2     -5.4423304     23  2.300                                             
     0     -8.9483111     23  2.300                                             
     0     68.0291300     23  2.300                                             
     1     -2.5790802     23  2.100                                             
     1     81.6349560     23  2.300                                             
     3      6.8029130     23  2.300                                             
  local pseudopotential read in
  partial core-charges read in
  partial kinetic energy density read in
  atomic valenz-charges read in
  non local Contribution for L=           2  read in
    real space projection operators read in
  non local Contribution for L=           2  read in
    real space projection operators read in
  non local Contribution for L=           0  read in
    real space projection operators read in
  non local Contribution for L=           0  read in
    real space projection operators read in
  non local Contribution for L=           1  read in
    real space projection operators read in
  non local Contribution for L=           1  read in
    real space projection operators read in
    PAW grid and wavefunctions read in
 
   number of l-projection  operators is LMAX  =           6
   number of lm-projection operators is LMMAX =          18
 
 POTCAR:    PAW_PBE As 22Sep2009                  
   VRHFIN =As: s2p3                                                             
   LEXCH  = PE                                                                  
   EATOM  =   170.1867 eV,   12.5084 Ry                                         
                                                                                
   TITEL  = PAW_PBE As 22Sep2009                                                
   LULTRA =        F    use ultrasoft PP ?                                      
   IUNSCR =        1    unscreen: 0-lin 1-nonlin 2-no                           
   RPACOR =    1.900    partial core radius                                     
   POMASS =   74.922; ZVAL   =    5.000    mass and valenz                      
   RCORE  =    2.100    outmost cutoff radius                                   
   RWIGS  =    2.300; RWIGS  =    1.217    wigner-seitz radius (au A)           
   ENMAX  =  208.702; ENMIN  =  156.526 eV                                      
   ICORE  =        3    local potential                                         
   LCOR   =        T    correct aug charges                                     
   LPAW   =        T    paw PP                                                  
   EAUG   =  462.758                                                            
   DEXC   =    0.000                                                            
   RMAX   =    2.144    core radius for proj-oper                               
   RAUG   =    1.300    factor for augmentation sphere                          
   RDEP   =    2.140    radius for radial grids                                 
   RDEPT  =    1.956    core radius for aug-charge                              
                                                                                
   Atomic configuration                                                         
   10 entries                                                                   
     n  l   j            E        occ.                                          
     1  0  0.50    -11718.0418   2.0000                                         
     2  0  0.50     -1486.5454   2.0000                                         
     2  1  1.50     -1303.3889   6.0000                                         
     3  0  0.50      -190.2849   2.0000                                         
     3  1  1.50      -133.6555   6.0000                                         
     3  2  2.50       -40.6443  10.0000                                         
     4  0  0.50       -14.4936   2.0000                                         
     4  1  0.50        -5.1947   3.0000                                         
     4  2  1.50        -5.4423   0.0000                                         
     4  3  2.50        -5.4423   0.0000                                         
   Description                                                                  
     l       E           TYP  RCUT    TYP  RCUT                                 
     0    -14.4935570     23  2.100                                             
     0    -11.9212055     23  2.100                                             
     1     -5.1947127     23  2.100                                             
     1     27.2116520     23  2.100                                             
     2     -5.4423304     23  2.100                                             
     3     -1.3605826      7  2.100                                             
  local pseudopotential read in
  partial core-charges read in
  partial kinetic energy density read in
  atomic valenz-charges read in
  non local Contribution for L=           0  read in
    real space projection operators read in
  non local Contribution for L=           0  read in
    real space projection operators read in
  non local Contribution for L=           1  read in
    real space projection operators read in
  non local Contribution for L=           1  read in
    real space projection operators read in
  non local Contribution for L=           2  read in
    real space projection operators read in
    PAW grid and wavefunctions read in
 
   number of l-projection  operators is LMAX  =           5
   number of lm-projection operators is LMMAX =          13
 
  PAW_PBE Ga_d 06Jul2010                :
 energy of atom  1       EATOM=-2148.8298
 kinetic energy error for atom=    0.0026 (will be added to EATOM!!)
  PAW_PBE As 22Sep2009                  :
 energy of atom  2       EATOM= -170.1867
 kinetic energy error for atom=    0.0005 (will be added to EATOM!!)
 
 
 POSCAR: GaAs (Madelung Handbook, RT)            
  positions in direct lattice
  velocities in cartesian coordinates
 exchange correlation table for  LEXCH =        8
   RHO(1)=    0.500       N(1)  =     2000
   RHO(2)=  100.500       N(2)  =     4000
 


--------------------------------------------------------------------------------------------------------


 ion  position               nearest neighbor table
   1  0.000  0.000  0.000-   2 2.45   2 2.45   2 2.45   2 2.45
   2  0.250  0.250  0.250-   1 2.45   1 2.45   1 2.45   1 2.45
 
  LATTYP: Found a face centered cubic cell.
 ALAT       =     5.6536000000
  
  Lattice vectors:
  
 A1 = (   2.8268000000,   2.8268000000,   0.0000000000)
 A2 = (   2.8268000000,   0.0000000000,  -2.8268000000)
 A3 = (   0.0000000000,   2.8268000000,  -2.8268000000)


Analysis of symmetry for initial positions (statically):
=====================================================================
 Subroutine PRICEL returns:
 Original cell was already a primitive cell.
 

 Routine SETGRP: Setting up the symmetry group for a 
 face centered cubic supercell.


 Subroutine GETGRP returns: Found 24 space group operations
 (whereof 24 operations were pure point group operations)
 out of a pool of 48 trial point group operations.


The static configuration has the point symmetry T_d .


Analysis of symmetry for dynamics (positions and initial velocities):
=====================================================================
 Subroutine PRICEL returns:
 Original cell was already a primitive cell.
 

 Routine SETGRP: Setting up the symmetry group for a 
 face centered cubic supercell.


 Subroutine GETGRP returns: Found 24 space group operations
 (whereof 24 operations were pure point group operations)
 out of a pool of 48 trial point group operations.


The dynamic configuration has the point symmetry T_d .


 Subroutine INISYM returns: Found 24 space group operations
 (whereof 24 operations are pure point group operations),
 and found     1 'primitive' translations

 
 
 KPOINTS: Automatically generated mesh: SCF 16, 0.
  k-points in reciprocal lattice
Space group operators:
 irot       det(A)        alpha          n_x          n_y          n_z        tau_x        tau_y        tau_z
    1     1.000000     0.000000     1.000000     0.000000     0.000000     0.000000     0.000000     0.000000
    2     1.000000   120.000000    -0.577350    -0.577350     0.577350     0.000000     0.000000     0.000000
    3     1.000000   120.000000     0.577350     0.577350    -0.577350     0.000000     0.000000     0.000000
    4    -1.000000    90.000000    -1.000000     0.000000     0.000000     0.000000     0.000000     0.000000
    5    -1.000000   180.000000     0.707107     0.707107     0.000000     0.000000     0.000000     0.000000
    6    -1.000000    90.000000     0.000000     1.000000     0.000000     0.000000     0.000000     0.000000
    7     1.000000   180.000000     1.000000     0.000000     0.000000     0.000000     0.000000     0.000000
    8     1.000000   120.000000     0.577350     0.577350     0.577350     0.000000     0.000000     0.000000
    9     1.000000   120.000000    -0.577350     0.577350     0.577350     0.000000     0.000000     0.000000
   10    -1.000000    90.000000     1.000000     0.000000     0.000000     0.000000     0.000000     0.000000
   11    -1.000000    90.000000     0.000000     0.000000     1.000000     0.000000     0.000000     0.000000
   12    -1.000000   180.000000     0.707107     0.000000    -0.707107     0.000000     0.000000     0.000000
   13     1.000000   120.000000     0.577350    -0.577350    -0.577350     0.000000     0.000000     0.000000
   14     1.000000   120.000000     0.577350    -0.577350     0.577350     0.000000     0.000000     0.000000
   15     1.000000   180.000000     0.000000     0.000000     1.000000     0.000000     0.000000     0.000000
   16    -1.000000    90.000000     0.000000    -1.000000     0.000000     0.000000     0.000000     0.000000
   17    -1.000000   180.000000     0.000000    -0.707107     0.707107     0.000000     0.000000     0.000000
   18    -1.000000    90.000000     0.000000     0.000000    -1.000000     0.000000     0.000000     0.000000
   19     1.000000   120.000000    -0.577350    -0.577350    -0.577350     0.000000     0.000000     0.000000
   20     1.000000   180.000000     0.000000     1.000000     0.000000     0.000000     0.000000     0.000000
   21     1.000000   120.000000    -0.577350     0.577350    -0.577350     0.000000     0.000000     0.000000
   22    -1.000000   180.000000     0.707107    -0.707107     0.000000     0.000000     0.000000     0.000000
   23    -1.000000   180.000000     0.000000     0.707107     0.707107     0.000000     0.000000     0.000000
   24    -1.000000   180.000000     0.707107     0.000000     0.707107     0.000000     0.000000     0.000000

 ----------------------------------------------------------------------------- 
|                                                                             |
|           W    W    AA    RRRRR   N    N  II  N    N   GGGG   !!!           |
|           W    W   A  A   R    R  NN   N  II  NN   N  G    G  !!!           |
|           W    W  A    A  R    R  N N  N  II  N N  N  G       !!!           |
|           W WW W  AAAAAA  RRRRR   N  N N  II  N  N N  G  GGG   !            |
|           WW  WW  A    A  R   R   N   NN  II  N   NN  G    G                |
|           W    W  A    A  R    R  N    N  II  N    N   GGGG   !!!           |
|                                                                             |
|      Your generating k-point grid is not commensurate to the symmetry       |
|      of the lattice.  This can cause   slow convergence with respect        |
|      to k-points for HF type calculations                                   |
|      suggested SOLUTIONS:                                                   |
|       ) if not already the case, use automatic k-point generation           |
|       ) shift your grid to Gamma (G) (e.g. required for hex or fcc lattice) |
|                                                                             |
 ----------------------------------------------------------------------------- 

 
 Subroutine IBZKPT_HF returns following result:
 ==============================================
 
 Found   1358 k-points in 1st BZ
 the following   1358 k-points will be used (e.g. in the exchange kernel)
 Following reciprocal coordinates:   # in IRBZ
  0.000000  0.000000  0.000000    0.00462963   1 t-inv F
  0.166667  0.000000  0.000000    0.00462963   2 t-inv F
  0.333333  0.000000  0.000000    0.00462963   3 t-inv F
  0.500000  0.000000  0.000000    0.00462963   4 t-inv F
  0.166667  0.166667  0.000000    0.00462963   5 t-inv F
  0.333333  0.166667  0.000000    0.00462963   6 t-inv F
  0.500000  0.166667  0.000000    0.00462963   7 t-inv F
 -0.333333  0.166667  0.000000    0.00462963   8 t-inv F
 -0.166667  0.166667  0.000000    0.00462963   9 t-inv F
  0.333333  0.333333  0.000000    0.00462963  10 t-inv F
  0.500000  0.333333  0.000000    0.00462963  11 t-inv F
 -0.333333  0.333333  0.000000    0.00462963  12 t-inv F
  0.500000  0.500000  0.000000    0.00462963  13 t-inv F
  0.500000  0.333333  0.166667    0.00462963  14 t-inv F
 -0.333333  0.333333  0.166667    0.00462963  15 t-inv F
 -0.333333  0.500000  0.166667    0.00462963  16 t-inv F
  0.000000  0.000000  0.000000    0.00000000  17 t-inv F
  0.001832  0.000000  0.001832    0.00000000  18 t-inv F
  0.003663  0.000000  0.003663    0.00000000  19 t-inv F
  0.005495  0.000000  0.005495    0.00000000  20 t-inv F
  0.007326  0.000000  0.007326    0.00000000  21 t-inv F
  0.009158  0.000000  0.009158    0.00000000  22 t-inv F
  0.010989  0.000000  0.010989    0.00000000  23 t-inv F
  0.012821  0.000000  0.012821    0.00000000  24 t-inv F
  0.014652  0.000000  0.014652    0.00000000  25 t-inv F
  0.016484  0.000000  0.016484    0.00000000  26 t-inv F
  0.018315  0.000000  0.018315    0.00000000  27 t-inv F
  0.020147  0.000000  0.020147    0.00000000  28 t-inv F
  0.021978  0.000000  0.021978    0.00000000  29 t-inv F
  0.023810  0.000000  0.023810    0.00000000  30 t-inv F
  0.025641  0.000000  0.025641    0.00000000  31 t-inv F
  0.027473  0.000000  0.027473    0.00000000  32 t-inv F
  0.029304  0.000000  0.029304    0.00000000  33 t-inv F
  0.031136  0.000000  0.031136    0.00000000  34 t-inv F
  0.032967  0.000000  0.032967    0.00000000  35 t-inv F
  0.034799  0.000000  0.034799    0.00000000  36 t-inv F
  0.036630  0.000000  0.036630    0.00000000  37 t-inv F
  0.038462  0.000000  0.038462    0.00000000  38 t-inv F
  0.040293  0.000000  0.040293    0.00000000  39 t-inv F
  0.042125  0.000000  0.042125    0.00000000  40 t-inv F
  0.043956  0.000000  0.043956    0.00000000  41 t-inv F
  0.045788  0.000000  0.045788    0.00000000  42 t-inv F
  0.047619  0.000000  0.047619    0.00000000  43 t-inv F
  0.049451  0.000000  0.049451    0.00000000  44 t-inv F
  0.051282  0.000000  0.051282    0.00000000  45 t-inv F
  0.053114  0.000000  0.053114    0.00000000  46 t-inv F
  0.054945  0.000000  0.054945    0.00000000  47 t-inv F
  0.056777  0.000000  0.056777    0.00000000  48 t-inv F
  0.058608  0.000000  0.058608    0.00000000  49 t-inv F
  0.060440  0.000000  0.060440    0.00000000  50 t-inv F
  0.062271  0.000000  0.062271    0.00000000  51 t-inv F
  0.064103  0.000000  0.064103    0.00000000  52 t-inv F
  0.065934  0.000000  0.065934    0.00000000  53 t-inv F
  0.067766  0.000000  0.067766    0.00000000  54 t-inv F
  0.069597  0.000000  0.069597    0.00000000  55 t-inv F
  0.071429  0.000000  0.071429    0.00000000  56 t-inv F
  0.073260  0.000000  0.073260    0.00000000  57 t-inv F
  0.075092  0.000000  0.075092    0.00000000  58 t-inv F
  0.076923  0.000000  0.076923    0.00000000  59 t-inv F
  0.078755  0.000000  0.078755    0.00000000  60 t-inv F
  0.080586  0.000000  0.080586    0.00000000  61 t-inv F
  0.082418  0.000000  0.082418    0.00000000  62 t-inv F
  0.084249  0.000000  0.084249    0.00000000  63 t-inv F
  0.086081  0.000000  0.086081    0.00000000  64 t-inv F
  0.087912  0.000000  0.087912    0.00000000  65 t-inv F
  0.089744  0.000000  0.089744    0.00000000  66 t-inv F
  0.091575  0.000000  0.091575    0.00000000  67 t-inv F
  0.093407  0.000000  0.093407    0.00000000  68 t-inv F
  0.095238  0.000000  0.095238    0.00000000  69 t-inv F
  0.097070  0.000000  0.097070    0.00000000  70 t-inv F
  0.098901  0.000000  0.098901    0.00000000  71 t-inv F
  0.100733  0.000000  0.100733    0.00000000  72 t-inv F
  0.102564  0.000000  0.102564    0.00000000  73 t-inv F
  0.104396  0.000000  0.104396    0.00000000  74 t-inv F
  0.106227  0.000000  0.106227    0.00000000  75 t-inv F
  0.108059  0.000000  0.108059    0.00000000  76 t-inv F
  0.109890  0.000000  0.109890    0.00000000  77 t-inv F
  0.111722  0.000000  0.111722    0.00000000  78 t-inv F
  0.113553  0.000000  0.113553    0.00000000  79 t-inv F
  0.115385  0.000000  0.115385    0.00000000  80 t-inv F
  0.117216  0.000000  0.117216    0.00000000  81 t-inv F
  0.119048  0.000000  0.119048    0.00000000  82 t-inv F
  0.120879  0.000000  0.120879    0.00000000  83 t-inv F
  0.122711  0.000000  0.122711    0.00000000  84 t-inv F
  0.124542  0.000000  0.124542    0.00000000  85 t-inv F
  0.126374  0.000000  0.126374    0.00000000  86 t-inv F
  0.128205  0.000000  0.128205    0.00000000  87 t-inv F
  0.130037  0.000000  0.130037    0.00000000  88 t-inv F
  0.131868  0.000000  0.131868    0.00000000  89 t-inv F
  0.133700  0.000000  0.133700    0.00000000  90 t-inv F
  0.135531  0.000000  0.135531    0.00000000  91 t-inv F
  0.137363  0.000000  0.137363    0.00000000  92 t-inv F
  0.139194  0.000000  0.139194    0.00000000  93 t-inv F
  0.141026  0.000000  0.141026    0.00000000  94 t-inv F
  0.142857  0.000000  0.142857    0.00000000  95 t-inv F
  0.144689  0.000000  0.144689    0.00000000  96 t-inv F
  0.146520  0.000000  0.146520    0.00000000  97 t-inv F
  0.148352  0.000000  0.148352    0.00000000  98 t-inv F
  0.150183  0.000000  0.150183    0.00000000  99 t-inv F
  0.152015  0.000000  0.152015    0.00000000 100 t-inv F
  0.153846  0.000000  0.153846    0.00000000 101 t-inv F
  0.155678  0.000000  0.155678    0.00000000 102 t-inv F
  0.157509  0.000000  0.157509    0.00000000 103 t-inv F
  0.159341  0.000000  0.159341    0.00000000 104 t-inv F
  0.161172  0.000000  0.161172    0.00000000 105 t-inv F
  0.163004  0.000000  0.163004    0.00000000 106 t-inv F
  0.164835  0.000000  0.164835    0.00000000 107 t-inv F
  0.166667  0.000000  0.166667    0.00000000 108 t-inv F
  0.168498  0.000000  0.168498    0.00000000 109 t-inv F
  0.170330  0.000000  0.170330    0.00000000 110 t-inv F
  0.172161  0.000000  0.172161    0.00000000 111 t-inv F
  0.173993  0.000000  0.173993    0.00000000 112 t-inv F
  0.175824  0.000000  0.175824    0.00000000 113 t-inv F
  0.177656  0.000000  0.177656    0.00000000 114 t-inv F
  0.179487  0.000000  0.179487    0.00000000 115 t-inv F
  0.181319  0.000000  0.181319    0.00000000 116 t-inv F
  0.183150  0.000000  0.183150    0.00000000 117 t-inv F
  0.184982  0.000000  0.184982    0.00000000 118 t-inv F
  0.186813  0.000000  0.186813    0.00000000 119 t-inv F
  0.188645  0.000000  0.188645    0.00000000 120 t-inv F
  0.190476  0.000000  0.190476    0.00000000 121 t-inv F
  0.192308  0.000000  0.192308    0.00000000 122 t-inv F
  0.194139  0.000000  0.194139    0.00000000 123 t-inv F
  0.195971  0.000000  0.195971    0.00000000 124 t-inv F
  0.197802  0.000000  0.197802    0.00000000 125 t-inv F
  0.199634  0.000000  0.199634    0.00000000 126 t-inv F
  0.201465  0.000000  0.201465    0.00000000 127 t-inv F
  0.203297  0.000000  0.203297    0.00000000 128 t-inv F
  0.205128  0.000000  0.205128    0.00000000 129 t-inv F
  0.206960  0.000000  0.206960    0.00000000 130 t-inv F
  0.208791  0.000000  0.208791    0.00000000 131 t-inv F
  0.210623  0.000000  0.210623    0.00000000 132 t-inv F
  0.212454  0.000000  0.212454    0.00000000 133 t-inv F
  0.214286  0.000000  0.214286    0.00000000 134 t-inv F
  0.216117  0.000000  0.216117    0.00000000 135 t-inv F
  0.217949  0.000000  0.217949    0.00000000 136 t-inv F
  0.219780  0.000000  0.219780    0.00000000 137 t-inv F
  0.221612  0.000000  0.221612    0.00000000 138 t-inv F
  0.223443  0.000000  0.223443    0.00000000 139 t-inv F
  0.225275  0.000000  0.225275    0.00000000 140 t-inv F
  0.227106  0.000000  0.227106    0.00000000 141 t-inv F
  0.228938  0.000000  0.228938    0.00000000 142 t-inv F
  0.230769  0.000000  0.230769    0.00000000 143 t-inv F
  0.232601  0.000000  0.232601    0.00000000 144 t-inv F
  0.234432  0.000000  0.234432    0.00000000 145 t-inv F
  0.236264  0.000000  0.236264    0.00000000 146 t-inv F
  0.238095  0.000000  0.238095    0.00000000 147 t-inv F
  0.239927  0.000000  0.239927    0.00000000 148 t-inv F
  0.241758  0.000000  0.241758    0.00000000 149 t-inv F
  0.243590  0.000000  0.243590    0.00000000 150 t-inv F
  0.245421  0.000000  0.245421    0.00000000 151 t-inv F
  0.247253  0.000000  0.247253    0.00000000 152 t-inv F
  0.249084  0.000000  0.249084    0.00000000 153 t-inv F
  0.250916  0.000000  0.250916    0.00000000 154 t-inv F
  0.252747  0.000000  0.252747    0.00000000 155 t-inv F
  0.254579  0.000000  0.254579    0.00000000 156 t-inv F
  0.256410  0.000000  0.256410    0.00000000 157 t-inv F
  0.258242  0.000000  0.258242    0.00000000 158 t-inv F
  0.260073  0.000000  0.260073    0.00000000 159 t-inv F
  0.261905  0.000000  0.261905    0.00000000 160 t-inv F
  0.263736  0.000000  0.263736    0.00000000 161 t-inv F
  0.265568  0.000000  0.265568    0.00000000 162 t-inv F
  0.267399  0.000000  0.267399    0.00000000 163 t-inv F
  0.269231  0.000000  0.269231    0.00000000 164 t-inv F
  0.271062  0.000000  0.271062    0.00000000 165 t-inv F
  0.272894  0.000000  0.272894    0.00000000 166 t-inv F
  0.274725  0.000000  0.274725    0.00000000 167 t-inv F
  0.276557  0.000000  0.276557    0.00000000 168 t-inv F
  0.278388  0.000000  0.278388    0.00000000 169 t-inv F
  0.280220  0.000000  0.280220    0.00000000 170 t-inv F
  0.282051  0.000000  0.282051    0.00000000 171 t-inv F
  0.283883  0.000000  0.283883    0.00000000 172 t-inv F
  0.285714  0.000000  0.285714    0.00000000 173 t-inv F
  0.287546  0.000000  0.287546    0.00000000 174 t-inv F
  0.289377  0.000000  0.289377    0.00000000 175 t-inv F
  0.291209  0.000000  0.291209    0.00000000 176 t-inv F
  0.293040  0.000000  0.293040    0.00000000 177 t-inv F
  0.294872  0.000000  0.294872    0.00000000 178 t-inv F
  0.296703  0.000000  0.296703    0.00000000 179 t-inv F
  0.298535  0.000000  0.298535    0.00000000 180 t-inv F
  0.300366  0.000000  0.300366    0.00000000 181 t-inv F
  0.302198  0.000000  0.302198    0.00000000 182 t-inv F
  0.304029  0.000000  0.304029    0.00000000 183 t-inv F
  0.305861  0.000000  0.305861    0.00000000 184 t-inv F
  0.307692  0.000000  0.307692    0.00000000 185 t-inv F
  0.309524  0.000000  0.309524    0.00000000 186 t-inv F
  0.311355  0.000000  0.311355    0.00000000 187 t-inv F
  0.313187  0.000000  0.313187    0.00000000 188 t-inv F
  0.315018  0.000000  0.315018    0.00000000 189 t-inv F
  0.316850  0.000000  0.316850    0.00000000 190 t-inv F
  0.318681  0.000000  0.318681    0.00000000 191 t-inv F
  0.320513  0.000000  0.320513    0.00000000 192 t-inv F
  0.322344  0.000000  0.322344    0.00000000 193 t-inv F
  0.324176  0.000000  0.324176    0.00000000 194 t-inv F
  0.326007  0.000000  0.326007    0.00000000 195 t-inv F
  0.327839  0.000000  0.327839    0.00000000 196 t-inv F
  0.329670  0.000000  0.329670    0.00000000 197 t-inv F
  0.331502  0.000000  0.331502    0.00000000 198 t-inv F
  0.333333  0.000000  0.333333    0.00000000 199 t-inv F
  0.335165  0.000000  0.335165    0.00000000 200 t-inv F
  0.336996  0.000000  0.336996    0.00000000 201 t-inv F
  0.338828  0.000000  0.338828    0.00000000 202 t-inv F
  0.340659  0.000000  0.340659    0.00000000 203 t-inv F
  0.342491  0.000000  0.342491    0.00000000 204 t-inv F
  0.344322  0.000000  0.344322    0.00000000 205 t-inv F
  0.346154  0.000000  0.346154    0.00000000 206 t-inv F
  0.347985  0.000000  0.347985    0.00000000 207 t-inv F
  0.349817  0.000000  0.349817    0.00000000 208 t-inv F
  0.351648  0.000000  0.351648    0.00000000 209 t-inv F
  0.353480  0.000000  0.353480    0.00000000 210 t-inv F
  0.355311  0.000000  0.355311    0.00000000 211 t-inv F
  0.357143  0.000000  0.357143    0.00000000 212 t-inv F
  0.358974  0.000000  0.358974    0.00000000 213 t-inv F
  0.360806  0.000000  0.360806    0.00000000 214 t-inv F
  0.362637  0.000000  0.362637    0.00000000 215 t-inv F
  0.364469  0.000000  0.364469    0.00000000 216 t-inv F
  0.366300  0.000000  0.366300    0.00000000 217 t-inv F
  0.368132  0.000000  0.368132    0.00000000 218 t-inv F
  0.369963  0.000000  0.369963    0.00000000 219 t-inv F
  0.371795  0.000000  0.371795    0.00000000 220 t-inv F
  0.373626  0.000000  0.373626    0.00000000 221 t-inv F
  0.375458  0.000000  0.375458    0.00000000 222 t-inv F
  0.377289  0.000000  0.377289    0.00000000 223 t-inv F
  0.379121  0.000000  0.379121    0.00000000 224 t-inv F
  0.380952  0.000000  0.380952    0.00000000 225 t-inv F
  0.382784  0.000000  0.382784    0.00000000 226 t-inv F
  0.384615  0.000000  0.384615    0.00000000 227 t-inv F
  0.386447  0.000000  0.386447    0.00000000 228 t-inv F
  0.388278  0.000000  0.388278    0.00000000 229 t-inv F
  0.390110  0.000000  0.390110    0.00000000 230 t-inv F
  0.391941  0.000000  0.391941    0.00000000 231 t-inv F
  0.393773  0.000000  0.393773    0.00000000 232 t-inv F
  0.395604  0.000000  0.395604    0.00000000 233 t-inv F
  0.397436  0.000000  0.397436    0.00000000 234 t-inv F
  0.399267  0.000000  0.399267    0.00000000 235 t-inv F
  0.401099  0.000000  0.401099    0.00000000 236 t-inv F
  0.402930  0.000000  0.402930    0.00000000 237 t-inv F
  0.404762  0.000000  0.404762    0.00000000 238 t-inv F
  0.406593  0.000000  0.406593    0.00000000 239 t-inv F
  0.408425  0.000000  0.408425    0.00000000 240 t-inv F
  0.410256  0.000000  0.410256    0.00000000 241 t-inv F
  0.412088  0.000000  0.412088    0.00000000 242 t-inv F
  0.413919  0.000000  0.413919    0.00000000 243 t-inv F
  0.415751  0.000000  0.415751    0.00000000 244 t-inv F
  0.417582  0.000000  0.417582    0.00000000 245 t-inv F
  0.419414  0.000000  0.419414    0.00000000 246 t-inv F
  0.421245  0.000000  0.421245    0.00000000 247 t-inv F
  0.423077  0.000000  0.423077    0.00000000 248 t-inv F
  0.424908  0.000000  0.424908    0.00000000 249 t-inv F
  0.426740  0.000000  0.426740    0.00000000 250 t-inv F
  0.428571  0.000000  0.428571    0.00000000 251 t-inv F
  0.430403  0.000000  0.430403    0.00000000 252 t-inv F
  0.432234  0.000000  0.432234    0.00000000 253 t-inv F
  0.434066  0.000000  0.434066    0.00000000 254 t-inv F
  0.435897  0.000000  0.435897    0.00000000 255 t-inv F
  0.437729  0.000000  0.437729    0.00000000 256 t-inv F
  0.439560  0.000000  0.439560    0.00000000 257 t-inv F
  0.441392  0.000000  0.441392    0.00000000 258 t-inv F
  0.443223  0.000000  0.443223    0.00000000 259 t-inv F
  0.445055  0.000000  0.445055    0.00000000 260 t-inv F
  0.446886  0.000000  0.446886    0.00000000 261 t-inv F
  0.448718  0.000000  0.448718    0.00000000 262 t-inv F
  0.450549  0.000000  0.450549    0.00000000 263 t-inv F
  0.452381  0.000000  0.452381    0.00000000 264 t-inv F
  0.454212  0.000000  0.454212    0.00000000 265 t-inv F
  0.456044  0.000000  0.456044    0.00000000 266 t-inv F
  0.457875  0.000000  0.457875    0.00000000 267 t-inv F
  0.459707  0.000000  0.459707    0.00000000 268 t-inv F
  0.461538  0.000000  0.461538    0.00000000 269 t-inv F
  0.463370  0.000000  0.463370    0.00000000 270 t-inv F
  0.465201  0.000000  0.465201    0.00000000 271 t-inv F
  0.467033  0.000000  0.467033    0.00000000 272 t-inv F
  0.468864  0.000000  0.468864    0.00000000 273 t-inv F
  0.470696  0.000000  0.470696    0.00000000 274 t-inv F
  0.472527  0.000000  0.472527    0.00000000 275 t-inv F
  0.474359  0.000000  0.474359    0.00000000 276 t-inv F
  0.476190  0.000000  0.476190    0.00000000 277 t-inv F
  0.478022  0.000000  0.478022    0.00000000 278 t-inv F
  0.479854  0.000000  0.479854    0.00000000 279 t-inv F
  0.481685  0.000000  0.481685    0.00000000 280 t-inv F
  0.483516  0.000000  0.483516    0.00000000 281 t-inv F
  0.485348  0.000000  0.485348    0.00000000 282 t-inv F
  0.487179  0.000000  0.487179    0.00000000 283 t-inv F
  0.489011  0.000000  0.489011    0.00000000 284 t-inv F
  0.490842  0.000000  0.490842    0.00000000 285 t-inv F
  0.492674  0.000000  0.492674    0.00000000 286 t-inv F
  0.494506  0.000000  0.494506    0.00000000 287 t-inv F
  0.496337  0.000000  0.496337    0.00000000 288 t-inv F
  0.498169  0.000000  0.498169    0.00000000 289 t-inv F
  0.500000  0.000000  0.500000    0.00000000 290 t-inv F
  0.499306  0.002083  0.501389    0.00000000 291 t-inv F
  0.498611  0.004167  0.502778    0.00000000 292 t-inv F
  0.497917  0.006250  0.504167    0.00000000 293 t-inv F
  0.497222  0.008333  0.505556    0.00000000 294 t-inv F
  0.496528  0.010417  0.506944    0.00000000 295 t-inv F
  0.495833  0.012500  0.508333    0.00000000 296 t-inv F
  0.495139  0.014583  0.509722    0.00000000 297 t-inv F
  0.494444  0.016667  0.511111    0.00000000 298 t-inv F
  0.493750  0.018750  0.512500    0.00000000 299 t-inv F
  0.493056  0.020833  0.513889    0.00000000 300 t-inv F
  0.492361  0.022917  0.515278    0.00000000 301 t-inv F
  0.491667  0.025000  0.516667    0.00000000 302 t-inv F
  0.490972  0.027083  0.518056    0.00000000 303 t-inv F
  0.490278  0.029167  0.519444    0.00000000 304 t-inv F
  0.489583  0.031250  0.520833    0.00000000 305 t-inv F
  0.488889  0.033333  0.522222    0.00000000 306 t-inv F
  0.488194  0.035417  0.523611    0.00000000 307 t-inv F
  0.487500  0.037500  0.525000    0.00000000 308 t-inv F
  0.486806  0.039583  0.526389    0.00000000 309 t-inv F
  0.486111  0.041667  0.527778    0.00000000 310 t-inv F
  0.485417  0.043750  0.529167    0.00000000 311 t-inv F
  0.484722  0.045833  0.530556    0.00000000 312 t-inv F
  0.484028  0.047917  0.531944    0.00000000 313 t-inv F
  0.483333  0.050000  0.533333    0.00000000 314 t-inv F
  0.482639  0.052083  0.534722    0.00000000 315 t-inv F
  0.481944  0.054167  0.536111    0.00000000 316 t-inv F
  0.481250  0.056250  0.537500    0.00000000 317 t-inv F
  0.480556  0.058333  0.538889    0.00000000 318 t-inv F
  0.479861  0.060417  0.540278    0.00000000 319 t-inv F
  0.479167  0.062500  0.541667    0.00000000 320 t-inv F
  0.478472  0.064583  0.543056    0.00000000 321 t-inv F
  0.477778  0.066667  0.544444    0.00000000 322 t-inv F
  0.477083  0.068750  0.545833    0.00000000 323 t-inv F
  0.476389  0.070833  0.547222    0.00000000 324 t-inv F
  0.475694  0.072917  0.548611    0.00000000 325 t-inv F
  0.475000  0.075000  0.550000    0.00000000 326 t-inv F
  0.474306  0.077083  0.551389    0.00000000 327 t-inv F
  0.473611  0.079167  0.552778    0.00000000 328 t-inv F
  0.472917  0.081250  0.554167    0.00000000 329 t-inv F
  0.472222  0.083333  0.555556    0.00000000 330 t-inv F
  0.471528  0.085417  0.556944    0.00000000 331 t-inv F
  0.470833  0.087500  0.558333    0.00000000 332 t-inv F
  0.470139  0.089583  0.559722    0.00000000 333 t-inv F
  0.469444  0.091667  0.561111    0.00000000 334 t-inv F
  0.468750  0.093750  0.562500    0.00000000 335 t-inv F
  0.468056  0.095833  0.563889    0.00000000 336 t-inv F
  0.467361  0.097917  0.565278    0.00000000 337 t-inv F
  0.466667  0.100000  0.566667    0.00000000 338 t-inv F
  0.465972  0.102083  0.568056    0.00000000 339 t-inv F
  0.465278  0.104167  0.569444    0.00000000 340 t-inv F
  0.464583  0.106250  0.570833    0.00000000 341 t-inv F
  0.463889  0.108333  0.572222    0.00000000 342 t-inv F
  0.463194  0.110417  0.573611    0.00000000 343 t-inv F
  0.462500  0.112500  0.575000    0.00000000 344 t-inv F
  0.461806  0.114583  0.576389    0.00000000 345 t-inv F
  0.461111  0.116667  0.577778    0.00000000 346 t-inv F
  0.460417  0.118750  0.579167    0.00000000 347 t-inv F
  0.459722  0.120833  0.580556    0.00000000 348 t-inv F
  0.459028  0.122917  0.581944    0.00000000 349 t-inv F
  0.458333  0.125000  0.583333    0.00000000 350 t-inv F
  0.457639  0.127083  0.584722    0.00000000 351 t-inv F
  0.456944  0.129167  0.586111    0.00000000 352 t-inv F
  0.456250  0.131250  0.587500    0.00000000 353 t-inv F
  0.455556  0.133333  0.588889    0.00000000 354 t-inv F
  0.454861  0.135417  0.590278    0.00000000 355 t-inv F
  0.454167  0.137500  0.591667    0.00000000 356 t-inv F
  0.453472  0.139583  0.593056    0.00000000 357 t-inv F
  0.452778  0.141667  0.594444    0.00000000 358 t-inv F
  0.452083  0.143750  0.595833    0.00000000 359 t-inv F
  0.451389  0.145833  0.597222    0.00000000 360 t-inv F
  0.450694  0.147917  0.598611    0.00000000 361 t-inv F
  0.450000  0.150000  0.600000    0.00000000 362 t-inv F
  0.449306  0.152083  0.601389    0.00000000 363 t-inv F
  0.448611  0.154167  0.602778    0.00000000 364 t-inv F
  0.447917  0.156250  0.604167    0.00000000 365 t-inv F
  0.447222  0.158333  0.605556    0.00000000 366 t-inv F
  0.446528  0.160417  0.606944    0.00000000 367 t-inv F
  0.445833  0.162500  0.608333    0.00000000 368 t-inv F
  0.445139  0.164583  0.609722    0.00000000 369 t-inv F
  0.444444  0.166667  0.611111    0.00000000 370 t-inv F
  0.443750  0.168750  0.612500    0.00000000 371 t-inv F
  0.443056  0.170833  0.613889    0.00000000 372 t-inv F
  0.442361  0.172917  0.615278    0.00000000 373 t-inv F
  0.441667  0.175000  0.616667    0.00000000 374 t-inv F
  0.440972  0.177083  0.618056    0.00000000 375 t-inv F
  0.440278  0.179167  0.619444    0.00000000 376 t-inv F
  0.439583  0.181250  0.620833    0.00000000 377 t-inv F
  0.438889  0.183333  0.622222    0.00000000 378 t-inv F
  0.438194  0.185417  0.623611    0.00000000 379 t-inv F
  0.437500  0.187500  0.625000    0.00000000 380 t-inv F
  0.436806  0.189583  0.626389    0.00000000 381 t-inv F
  0.436111  0.191667  0.627778    0.00000000 382 t-inv F
  0.435417  0.193750  0.629167    0.00000000 383 t-inv F
  0.434722  0.195833  0.630556    0.00000000 384 t-inv F
  0.434028  0.197917  0.631944    0.00000000 385 t-inv F
  0.433333  0.200000  0.633333    0.00000000 386 t-inv F
  0.432639  0.202083  0.634722    0.00000000 387 t-inv F
  0.431944  0.204167  0.636111    0.00000000 388 t-inv F
  0.431250  0.206250  0.637500    0.00000000 389 t-inv F
  0.430556  0.208333  0.638889    0.00000000 390 t-inv F
  0.429861  0.210417  0.640278    0.00000000 391 t-inv F
  0.429167  0.212500  0.641667    0.00000000 392 t-inv F
  0.428472  0.214583  0.643056    0.00000000 393 t-inv F
  0.427778  0.216667  0.644444    0.00000000 394 t-inv F
  0.427083  0.218750  0.645833    0.00000000 395 t-inv F
  0.426389  0.220833  0.647222    0.00000000 396 t-inv F
  0.425694  0.222917  0.648611    0.00000000 397 t-inv F
  0.425000  0.225000  0.650000    0.00000000 398 t-inv F
  0.424306  0.227083  0.651389    0.00000000 399 t-inv F
  0.423611  0.229167  0.652778    0.00000000 400 t-inv F
  0.422917  0.231250  0.654167    0.00000000 401 t-inv F
  0.422222  0.233333  0.655556    0.00000000 402 t-inv F
  0.421528  0.235417  0.656944    0.00000000 403 t-inv F
  0.420833  0.237500  0.658333    0.00000000 404 t-inv F
  0.420139  0.239583  0.659722    0.00000000 405 t-inv F
  0.419444  0.241667  0.661111    0.00000000 406 t-inv F
  0.418750  0.243750  0.662500    0.00000000 407 t-inv F
  0.418056  0.245833  0.663889    0.00000000 408 t-inv F
  0.417361  0.247917  0.665278    0.00000000 409 t-inv F
  0.416667  0.250000  0.666667    0.00000000 410 t-inv F
  0.415972  0.252083  0.668056    0.00000000 411 t-inv F
  0.415278  0.254167  0.669444    0.00000000 412 t-inv F
  0.414583  0.256250  0.670833    0.00000000 413 t-inv F
  0.413889  0.258333  0.672222    0.00000000 414 t-inv F
  0.413194  0.260417  0.673611    0.00000000 415 t-inv F
  0.412500  0.262500  0.675000    0.00000000 416 t-inv F
  0.411806  0.264583  0.676389    0.00000000 417 t-inv F
  0.411111  0.266667  0.677778    0.00000000 418 t-inv F
  0.410417  0.268750  0.679167    0.00000000 419 t-inv F
  0.409722  0.270833  0.680556    0.00000000 420 t-inv F
  0.409028  0.272917  0.681944    0.00000000 421 t-inv F
  0.408333  0.275000  0.683333    0.00000000 422 t-inv F
  0.407639  0.277083  0.684722    0.00000000 423 t-inv F
  0.406944  0.279167  0.686111    0.00000000 424 t-inv F
  0.406250  0.281250  0.687500    0.00000000 425 t-inv F
  0.405556  0.283333  0.688889    0.00000000 426 t-inv F
  0.404861  0.285417  0.690278    0.00000000 427 t-inv F
  0.404167  0.287500  0.691667    0.00000000 428 t-inv F
  0.403472  0.289583  0.693056    0.00000000 429 t-inv F
  0.402778  0.291667  0.694444    0.00000000 430 t-inv F
  0.402083  0.293750  0.695833    0.00000000 431 t-inv F
  0.401389  0.295833  0.697222    0.00000000 432 t-inv F
  0.400694  0.297917  0.698611    0.00000000 433 t-inv F
  0.400000  0.300000  0.700000    0.00000000 434 t-inv F
  0.399306  0.302083  0.701389    0.00000000 435 t-inv F
  0.398611  0.304167  0.702778    0.00000000 436 t-inv F
  0.397917  0.306250  0.704167    0.00000000 437 t-inv F
  0.397222  0.308333  0.705556    0.00000000 438 t-inv F
  0.396528  0.310417  0.706944    0.00000000 439 t-inv F
  0.395833  0.312500  0.708333    0.00000000 440 t-inv F
  0.395139  0.314583  0.709722    0.00000000 441 t-inv F
  0.394444  0.316667  0.711111    0.00000000 442 t-inv F
  0.393750  0.318750  0.712500    0.00000000 443 t-inv F
  0.393056  0.320833  0.713889    0.00000000 444 t-inv F
  0.392361  0.322917  0.715278    0.00000000 445 t-inv F
  0.391667  0.325000  0.716667    0.00000000 446 t-inv F
  0.390972  0.327083  0.718056    0.00000000 447 t-inv F
  0.390278  0.329167  0.719444    0.00000000 448 t-inv F
  0.389583  0.331250  0.720833    0.00000000 449 t-inv F
  0.388889  0.333333  0.722222    0.00000000 450 t-inv F
  0.388194  0.335417  0.723611    0.00000000 451 t-inv F
  0.387500  0.337500  0.725000    0.00000000 452 t-inv F
  0.386806  0.339583  0.726389    0.00000000 453 t-inv F
  0.386111  0.341667  0.727778    0.00000000 454 t-inv F
  0.385417  0.343750  0.729167    0.00000000 455 t-inv F
  0.384722  0.345833  0.730556    0.00000000 456 t-inv F
  0.384028  0.347917  0.731944    0.00000000 457 t-inv F
  0.383333  0.350000  0.733333    0.00000000 458 t-inv F
  0.382639  0.352083  0.734722    0.00000000 459 t-inv F
  0.381944  0.354167  0.736111    0.00000000 460 t-inv F
  0.381250  0.356250  0.737500    0.00000000 461 t-inv F
  0.380556  0.358333  0.738889    0.00000000 462 t-inv F
  0.379861  0.360417  0.740278    0.00000000 463 t-inv F
  0.379167  0.362500  0.741667    0.00000000 464 t-inv F
  0.378472  0.364583  0.743056    0.00000000 465 t-inv F
  0.377778  0.366667  0.744444    0.00000000 466 t-inv F
  0.377083  0.368750  0.745833    0.00000000 467 t-inv F
  0.376389  0.370833  0.747222    0.00000000 468 t-inv F
  0.375694  0.372917  0.748611    0.00000000 469 t-inv F
  0.375000  0.375000  0.750000    0.00000000 470 t-inv F
  0.373941  0.373941  0.747881    0.00000000 471 t-inv F
  0.372881  0.372881  0.745763    0.00000000 472 t-inv F
  0.371822  0.371822  0.743644    0.00000000 473 t-inv F
  0.370763  0.370763  0.741525    0.00000000 474 t-inv F
  0.369703  0.369703  0.739407    0.00000000 475 t-inv F
  0.368644  0.368644  0.737288    0.00000000 476 t-inv F
  0.367585  0.367585  0.735169    0.00000000 477 t-inv F
  0.366525  0.366525  0.733051    0.00000000 478 t-inv F
  0.365466  0.365466  0.730932    0.00000000 479 t-inv F
  0.364407  0.364407  0.728814    0.00000000 480 t-inv F
  0.363347  0.363347  0.726695    0.00000000 481 t-inv F
  0.362288  0.362288  0.724576    0.00000000 482 t-inv F
  0.361229  0.361229  0.722458    0.00000000 483 t-inv F
  0.360169  0.360169  0.720339    0.00000000 484 t-inv F
  0.359110  0.359110  0.718220    0.00000000 485 t-inv F
  0.358051  0.358051  0.716102    0.00000000 486 t-inv F
  0.356992  0.356992  0.713983    0.00000000 487 t-inv F
  0.355932  0.355932  0.711864    0.00000000 488 t-inv F
  0.354873  0.354873  0.709746    0.00000000 489 t-inv F
  0.353814  0.353814  0.707627    0.00000000 490 t-inv F
  0.352754  0.352754  0.705508    0.00000000 491 t-inv F
  0.351695  0.351695  0.703390    0.00000000 492 t-inv F
  0.350636  0.350636  0.701271    0.00000000 493 t-inv F
  0.349576  0.349576  0.699153    0.00000000 494 t-inv F
  0.348517  0.348517  0.697034    0.00000000 495 t-inv F
  0.347458  0.347458  0.694915    0.00000000 496 t-inv F
  0.346398  0.346398  0.692797    0.00000000 497 t-inv F
  0.345339  0.345339  0.690678    0.00000000 498 t-inv F
  0.344280  0.344280  0.688559    0.00000000 499 t-inv F
  0.343220  0.343220  0.686441    0.00000000 500 t-inv F
  0.342161  0.342161  0.684322    0.00000000 501 t-inv F
  0.341102  0.341102  0.682203    0.00000000 502 t-inv F
  0.340042  0.340042  0.680085    0.00000000 503 t-inv F
  0.338983  0.338983  0.677966    0.00000000 504 t-inv F
  0.337924  0.337924  0.675847    0.00000000 505 t-inv F
  0.336864  0.336864  0.673729    0.00000000 506 t-inv F
  0.335805  0.335805  0.671610    0.00000000 507 t-inv F
  0.334746  0.334746  0.669492    0.00000000 508 t-inv F
  0.333686  0.333686  0.667373    0.00000000 509 t-inv F
  0.332627  0.332627  0.665254    0.00000000 510 t-inv F
  0.331568  0.331568  0.663136    0.00000000 511 t-inv F
  0.330508  0.330508  0.661017    0.00000000 512 t-inv F
  0.329449  0.329449  0.658898    0.00000000 513 t-inv F
  0.328390  0.328390  0.656780    0.00000000 514 t-inv F
  0.327331  0.327331  0.654661    0.00000000 515 t-inv F
  0.326271  0.326271  0.652542    0.00000000 516 t-inv F
  0.325212  0.325212  0.650424    0.00000000 517 t-inv F
  0.324153  0.324153  0.648305    0.00000000 518 t-inv F
  0.323093  0.323093  0.646186    0.00000000 519 t-inv F
  0.322034  0.322034  0.644068    0.00000000 520 t-inv F
  0.320975  0.320975  0.641949    0.00000000 521 t-inv F
  0.319915  0.319915  0.639831    0.00000000 522 t-inv F
  0.318856  0.318856  0.637712    0.00000000 523 t-inv F
  0.317797  0.317797  0.635593    0.00000000 524 t-inv F
  0.316737  0.316737  0.633475    0.00000000 525 t-inv F
  0.315678  0.315678  0.631356    0.00000000 526 t-inv F
  0.314619  0.314619  0.629237    0.00000000 527 t-inv F
  0.313559  0.313559  0.627119    0.00000000 528 t-inv F
  0.312500  0.312500  0.625000    0.00000000 529 t-inv F
  0.311441  0.311441  0.622881    0.00000000 530 t-inv F
  0.310381  0.310381  0.620763    0.00000000 531 t-inv F
  0.309322  0.309322  0.618644    0.00000000 532 t-inv F
  0.308263  0.308263  0.616525    0.00000000 533 t-inv F
  0.307203  0.307203  0.614407    0.00000000 534 t-inv F
  0.306144  0.306144  0.612288    0.00000000 535 t-inv F
  0.305085  0.305085  0.610169    0.00000000 536 t-inv F
  0.304025  0.304025  0.608051    0.00000000 537 t-inv F
  0.302966  0.302966  0.605932    0.00000000 538 t-inv F
  0.301907  0.301907  0.603814    0.00000000 539 t-inv F
  0.300847  0.300847  0.601695    0.00000000 540 t-inv F
  0.299788  0.299788  0.599576    0.00000000 541 t-inv F
  0.298729  0.298729  0.597458    0.00000000 542 t-inv F
  0.297669  0.297669  0.595339    0.00000000 543 t-inv F
  0.296610  0.296610  0.593220    0.00000000 544 t-inv F
  0.295551  0.295551  0.591102    0.00000000 545 t-inv F
  0.294492  0.294492  0.588983    0.00000000 546 t-inv F
  0.293432  0.293432  0.586864    0.00000000 547 t-inv F
  0.292373  0.292373  0.584746    0.00000000 548 t-inv F
  0.291314  0.291314  0.582627    0.00000000 549 t-inv F
  0.290254  0.290254  0.580508    0.00000000 550 t-inv F
  0.289195  0.289195  0.578390    0.00000000 551 t-inv F
  0.288136  0.288136  0.576271    0.00000000 552 t-inv F
  0.287076  0.287076  0.574153    0.00000000 553 t-inv F
  0.286017  0.286017  0.572034    0.00000000 554 t-inv F
  0.284958  0.284958  0.569915    0.00000000 555 t-inv F
  0.283898  0.283898  0.567797    0.00000000 556 t-inv F
  0.282839  0.282839  0.565678    0.00000000 557 t-inv F
  0.281780  0.281780  0.563559    0.00000000 558 t-inv F
  0.280720  0.280720  0.561441    0.00000000 559 t-inv F
  0.279661  0.279661  0.559322    0.00000000 560 t-inv F
  0.278602  0.278602  0.557203    0.00000000 561 t-inv F
  0.277542  0.277542  0.555085    0.00000000 562 t-inv F
  0.276483  0.276483  0.552966    0.00000000 563 t-inv F
  0.275424  0.275424  0.550847    0.00000000 564 t-inv F
  0.274364  0.274364  0.548729    0.00000000 565 t-inv F
  0.273305  0.273305  0.546610    0.00000000 566 t-inv F
  0.272246  0.272246  0.544492    0.00000000 567 t-inv F
  0.271186  0.271186  0.542373    0.00000000 568 t-inv F
  0.270127  0.270127  0.540254    0.00000000 569 t-inv F
  0.269068  0.269068  0.538136    0.00000000 570 t-inv F
  0.268008  0.268008  0.536017    0.00000000 571 t-inv F
  0.266949  0.266949  0.533898    0.00000000 572 t-inv F
  0.265890  0.265890  0.531780    0.00000000 573 t-inv F
  0.264831  0.264831  0.529661    0.00000000 574 t-inv F
  0.263771  0.263771  0.527542    0.00000000 575 t-inv F
  0.262712  0.262712  0.525424    0.00000000 576 t-inv F
  0.261653  0.261653  0.523305    0.00000000 577 t-inv F
  0.260593  0.260593  0.521186    0.00000000 578 t-inv F
  0.259534  0.259534  0.519068    0.00000000 579 t-inv F
  0.258475  0.258475  0.516949    0.00000000 580 t-inv F
  0.257415  0.257415  0.514830    0.00000000 581 t-inv F
  0.256356  0.256356  0.512712    0.00000000 582 t-inv F
  0.255297  0.255297  0.510593    0.00000000 583 t-inv F
  0.254237  0.254237  0.508475    0.00000000 584 t-inv F
  0.253178  0.253178  0.506356    0.00000000 585 t-inv F
  0.252119  0.252119  0.504237    0.00000000 586 t-inv F
  0.251059  0.251059  0.502119    0.00000000 587 t-inv F
  0.250000  0.250000  0.500000    0.00000000 588 t-inv F
  0.248941  0.248941  0.497881    0.00000000 589 t-inv F
  0.247881  0.247881  0.495763    0.00000000 590 t-inv F
  0.246822  0.246822  0.493644    0.00000000 591 t-inv F
  0.245763  0.245763  0.491525    0.00000000 592 t-inv F
  0.244703  0.244703  0.489407    0.00000000 593 t-inv F
  0.243644  0.243644  0.487288    0.00000000 594 t-inv F
  0.242585  0.242585  0.485169    0.00000000 595 t-inv F
  0.241525  0.241525  0.483051    0.00000000 596 t-inv F
  0.240466  0.240466  0.480932    0.00000000 597 t-inv F
  0.239407  0.239407  0.478814    0.00000000 598 t-inv F
  0.238347  0.238347  0.476695    0.00000000 599 t-inv F
  0.237288  0.237288  0.474576    0.00000000 600 t-inv F
  0.236229  0.236229  0.472458    0.00000000 601 t-inv F
  0.235169  0.235169  0.470339    0.00000000 602 t-inv F
  0.234110  0.234110  0.468220    0.00000000 603 t-inv F
  0.233051  0.233051  0.466102    0.00000000 604 t-inv F
  0.231992  0.231992  0.463983    0.00000000 605 t-inv F
  0.230932  0.230932  0.461864    0.00000000 606 t-inv F
  0.229873  0.229873  0.459746    0.00000000 607 t-inv F
  0.228814  0.228814  0.457627    0.00000000 608 t-inv F
  0.227754  0.227754  0.455508    0.00000000 609 t-inv F
  0.226695  0.226695  0.453390    0.00000000 610 t-inv F
  0.225636  0.225636  0.451271    0.00000000 611 t-inv F
  0.224576  0.224576  0.449153    0.00000000 612 t-inv F
  0.223517  0.223517  0.447034    0.00000000 613 t-inv F
  0.222458  0.222458  0.444915    0.00000000 614 t-inv F
  0.221398  0.221398  0.442797    0.00000000 615 t-inv F
  0.220339  0.220339  0.440678    0.00000000 616 t-inv F
  0.219280  0.219280  0.438559    0.00000000 617 t-inv F
  0.218220  0.218220  0.436441    0.00000000 618 t-inv F
  0.217161  0.217161  0.434322    0.00000000 619 t-inv F
  0.216102  0.216102  0.432203    0.00000000 620 t-inv F
  0.215042  0.215042  0.430085    0.00000000 621 t-inv F
  0.213983  0.213983  0.427966    0.00000000 622 t-inv F
  0.212924  0.212924  0.425847    0.00000000 623 t-inv F
  0.211864  0.211864  0.423729    0.00000000 624 t-inv F
  0.210805  0.210805  0.421610    0.00000000 625 t-inv F
  0.209746  0.209746  0.419492    0.00000000 626 t-inv F
  0.208686  0.208686  0.417373    0.00000000 627 t-inv F
  0.207627  0.207627  0.415254    0.00000000 628 t-inv F
  0.206568  0.206568  0.413136    0.00000000 629 t-inv F
  0.205508  0.205508  0.411017    0.00000000 630 t-inv F
  0.204449  0.204449  0.408898    0.00000000 631 t-inv F
  0.203390  0.203390  0.406780    0.00000000 632 t-inv F
  0.202331  0.202331  0.404661    0.00000000 633 t-inv F
  0.201271  0.201271  0.402542    0.00000000 634 t-inv F
  0.200212  0.200212  0.400424    0.00000000 635 t-inv F
  0.199153  0.199153  0.398305    0.00000000 636 t-inv F
  0.198093  0.198093  0.396186    0.00000000 637 t-inv F
  0.197034  0.197034  0.394068    0.00000000 638 t-inv F
  0.195975  0.195975  0.391949    0.00000000 639 t-inv F
  0.194915  0.194915  0.389831    0.00000000 640 t-inv F
  0.193856  0.193856  0.387712    0.00000000 641 t-inv F
  0.192797  0.192797  0.385593    0.00000000 642 t-inv F
  0.191737  0.191737  0.383475    0.00000000 643 t-inv F
  0.190678  0.190678  0.381356    0.00000000 644 t-inv F
  0.189619  0.189619  0.379237    0.00000000 645 t-inv F
  0.188559  0.188559  0.377119    0.00000000 646 t-inv F
  0.187500  0.187500  0.375000    0.00000000 647 t-inv F
  0.186441  0.186441  0.372881    0.00000000 648 t-inv F
  0.185381  0.185381  0.370763    0.00000000 649 t-inv F
  0.184322  0.184322  0.368644    0.00000000 650 t-inv F
  0.183263  0.183263  0.366525    0.00000000 651 t-inv F
  0.182203  0.182203  0.364407    0.00000000 652 t-inv F
  0.181144  0.181144  0.362288    0.00000000 653 t-inv F
  0.180085  0.180085  0.360169    0.00000000 654 t-inv F
  0.179025  0.179025  0.358051    0.00000000 655 t-inv F
  0.177966  0.177966  0.355932    0.00000000 656 t-inv F
  0.176907  0.176907  0.353814    0.00000000 657 t-inv F
  0.175847  0.175847  0.351695    0.00000000 658 t-inv F
  0.174788  0.174788  0.349576    0.00000000 659 t-inv F
  0.173729  0.173729  0.347458    0.00000000 660 t-inv F
  0.172670  0.172670  0.345339    0.00000000 661 t-inv F
  0.171610  0.171610  0.343220    0.00000000 662 t-inv F
  0.170551  0.170551  0.341102    0.00000000 663 t-inv F
  0.169492  0.169492  0.338983    0.00000000 664 t-inv F
  0.168432  0.168432  0.336864    0.00000000 665 t-inv F
  0.167373  0.167373  0.334746    0.00000000 666 t-inv F
  0.166314  0.166314  0.332627    0.00000000 667 t-inv F
  0.165254  0.165254  0.330508    0.00000000 668 t-inv F
  0.164195  0.164195  0.328390    0.00000000 669 t-inv F
  0.163136  0.163136  0.326271    0.00000000 670 t-inv F
  0.162076  0.162076  0.324153    0.00000000 671 t-inv F
  0.161017  0.161017  0.322034    0.00000000 672 t-inv F
  0.159958  0.159958  0.319915    0.00000000 673 t-inv F
  0.158898  0.158898  0.317797    0.00000000 674 t-inv F
  0.157839  0.157839  0.315678    0.00000000 675 t-inv F
  0.156780  0.156780  0.313559    0.00000000 676 t-inv F
  0.155720  0.155720  0.311441    0.00000000 677 t-inv F
  0.154661  0.154661  0.309322    0.00000000 678 t-inv F
  0.153602  0.153602  0.307203    0.00000000 679 t-inv F
  0.152542  0.152542  0.305085    0.00000000 680 t-inv F
  0.151483  0.151483  0.302966    0.00000000 681 t-inv F
  0.150424  0.150424  0.300847    0.00000000 682 t-inv F
  0.149364  0.149364  0.298729    0.00000000 683 t-inv F
  0.148305  0.148305  0.296610    0.00000000 684 t-inv F
  0.147246  0.147246  0.294492    0.00000000 685 t-inv F
  0.146186  0.146186  0.292373    0.00000000 686 t-inv F
  0.145127  0.145127  0.290254    0.00000000 687 t-inv F
  0.144068  0.144068  0.288136    0.00000000 688 t-inv F
  0.143008  0.143008  0.286017    0.00000000 689 t-inv F
  0.141949  0.141949  0.283898    0.00000000 690 t-inv F
  0.140890  0.140890  0.281780    0.00000000 691 t-inv F
  0.139830  0.139830  0.279661    0.00000000 692 t-inv F
  0.138771  0.138771  0.277542    0.00000000 693 t-inv F
  0.137712  0.137712  0.275424    0.00000000 694 t-inv F
  0.136653  0.136653  0.273305    0.00000000 695 t-inv F
  0.135593  0.135593  0.271186    0.00000000 696 t-inv F
  0.134534  0.134534  0.269068    0.00000000 697 t-inv F
  0.133475  0.133475  0.266949    0.00000000 698 t-inv F
  0.132415  0.132415  0.264831    0.00000000 699 t-inv F
  0.131356  0.131356  0.262712    0.00000000 700 t-inv F
  0.130297  0.130297  0.260593    0.00000000 701 t-inv F
  0.129237  0.129237  0.258475    0.00000000 702 t-inv F
  0.128178  0.128178  0.256356    0.00000000 703 t-inv F
  0.127119  0.127119  0.254237    0.00000000 704 t-inv F
  0.126059  0.126059  0.252119    0.00000000 705 t-inv F
  0.125000  0.125000  0.250000    0.00000000 706 t-inv F
  0.123941  0.123941  0.247881    0.00000000 707 t-inv F
  0.122881  0.122881  0.245763    0.00000000 708 t-inv F
  0.121822  0.121822  0.243644    0.00000000 709 t-inv F
  0.120763  0.120763  0.241525    0.00000000 710 t-inv F
  0.119703  0.119703  0.239407    0.00000000 711 t-inv F
  0.118644  0.118644  0.237288    0.00000000 712 t-inv F
  0.117585  0.117585  0.235169    0.00000000 713 t-inv F
  0.116525  0.116525  0.233051    0.00000000 714 t-inv F
  0.115466  0.115466  0.230932    0.00000000 715 t-inv F
  0.114407  0.114407  0.228814    0.00000000 716 t-inv F
  0.113347  0.113347  0.226695    0.00000000 717 t-inv F
  0.112288  0.112288  0.224576    0.00000000 718 t-inv F
  0.111229  0.111229  0.222458    0.00000000 719 t-inv F
  0.110169  0.110169  0.220339    0.00000000 720 t-inv F
  0.109110  0.109110  0.218220    0.00000000 721 t-inv F
  0.108051  0.108051  0.216102    0.00000000 722 t-inv F
  0.106992  0.106992  0.213983    0.00000000 723 t-inv F
  0.105932  0.105932  0.211864    0.00000000 724 t-inv F
  0.104873  0.104873  0.209746    0.00000000 725 t-inv F
  0.103814  0.103814  0.207627    0.00000000 726 t-inv F
  0.102754  0.102754  0.205508    0.00000000 727 t-inv F
  0.101695  0.101695  0.203390    0.00000000 728 t-inv F
  0.100636  0.100636  0.201271    0.00000000 729 t-inv F
  0.099576  0.099576  0.199153    0.00000000 730 t-inv F
  0.098517  0.098517  0.197034    0.00000000 731 t-inv F
  0.097458  0.097458  0.194915    0.00000000 732 t-inv F
  0.096398  0.096398  0.192797    0.00000000 733 t-inv F
  0.095339  0.095339  0.190678    0.00000000 734 t-inv F
  0.094280  0.094280  0.188559    0.00000000 735 t-inv F
  0.093220  0.093220  0.186441    0.00000000 736 t-inv F
  0.092161  0.092161  0.184322    0.00000000 737 t-inv F
  0.091102  0.091102  0.182203    0.00000000 738 t-inv F
  0.090042  0.090042  0.180085    0.00000000 739 t-inv F
  0.088983  0.088983  0.177966    0.00000000 740 t-inv F
  0.087924  0.087924  0.175847    0.00000000 741 t-inv F
  0.086864  0.086864  0.173729    0.00000000 742 t-inv F
  0.085805  0.085805  0.171610    0.00000000 743 t-inv F
  0.084746  0.084746  0.169492    0.00000000 744 t-inv F
  0.083686  0.083686  0.167373    0.00000000 745 t-inv F
  0.082627  0.082627  0.165254    0.00000000 746 t-inv F
  0.081568  0.081568  0.163136    0.00000000 747 t-inv F
  0.080508  0.080508  0.161017    0.00000000 748 t-inv F
  0.079449  0.079449  0.158898    0.00000000 749 t-inv F
  0.078390  0.078390  0.156780    0.00000000 750 t-inv F
  0.077330  0.077330  0.154661    0.00000000 751 t-inv F
  0.076271  0.076271  0.152542    0.00000000 752 t-inv F
  0.075212  0.075212  0.150424    0.00000000 753 t-inv F
  0.074153  0.074153  0.148305    0.00000000 754 t-inv F
  0.073093  0.073093  0.146186    0.00000000 755 t-inv F
  0.072034  0.072034  0.144068    0.00000000 756 t-inv F
  0.070975  0.070975  0.141949    0.00000000 757 t-inv F
  0.069915  0.069915  0.139830    0.00000000 758 t-inv F
  0.068856  0.068856  0.137712    0.00000000 759 t-inv F
  0.067797  0.067797  0.135593    0.00000000 760 t-inv F
  0.066737  0.066737  0.133475    0.00000000 761 t-inv F
  0.065678  0.065678  0.131356    0.00000000 762 t-inv F
  0.064619  0.064619  0.129237    0.00000000 763 t-inv F
  0.063559  0.063559  0.127119    0.00000000 764 t-inv F
  0.062500  0.062500  0.125000    0.00000000 765 t-inv F
  0.061441  0.061441  0.122881    0.00000000 766 t-inv F
  0.060381  0.060381  0.120763    0.00000000 767 t-inv F
  0.059322  0.059322  0.118644    0.00000000 768 t-inv F
  0.058263  0.058263  0.116525    0.00000000 769 t-inv F
  0.057203  0.057203  0.114407    0.00000000 770 t-inv F
  0.056144  0.056144  0.112288    0.00000000 771 t-inv F
  0.055085  0.055085  0.110169    0.00000000 772 t-inv F
  0.054025  0.054025  0.108051    0.00000000 773 t-inv F
  0.052966  0.052966  0.105932    0.00000000 774 t-inv F
  0.051907  0.051907  0.103814    0.00000000 775 t-inv F
  0.050847  0.050847  0.101695    0.00000000 776 t-inv F
  0.049788  0.049788  0.099576    0.00000000 777 t-inv F
  0.048729  0.048729  0.097458    0.00000000 778 t-inv F
  0.047669  0.047669  0.095339    0.00000000 779 t-inv F
  0.046610  0.046610  0.093220    0.00000000 780 t-inv F
  0.045551  0.045551  0.091102    0.00000000 781 t-inv F
  0.044492  0.044492  0.088983    0.00000000 782 t-inv F
  0.043432  0.043432  0.086864    0.00000000 783 t-inv F
  0.042373  0.042373  0.084746    0.00000000 784 t-inv F
  0.041314  0.041314  0.082627    0.00000000 785 t-inv F
  0.040254  0.040254  0.080508    0.00000000 786 t-inv F
  0.039195  0.039195  0.078390    0.00000000 787 t-inv F
  0.038136  0.038136  0.076271    0.00000000 788 t-inv F
  0.037076  0.037076  0.074153    0.00000000 789 t-inv F
  0.036017  0.036017  0.072034    0.00000000 790 t-inv F
  0.034958  0.034958  0.069915    0.00000000 791 t-inv F
  0.033898  0.033898  0.067797    0.00000000 792 t-inv F
  0.032839  0.032839  0.065678    0.00000000 793 t-inv F
  0.031780  0.031780  0.063559    0.00000000 794 t-inv F
  0.030720  0.030720  0.061441    0.00000000 795 t-inv F
  0.029661  0.029661  0.059322    0.00000000 796 t-inv F
  0.028602  0.028602  0.057203    0.00000000 797 t-inv F
  0.027542  0.027542  0.055085    0.00000000 798 t-inv F
  0.026483  0.026483  0.052966    0.00000000 799 t-inv F
  0.025424  0.025424  0.050847    0.00000000 800 t-inv F
  0.024364  0.024364  0.048729    0.00000000 801 t-inv F
  0.023305  0.023305  0.046610    0.00000000 802 t-inv F
  0.022246  0.022246  0.044492    0.00000000 803 t-inv F
  0.021186  0.021186  0.042373    0.00000000 804 t-inv F
  0.020127  0.020127  0.040254    0.00000000 805 t-inv F
  0.019068  0.019068  0.038136    0.00000000 806 t-inv F
  0.018008  0.018008  0.036017    0.00000000 807 t-inv F
  0.016949  0.016949  0.033898    0.00000000 808 t-inv F
  0.015890  0.015890  0.031780    0.00000000 809 t-inv F
  0.014830  0.014830  0.029661    0.00000000 810 t-inv F
  0.013771  0.013771  0.027542    0.00000000 811 t-inv F
  0.012712  0.012712  0.025424    0.00000000 812 t-inv F
  0.011653  0.011653  0.023305    0.00000000 813 t-inv F
  0.010593  0.010593  0.021186    0.00000000 814 t-inv F
  0.009534  0.009534  0.019068    0.00000000 815 t-inv F
  0.008475  0.008475  0.016949    0.00000000 816 t-inv F
  0.007415  0.007415  0.014831    0.00000000 817 t-inv F
  0.006356  0.006356  0.012712    0.00000000 818 t-inv F
  0.005297  0.005297  0.010593    0.00000000 819 t-inv F
  0.004237  0.004237  0.008475    0.00000000 820 t-inv F
  0.003178  0.003178  0.006356    0.00000000 821 t-inv F
  0.002119  0.002119  0.004237    0.00000000 822 t-inv F
  0.001059  0.001059  0.002119    0.00000000 823 t-inv F
  0.000000  0.000000  0.000000    0.00000000 824 t-inv F
  0.001497  0.001497  0.001497    0.00000000 825 t-inv F
  0.002994  0.002994  0.002994    0.00000000 826 t-inv F
  0.004491  0.004491  0.004491    0.00000000 827 t-inv F
  0.005988  0.005988  0.005988    0.00000000 828 t-inv F
  0.007485  0.007485  0.007485    0.00000000 829 t-inv F
  0.008982  0.008982  0.008982    0.00000000 830 t-inv F
  0.010479  0.010479  0.010479    0.00000000 831 t-inv F
  0.011976  0.011976  0.011976    0.00000000 832 t-inv F
  0.013473  0.013473  0.013473    0.00000000 833 t-inv F
  0.014970  0.014970  0.014970    0.00000000 834 t-inv F
  0.016467  0.016467  0.016467    0.00000000 835 t-inv F
  0.017964  0.017964  0.017964    0.00000000 836 t-inv F
  0.019461  0.019461  0.019461    0.00000000 837 t-inv F
  0.020958  0.020958  0.020958    0.00000000 838 t-inv F
  0.022455  0.022455  0.022455    0.00000000 839 t-inv F
  0.023952  0.023952  0.023952    0.00000000 840 t-inv F
  0.025449  0.025449  0.025449    0.00000000 841 t-inv F
  0.026946  0.026946  0.026946    0.00000000 842 t-inv F
  0.028443  0.028443  0.028443    0.00000000 843 t-inv F
  0.029940  0.029940  0.029940    0.00000000 844 t-inv F
  0.031437  0.031437  0.031437    0.00000000 845 t-inv F
  0.032934  0.032934  0.032934    0.00000000 846 t-inv F
  0.034431  0.034431  0.034431    0.00000000 847 t-inv F
  0.035928  0.035928  0.035928    0.00000000 848 t-inv F
  0.037425  0.037425  0.037425    0.00000000 849 t-inv F
  0.038922  0.038922  0.038922    0.00000000 850 t-inv F
  0.040419  0.040419  0.040419    0.00000000 851 t-inv F
  0.041916  0.041916  0.041916    0.00000000 852 t-inv F
  0.043413  0.043413  0.043413    0.00000000 853 t-inv F
  0.044910  0.044910  0.044910    0.00000000 854 t-inv F
  0.046407  0.046407  0.046407    0.00000000 855 t-inv F
  0.047904  0.047904  0.047904    0.00000000 856 t-inv F
  0.049401  0.049401  0.049401    0.00000000 857 t-inv F
  0.050898  0.050898  0.050898    0.00000000 858 t-inv F
  0.052395  0.052395  0.052395    0.00000000 859 t-inv F
  0.053892  0.053892  0.053892    0.00000000 860 t-inv F
  0.055389  0.055389  0.055389    0.00000000 861 t-inv F
  0.056886  0.056886  0.056886    0.00000000 862 t-inv F
  0.058383  0.058383  0.058383    0.00000000 863 t-inv F
  0.059880  0.059880  0.059880    0.00000000 864 t-inv F
  0.061377  0.061377  0.061377    0.00000000 865 t-inv F
  0.062874  0.062874  0.062874    0.00000000 866 t-inv F
  0.064371  0.064371  0.064371    0.00000000 867 t-inv F
  0.065868  0.065868  0.065868    0.00000000 868 t-inv F
  0.067365  0.067365  0.067365    0.00000000 869 t-inv F
  0.068862  0.068862  0.068862    0.00000000 870 t-inv F
  0.070359  0.070359  0.070359    0.00000000 871 t-inv F
  0.071856  0.071856  0.071856    0.00000000 872 t-inv F
  0.073353  0.073353  0.073353    0.00000000 873 t-inv F
  0.074850  0.074850  0.074850    0.00000000 874 t-inv F
  0.076347  0.076347  0.076347    0.00000000 875 t-inv F
  0.077844  0.077844  0.077844    0.00000000 876 t-inv F
  0.079341  0.079341  0.079341    0.00000000 877 t-inv F
  0.080838  0.080838  0.080838    0.00000000 878 t-inv F
  0.082335  0.082335  0.082335    0.00000000 879 t-inv F
  0.083832  0.083832  0.083832    0.00000000 880 t-inv F
  0.085329  0.085329  0.085329    0.00000000 881 t-inv F
  0.086826  0.086826  0.086826    0.00000000 882 t-inv F
  0.088323  0.088323  0.088323    0.00000000 883 t-inv F
  0.089820  0.089820  0.089820    0.00000000 884 t-inv F
  0.091317  0.091317  0.091317    0.00000000 885 t-inv F
  0.092814  0.092814  0.092814    0.00000000 886 t-inv F
  0.094311  0.094311  0.094311    0.00000000 887 t-inv F
  0.095808  0.095808  0.095808    0.00000000 888 t-inv F
  0.097305  0.097305  0.097305    0.00000000 889 t-inv F
  0.098802  0.098802  0.098802    0.00000000 890 t-inv F
  0.100299  0.100299  0.100299    0.00000000 891 t-inv F
  0.101796  0.101796  0.101796    0.00000000 892 t-inv F
  0.103293  0.103293  0.103293    0.00000000 893 t-inv F
  0.104790  0.104790  0.104790    0.00000000 894 t-inv F
  0.106287  0.106287  0.106287    0.00000000 895 t-inv F
  0.107784  0.107784  0.107784    0.00000000 896 t-inv F
  0.109281  0.109281  0.109281    0.00000000 897 t-inv F
  0.110778  0.110778  0.110778    0.00000000 898 t-inv F
  0.112275  0.112275  0.112275    0.00000000 899 t-inv F
  0.113772  0.113772  0.113772    0.00000000 900 t-inv F
  0.115269  0.115269  0.115269    0.00000000 901 t-inv F
  0.116766  0.116766  0.116766    0.00000000 902 t-inv F
  0.118263  0.118263  0.118263    0.00000000 903 t-inv F
  0.119760  0.119760  0.119760    0.00000000 904 t-inv F
  0.121257  0.121257  0.121257    0.00000000 905 t-inv F
  0.122754  0.122754  0.122754    0.00000000 906 t-inv F
  0.124252  0.124252  0.124252    0.00000000 907 t-inv F
  0.125749  0.125749  0.125749    0.00000000 908 t-inv F
  0.127246  0.127246  0.127246    0.00000000 909 t-inv F
  0.128743  0.128743  0.128743    0.00000000 910 t-inv F
  0.130240  0.130240  0.130240    0.00000000 911 t-inv F
  0.131737  0.131737  0.131737    0.00000000 912 t-inv F
  0.133234  0.133234  0.133234    0.00000000 913 t-inv F
  0.134731  0.134731  0.134731    0.00000000 914 t-inv F
  0.136228  0.136228  0.136228    0.00000000 915 t-inv F
  0.137725  0.137725  0.137725    0.00000000 916 t-inv F
  0.139222  0.139222  0.139222    0.00000000 917 t-inv F
  0.140719  0.140719  0.140719    0.00000000 918 t-inv F
  0.142216  0.142216  0.142216    0.00000000 919 t-inv F
  0.143713  0.143713  0.143713    0.00000000 920 t-inv F
  0.145210  0.145210  0.145210    0.00000000 921 t-inv F
  0.146707  0.146707  0.146707    0.00000000 922 t-inv F
  0.148204  0.148204  0.148204    0.00000000 923 t-inv F
  0.149701  0.149701  0.149701    0.00000000 924 t-inv F
  0.151198  0.151198  0.151198    0.00000000 925 t-inv F
  0.152695  0.152695  0.152695    0.00000000 926 t-inv F
  0.154192  0.154192  0.154192    0.00000000 927 t-inv F
  0.155689  0.155689  0.155689    0.00000000 928 t-inv F
  0.157186  0.157186  0.157186    0.00000000 929 t-inv F
  0.158683  0.158683  0.158683    0.00000000 930 t-inv F
  0.160180  0.160180  0.160180    0.00000000 931 t-inv F
  0.161677  0.161677  0.161677    0.00000000 932 t-inv F
  0.163174  0.163174  0.163174    0.00000000 933 t-inv F
  0.164671  0.164671  0.164671    0.00000000 934 t-inv F
  0.166168  0.166168  0.166168    0.00000000 935 t-inv F
  0.167665  0.167665  0.167665    0.00000000 936 t-inv F
  0.169162  0.169162  0.169162    0.00000000 937 t-inv F
  0.170659  0.170659  0.170659    0.00000000 938 t-inv F
  0.172156  0.172156  0.172156    0.00000000 939 t-inv F
  0.173653  0.173653  0.173653    0.00000000 940 t-inv F
  0.175150  0.175150  0.175150    0.00000000 941 t-inv F
  0.176647  0.176647  0.176647    0.00000000 942 t-inv F
  0.178144  0.178144  0.178144    0.00000000 943 t-inv F
  0.179641  0.179641  0.179641    0.00000000 944 t-inv F
  0.181138  0.181138  0.181138    0.00000000 945 t-inv F
  0.182635  0.182635  0.182635    0.00000000 946 t-inv F
  0.184132  0.184132  0.184132    0.00000000 947 t-inv F
  0.185629  0.185629  0.185629    0.00000000 948 t-inv F
  0.187126  0.187126  0.187126    0.00000000 949 t-inv F
  0.188623  0.188623  0.188623    0.00000000 950 t-inv F
  0.190120  0.190120  0.190120    0.00000000 951 t-inv F
  0.191617  0.191617  0.191617    0.00000000 952 t-inv F
  0.193114  0.193114  0.193114    0.00000000 953 t-inv F
  0.194611  0.194611  0.194611    0.00000000 954 t-inv F
  0.196108  0.196108  0.196108    0.00000000 955 t-inv F
  0.197605  0.197605  0.197605    0.00000000 956 t-inv F
  0.199102  0.199102  0.199102    0.00000000 957 t-inv F
  0.200599  0.200599  0.200599    0.00000000 958 t-inv F
  0.202096  0.202096  0.202096    0.00000000 959 t-inv F
  0.203593  0.203593  0.203593    0.00000000 960 t-inv F
  0.205090  0.205090  0.205090    0.00000000 961 t-inv F
  0.206587  0.206587  0.206587    0.00000000 962 t-inv F
  0.208084  0.208084  0.208084    0.00000000 963 t-inv F
  0.209581  0.209581  0.209581    0.00000000 964 t-inv F
  0.211078  0.211078  0.211078    0.00000000 965 t-inv F
  0.212575  0.212575  0.212575    0.00000000 966 t-inv F
  0.214072  0.214072  0.214072    0.00000000 967 t-inv F
  0.215569  0.215569  0.215569    0.00000000 968 t-inv F
  0.217066  0.217066  0.217066    0.00000000 969 t-inv F
  0.218563  0.218563  0.218563    0.00000000 970 t-inv F
  0.220060  0.220060  0.220060    0.00000000 971 t-inv F
  0.221557  0.221557  0.221557    0.00000000 972 t-inv F
  0.223054  0.223054  0.223054    0.00000000 973 t-inv F
  0.224551  0.224551  0.224551    0.00000000 974 t-inv F
  0.226048  0.226048  0.226048    0.00000000 975 t-inv F
  0.227545  0.227545  0.227545    0.00000000 976 t-inv F
  0.229042  0.229042  0.229042    0.00000000 977 t-inv F
  0.230539  0.230539  0.230539    0.00000000 978 t-inv F
  0.232036  0.232036  0.232036    0.00000000 979 t-inv F
  0.233533  0.233533  0.233533    0.00000000 980 t-inv F
  0.235030  0.235030  0.235030    0.00000000 981 t-inv F
  0.236527  0.236527  0.236527    0.00000000 982 t-inv F
  0.238024  0.238024  0.238024    0.00000000 983 t-inv F
  0.239521  0.239521  0.239521    0.00000000 984 t-inv F
  0.241018  0.241018  0.241018    0.00000000 985 t-inv F
  0.242515  0.242515  0.242515    0.00000000 986 t-inv F
  0.244012  0.244012  0.244012    0.00000000 987 t-inv F
  0.245509  0.245509  0.245509    0.00000000 988 t-inv F
  0.247006  0.247006  0.247006    0.00000000 989 t-inv F
  0.248503  0.248503  0.248503    0.00000000 990 t-inv F
  0.250000  0.250000  0.250000    0.00000000 991 t-inv F
  0.251497  0.251497  0.251497    0.00000000 992 t-inv F
  0.252994  0.252994  0.252994    0.00000000 993 t-inv F
  0.254491  0.254491  0.254491    0.00000000 994 t-inv F
  0.255988  0.255988  0.255988    0.00000000 995 t-inv F
  0.257485  0.257485  0.257485    0.00000000 996 t-inv F
  0.258982  0.258982  0.258982    0.00000000 997 t-inv F
  0.260479  0.260479  0.260479    0.00000000 998 t-inv F
  0.261976  0.261976  0.261976    0.00000000 999 t-inv F
  0.263473  0.263473  0.263473    0.000000001000 t-inv F
  0.264970  0.264970  0.264970    0.000000001001 t-inv F
  0.266467  0.266467  0.266467    0.000000001002 t-inv F
  0.267964  0.267964  0.267964    0.000000001003 t-inv F
  0.269461  0.269461  0.269461    0.000000001004 t-inv F
  0.270958  0.270958  0.270958    0.000000001005 t-inv F
  0.272455  0.272455  0.272455    0.000000001006 t-inv F
  0.273952  0.273952  0.273952    0.000000001007 t-inv F
  0.275449  0.275449  0.275449    0.000000001008 t-inv F
  0.276946  0.276946  0.276946    0.000000001009 t-inv F
  0.278443  0.278443  0.278443    0.000000001010 t-inv F
  0.279940  0.279940  0.279940    0.000000001011 t-inv F
  0.281437  0.281437  0.281437    0.000000001012 t-inv F
  0.282934  0.282934  0.282934    0.000000001013 t-inv F
  0.284431  0.284431  0.284431    0.000000001014 t-inv F
  0.285928  0.285928  0.285928    0.000000001015 t-inv F
  0.287425  0.287425  0.287425    0.000000001016 t-inv F
  0.288922  0.288922  0.288922    0.000000001017 t-inv F
  0.290419  0.290419  0.290419    0.000000001018 t-inv F
  0.291916  0.291916  0.291916    0.000000001019 t-inv F
  0.293413  0.293413  0.293413    0.000000001020 t-inv F
  0.294910  0.294910  0.294910    0.000000001021 t-inv F
  0.296407  0.296407  0.296407    0.000000001022 t-inv F
  0.297904  0.297904  0.297904    0.000000001023 t-inv F
  0.299401  0.299401  0.299401    0.000000001024 t-inv F
  0.300898  0.300898  0.300898    0.000000001025 t-inv F
  0.302395  0.302395  0.302395    0.000000001026 t-inv F
  0.303892  0.303892  0.303892    0.000000001027 t-inv F
  0.305389  0.305389  0.305389    0.000000001028 t-inv F
  0.306886  0.306886  0.306886    0.000000001029 t-inv F
  0.308383  0.308383  0.308383    0.000000001030 t-inv F
  0.309880  0.309880  0.309880    0.000000001031 t-inv F
  0.311377  0.311377  0.311377    0.000000001032 t-inv F
  0.312874  0.312874  0.312874    0.000000001033 t-inv F
  0.314371  0.314371  0.314371    0.000000001034 t-inv F
  0.315868  0.315868  0.315868    0.000000001035 t-inv F
  0.317365  0.317365  0.317365    0.000000001036 t-inv F
  0.318862  0.318862  0.318862    0.000000001037 t-inv F
  0.320359  0.320359  0.320359    0.000000001038 t-inv F
  0.321856  0.321856  0.321856    0.000000001039 t-inv F
  0.323353  0.323353  0.323353    0.000000001040 t-inv F
  0.324850  0.324850  0.324850    0.000000001041 t-inv F
  0.326347  0.326347  0.326347    0.000000001042 t-inv F
  0.327844  0.327844  0.327844    0.000000001043 t-inv F
  0.329341  0.329341  0.329341    0.000000001044 t-inv F
  0.330838  0.330838  0.330838    0.000000001045 t-inv F
  0.332335  0.332335  0.332335    0.000000001046 t-inv F
  0.333832  0.333832  0.333832    0.000000001047 t-inv F
  0.335329  0.335329  0.335329    0.000000001048 t-inv F
  0.336826  0.336826  0.336826    0.000000001049 t-inv F
  0.338323  0.338323  0.338323    0.000000001050 t-inv F
  0.339820  0.339820  0.339820    0.000000001051 t-inv F
  0.341317  0.341317  0.341317    0.000000001052 t-inv F
  0.342814  0.342814  0.342814    0.000000001053 t-inv F
  0.344311  0.344311  0.344311    0.000000001054 t-inv F
  0.345808  0.345808  0.345808    0.000000001055 t-inv F
  0.347305  0.347305  0.347305    0.000000001056 t-inv F
  0.348802  0.348802  0.348802    0.000000001057 t-inv F
  0.350299  0.350299  0.350299    0.000000001058 t-inv F
  0.351796  0.351796  0.351796    0.000000001059 t-inv F
  0.353293  0.353293  0.353293    0.000000001060 t-inv F
  0.354790  0.354790  0.354790    0.000000001061 t-inv F
  0.356287  0.356287  0.356287    0.000000001062 t-inv F
  0.357784  0.357784  0.357784    0.000000001063 t-inv F
  0.359281  0.359281  0.359281    0.000000001064 t-inv F
  0.360778  0.360778  0.360778    0.000000001065 t-inv F
  0.362275  0.362275  0.362275    0.000000001066 t-inv F
  0.363772  0.363772  0.363772    0.000000001067 t-inv F
  0.365269  0.365269  0.365269    0.000000001068 t-inv F
  0.366766  0.366766  0.366766    0.000000001069 t-inv F
  0.368263  0.368263  0.368263    0.000000001070 t-inv F
  0.369760  0.369760  0.369760    0.000000001071 t-inv F
[...]
  band No.  band energies     occupation 
      1     -13.9174      2.00000
      2     -13.8464      2.00000
      3     -13.8464      2.00000
      4     -13.7818      2.00000
      5     -13.7818      2.00000
      6      -8.5541      2.00000
      7      -3.6681      2.00000
      8       2.2830      2.00000
      9       2.2830      2.00000
     10       5.2758      0.00000
     11       8.9677      0.00000
     12       8.9677      0.00000
     13      12.1623      0.00000
     14      14.9939      0.00000
     15      16.3844      0.00000
     16      16.3857      0.00000

 k-point  1144 :       0.4790    0.4790    0.4790
  band No.  band energies     occupation 
      1     -13.9174      2.00000
      2     -13.8464      2.00000
      3     -13.8464      2.00000
      4     -13.7818      2.00000
      5     -13.7818      2.00000
      6      -8.5520      2.00000
      7      -3.6720      2.00000
      8       2.2824      2.00000
      9       2.2824      2.00000
     10       5.2752      0.00000
     11       8.9674      0.00000
     12       8.9674      0.00000
     13      12.1619      0.00000
     14      15.0059      0.00000
     15      16.4030      0.00000
     16      16.4151      0.00000

 k-point  1145 :       0.4805    0.4805    0.4805
  band No.  band energies     occupation 
      1     -13.9174      2.00000
      2     -13.8463      2.00000
      3     -13.8463      2.00000
      4     -13.7818      2.00000
      5     -13.7818      2.00000
      6      -8.5500      2.00000
      7      -3.6756      2.00000
      8       2.2819      2.00000
      9       2.2819      2.00000
     10       5.2747      0.00000
     11       8.9671      0.00000
     12       8.9671      0.00000
     13      12.1615      0.00000
     14      15.0179      0.00000
     15      16.4207      0.00000
     16      16.4231      0.00000

 k-point  1146 :       0.4820    0.4820    0.4820
  band No.  band energies     occupation 
      1     -13.9175      2.00000
      2     -13.8463      2.00000
      3     -13.8463      2.00000
      4     -13.7818      2.00000
      5     -13.7818      2.00000
      6      -8.5482      2.00000
      7      -3.6789      2.00000
      8       2.2814      2.00000
      9       2.2814      2.00000
     10       5.2742      0.00000
     11       8.9667      0.00000
     12       8.9667      0.00000
     13      12.1611      0.00000
     14      15.0284      0.00000
     15      16.4375      0.00000
     16      16.4386      0.00000

 k-point  1147 :       0.4835    0.4835    0.4835
  band No.  band energies     occupation 
      1     -13.9175      2.00000
      2     -13.8463      2.00000
      3     -13.8463      2.00000
      4     -13.7818      2.00000
      5     -13.7818      2.00000
      6      -8.5465      2.00000
      7      -3.6820      2.00000
      8       2.2810      2.00000
      9       2.2810      2.00000
     10       5.2737      0.00000
     11       8.9665      0.00000
     12       8.9665      0.00000
     13      12.1609      0.00000
     14      15.0400      0.00000
     15      16.4557      0.00000
     16      16.4902      0.00000

 k-point  1148 :       0.4850    0.4850    0.4850
  band No.  band energies     occupation 
      1     -13.9175      2.00000
      2     -13.8463      2.00000
      3     -13.8463      2.00000
      4     -13.7817      2.00000
      5     -13.7817      2.00000
      6      -8.5450      2.00000
      7      -3.6848      2.00000
      8       2.2806      2.00000
      9       2.2806      2.00000
     10       5.2733      0.00000
     11       8.9662      0.00000
     12       8.9662      0.00000
     13      12.1606      0.00000
     14      15.0486      0.00000
     15      16.4687      0.00000
     16      16.4730      0.00000

 k-point  1149 :       0.4865    0.4865    0.4865
  band No.  band energies     occupation 
      1     -13.9175      2.00000
      2     -13.8463      2.00000
      3     -13.8463      2.00000
      4     -13.7817      2.00000
      5     -13.7817      2.00000
      6      -8.5436      2.00000
      7      -3.6873      2.00000
      8       2.2802      2.00000
      9       2.2802      2.00000
     10       5.2729      0.00000
     11       8.9660      0.00000
     12       8.9660      0.00000
     13      12.1603      0.00000
     14      15.0564      0.00000
     15      16.4823      0.00000
     16      16.4826      0.00000

 k-point  1150 :       0.4880    0.4880    0.4880
  band No.  band energies     occupation 
      1     -13.9175      2.00000
      2     -13.8463      2.00000
      3     -13.8463      2.00000
      4     -13.7817      2.00000
      5     -13.7817      2.00000
      6      -8.5423      2.00000
      7      -3.6896      2.00000
      8       2.2798      2.00000
      9       2.2798      2.00000
     10       5.2726      0.00000
     11       8.9658      0.00000
     12       8.9658      0.00000
     13      12.1600      0.00000
     14      15.0641      0.00000
     15      16.4950      0.00000
     16      16.4961      0.00000

 k-point  1151 :       0.4895    0.4895    0.4895
  band No.  band energies     occupation 
      1     -13.9176      2.00000
      2     -13.8463      2.00000
      3     -13.8463      2.00000
      4     -13.7817      2.00000
      5     -13.7817      2.00000
      6      -8.5412      2.00000
      7      -3.6916      2.00000
      8       2.2796      2.00000
      9       2.2796      2.00000
     10       5.2723      0.00000
     11       8.9656      0.00000
     12       8.9656      0.00000
     13      12.1598      0.00000
     14      15.0707      0.00000
     15      16.5064      0.00000
     16      16.5072      0.00000

 k-point  1152 :       0.4910    0.4910    0.4910
  band No.  band energies     occupation 
      1     -13.9176      2.00000
      2     -13.8463      2.00000
      3     -13.8463      2.00000
      4     -13.7817      2.00000
      5     -13.7817      2.00000
      6      -8.5403      2.00000
      7      -3.6933      2.00000
      8       2.2793      2.00000
      9       2.2793      2.00000
     10       5.2721      0.00000
     11       8.9654      0.00000
     12       8.9654      0.00000
     13      12.1596      0.00000
     14      15.0766      0.00000
     15      16.5164      0.00000
     16      16.5171      0.00000

 k-point  1153 :       0.4925    0.4925    0.4925
  band No.  band energies     occupation 
      1     -13.9176      2.00000
      2     -13.8463      2.00000
      3     -13.8463      2.00000
      4     -13.7817      2.00000
      5     -13.7817      2.00000
      6      -8.5395      2.00000
      7      -3.6948      2.00000
      8       2.2791      2.00000
      9       2.2791      2.00000
     10       5.2719      0.00000
     11       8.9653      0.00000
     12       8.9653      0.00000
     13      12.1594      0.00000
     14      15.0814      0.00000
     15      16.5250      0.00000
     16      16.5254      0.00000

 k-point  1154 :       0.4940    0.4940    0.4940
  band No.  band energies     occupation 
      1     -13.9176      2.00000
      2     -13.8463      2.00000
      3     -13.8463      2.00000
      4     -13.7817      2.00000
      5     -13.7817      2.00000
      6      -8.5388      2.00000
      7      -3.6960      2.00000
      8       2.2789      2.00000
      9       2.2789      2.00000
     10       5.2717      0.00000
     11       8.9652      0.00000
     12       8.9652      0.00000
     13      12.1593      0.00000
     14      15.0861      0.00000
     15      16.5323      0.00000
     16      16.5370      0.00000

 k-point  1155 :       0.4955    0.4955    0.4955
  band No.  band energies     occupation 
      1     -13.9176      2.00000
      2     -13.8463      2.00000
      3     -13.8463      2.00000
      4     -13.7817      2.00000
      5     -13.7817      2.00000
      6      -8.5383      2.00000
      7      -3.6970      2.00000
      8       2.2788      2.00000
      9       2.2788      2.00000
     10       5.2715      0.00000
     11       8.9651      0.00000
     12       8.9651      0.00000
     13      12.1592      0.00000
     14      15.0888      0.00000
     15      16.5382      0.00000
     16      16.5404      0.00000

 k-point  1156 :       0.4970    0.4970    0.4970
  band No.  band energies     occupation 
      1     -13.9176      2.00000
      2     -13.8463      2.00000
      3     -13.8463      2.00000
      4     -13.7817      2.00000
      5     -13.7817      2.00000
      6      -8.5379      2.00000
      7      -3.6976      2.00000
      8       2.2787      2.00000
      9       2.2787      2.00000
     10       5.2714      0.00000
     11       8.9650      0.00000
     12       8.9650      0.00000
     13      12.1591      0.00000
     14      15.0912      0.00000
     15      16.5419      0.00000
     16      16.5433      0.00000

 k-point  1157 :       0.4985    0.4985    0.4985
  band No.  band energies     occupation 
      1     -13.9176      2.00000
      2     -13.8463      2.00000
      3     -13.8463      2.00000
      4     -13.7817      2.00000
      5     -13.7817      2.00000
      6      -8.5377      2.00000
      7      -3.6980      2.00000
      8       2.2786      2.00000
      9       2.2786      2.00000
     10       5.2714      0.00000
     11       8.9650      0.00000
     12       8.9650      0.00000
     13      12.1591      0.00000
     14      15.0922      0.00000
     15      16.5447      0.00000
     16      16.5451      0.00000

 k-point  1158 :       0.5000    0.5000    0.5000
  band No.  band energies     occupation 
      1     -13.9176      2.00000
      2     -13.8463      2.00000
      3     -13.8463      2.00000
      4     -13.7817      2.00000
      5     -13.7817      2.00000
      6      -8.5376      2.00000
      7      -3.6982      2.00000
      8       2.2786      2.00000
      9       2.2786      2.00000
     10       5.2714      0.00000
     11       8.9650      0.00000
     12       8.9650      0.00000
     13      12.1591      0.00000
     14      15.0928      0.00000
     15      16.5452      0.00000
     16      16.5478      0.00000


--------------------------------------------------------------------------------------------------------


 soft charge-density along one line, spin component           1
         0         1         2         3         4         5         6         7         8         9
 total charge-density along one line
 
 pseudopotential strength for first ion, spin component:           1
-11.427  -0.000  -0.000  -0.000  -0.000   0.297   0.000   0.000
 -0.000 -11.427  -0.000   0.000   0.000   0.000   0.297   0.000
 -0.000  -0.000 -11.424  -0.000  -0.000   0.000   0.000   0.296
 -0.000   0.000  -0.000 -11.427  -0.000   0.000  -0.000   0.000
 -0.000   0.000  -0.000  -0.000 -11.424   0.000  -0.000   0.000
  0.297   0.000   0.000   0.000   0.000   4.977  -0.000  -0.000
  0.000   0.297   0.000  -0.000  -0.000  -0.000   4.977  -0.000
  0.000   0.000   0.296   0.000   0.000  -0.000  -0.000   4.978
  0.000  -0.000   0.000   0.297   0.000  -0.000   0.000  -0.000
  0.000  -0.000   0.000   0.000   0.296   0.000   0.000   0.000
  0.000  -0.000  -0.000  -0.000   0.000  -0.000   0.000   0.000
 -0.000   0.000   0.000   0.000  -0.000   0.000  -0.000  -0.000
 -0.000   0.000  -0.000  -0.002  -0.000   0.000  -0.000   0.000
 -0.002  -0.000  -0.000  -0.000  -0.000   0.001   0.000   0.000
 -0.000  -0.002  -0.000   0.000   0.000   0.000   0.001   0.000
  0.000  -0.000   0.000   0.010   0.000  -0.000   0.000  -0.000
  0.010   0.000   0.000   0.000   0.000  -0.007  -0.000  -0.000
  0.000   0.010   0.000  -0.000  -0.000  -0.000  -0.007  -0.000
 total augmentation occupancy for first ion, spin component:           1
  1.994  -0.000  -0.000  -0.000   0.000   0.002   0.000   0.000   0.000  -0.000   0.000  -0.000   0.000  -0.023  -0.000   0.000
 -0.000   1.994   0.000   0.000   0.000   0.000   0.002  -0.000  -0.000  -0.000  -0.000   0.000   0.000  -0.000  -0.023   0.000
 -0.000   0.000   1.991   0.000   0.000  -0.000   0.000  -0.009  -0.000   0.000   0.000   0.000  -0.000   0.000  -0.000   0.000
 -0.000   0.000   0.000   1.994   0.000   0.000   0.000   0.000   0.002   0.000  -0.000   0.000  -0.023   0.000  -0.000  -0.002
 -0.000   0.000   0.000   0.000   1.991  -0.000   0.000   0.000  -0.000  -0.009   0.000  -0.000   0.000  -0.000   0.000   0.000
  0.002  -0.000   0.000   0.000   0.000   0.046  -0.000  -0.000   0.000   0.000  -0.000   0.000   0.000  -0.164  -0.000   0.000
 -0.000   0.002   0.000  -0.000   0.000   0.000   0.046   0.000   0.000   0.000   0.000  -0.000   0.000   0.000  -0.164  -0.000
  0.000   0.000  -0.009   0.000   0.000   0.000   0.000   0.012   0.000   0.000   0.000   0.000  -0.000   0.000   0.000   0.000
  0.000  -0.000   0.000   0.002   0.000  -0.000   0.000   0.000   0.046   0.000   0.000   0.000  -0.164  -0.000   0.000  -0.003
  0.000   0.000   0.000   0.000  -0.009   0.000  -0.000   0.000  -0.000   0.012  -0.000  -0.000   0.000  -0.000  -0.000  -0.000
  0.000   0.000   0.000  -0.000   0.000   0.000   0.000   0.000   0.000   0.000   1.411   0.042   0.000  -0.000   0.000   0.000
  0.000   0.000   0.000   0.000   0.000   0.000   0.000   0.000   0.000  -0.000   0.042   0.002  -0.000   0.000  -0.000  -0.000
  0.000   0.000   0.000  -0.023   0.000   0.000  -0.000   0.000  -0.164  -0.000   0.000  -0.000   0.945  -0.000   0.000   0.019
 -0.023   0.000   0.000   0.000   0.000  -0.164   0.000  -0.000  -0.000  -0.000  -0.000   0.000  -0.000   0.945   0.000  -0.000
  0.000  -0.023   0.000   0.000   0.000   0.000  -0.164   0.000   0.000  -0.000   0.000  -0.000   0.000  -0.000   0.945  -0.000
 -0.000   0.000   0.000  -0.002  -0.000   0.000   0.000   0.000  -0.003  -0.000   0.000   0.000   0.019  -0.000   0.000   0.000
 -0.002   0.000   0.000   0.000   0.000  -0.003  -0.000   0.000  -0.000  -0.000   0.000   0.000   0.000   0.019  -0.000  -0.000
 -0.000  -0.002  -0.000  -0.000   0.000   0.000  -0.003   0.000   0.000  -0.000   0.000   0.000   0.000   0.000   0.019   0.000


------------------------ aborting loop because EDIFF is reached ----------------------------------------


 


 total charge     
 
# of ion     s       p       d       tot
----------------------------------------
  1        0.840   0.802  10.010  11.652
  2        1.217   1.649   0.032   2.898
------------------------------------------------
tot        2.057   2.451  10.042  14.550
 
    FORLOC:  cpu time    0.0000: real time    0.0004
    FORHF :  cpu time 1084.1798: real time 1084.8503
    FORNL :  cpu time    0.0920: real time    0.0933
    STRESS:  cpu time    1.1001: real time    1.1036
    FORCOR:  cpu time    0.0240: real time    0.0225
    OFIELD:  cpu time    0.0000: real time    0.0001

  FORCE on cell =-STRESS in cart. coord.  units (eV):
  Direction    XX          YY          ZZ          XY          YZ          ZX
  --------------------------------------------------------------------------------------
  Alpha Z    60.29113    60.29113    60.29113
  Ewald    -421.83412  -421.83412  -421.83412    -0.00000    -0.00000    -0.00000
  Hartree   241.17621   241.17621   241.17621     0.00000    -0.00000    -0.00000
  E(xc)     -74.01919   -74.01919   -74.01919     0.00001    -0.00001    -0.00001
  Local     -60.29740   -60.29740   -60.29740     0.00011    -0.00011    -0.00011
  n-local   153.61072   157.37297   156.81849    -0.81181    -1.63133    -0.52023
  augment   108.13454   108.13454   108.13454    -0.00010     0.00010     0.00010
  Kinetic   106.75708   111.08708   111.90769    -1.59986    -3.94471    -1.30186
  Fock            NaN         NaN         NaN         NaN         NaN         NaN
  -------------------------------------------------------------------------------------
  Total           NaN         NaN         NaN         NaN         NaN         NaN
  in kB           NaN         NaN         NaN         NaN         NaN         NaN
  external pressure =         NaN kB  Pullay stress =        0.00 kB


 VOLUME and BASIS-vectors are now :
 -----------------------------------------------------------------------------
  energy-cutoff  :      500.00
  volume of cell :       45.18
      direct lattice vectors                 reciprocal lattice vectors
     2.826800000  2.826800000  0.000000000     0.176878449  0.176878449  0.176878449
     2.826800000  0.000000000 -2.826800000     0.176878449 -0.176878449 -0.176878449
     0.000000000  2.826800000 -2.826800000    -0.176878449  0.176878449 -0.176878449

  length of vectors
     3.997698898  3.997698898  3.997698898     0.306362461  0.306362461  0.306362461


 FORCES acting on ions:
    Electron-Ion                     Ewald-Force                    Non-Local-Force
 -----------------------------------------------------------------------------------------------
   0.302E-06 0.321E-06 -.321E-06   -.206E-13 -.524E-14 0.156E-13   -.173E-16 -.278E-16 0.139E-16
   -.256E-06 -.384E-06 0.384E-06   0.196E-13 0.339E-14 -.154E-13   0.954E-16 0.763E-16 -.763E-16
 -----------------------------------------------------------------------------------------------
   0.195E-06 0.801E-07 -.800E-07   -.109E-14 -.185E-14 0.200E-15   0.781E-16 0.486E-16 -.625E-16
 
 
 POSITION                                       TOTAL-FORCE (eV/Angst)
 -----------------------------------------------------------------------------------
      0.00000      0.00000      0.00000              NaN           NaN           NaN
      1.41340      1.41340     -1.41340              NaN           NaN           NaN
 -----------------------------------------------------------------------------------
    total drift:                                     NaN           NaN           NaN


--------------------------------------------------------------------------------------------------------



  FREE ENERGIE OF THE ION-ELECTRON SYSTEM (eV)
  ---------------------------------------------------
  free  energy   TOTEN  =        -9.84572128 eV

  energy  without entropy=       -9.84572128  energy(sigma->0) =       -9.84572128
 


--------------------------------------------------------------------------------------------------------


    POTLOK:  cpu time    0.2520: real time    0.2541


--------------------------------------------------------------------------------------------------------




--------------------------------------------------------------------------------------------------------


  
 reached required accuracy - stopping structural energy minimisation
 writing wavefunctions
     LOOP+:  cpu time10140.6938: real time10147.8913
    4ORBIT:  cpu time    0.0000: real time    0.0000
 


 total charge     
 
# of ion     s       p       d       tot
----------------------------------------
  1        0.840   0.802  10.010  11.652
  2        1.217   1.649   0.032   2.898
------------------------------------------------
tot        2.057   2.451  10.042  14.550
 

 total amount of memory used by VASP on root node   176659. kBytes
========================================================================

   base      :      30000. kBytes
   nonl-proj :      84051. kBytes
   fftplans  :        555. kBytes
   grid      :        801. kBytes
   one-center:         15. kBytes
   HF        :         64. kBytes
   nonlr-proj:        699. kBytes
   wavefun   :      60474. kBytes
 
  
  
 General timing and accounting informations for this job:
 ========================================================
  
                  Total CPU time used (sec):    10260.341
                            User time (sec):    10252.981
                          System time (sec):        7.360
                         Elapsed time (sec):    10268.287
  
                   Maximum memory used (kb):      316116.
                   Average memory used (kb):           0.
  
                          Minor page faults:        84337
                          Major page faults:            0
                 Voluntary context switches:        16118
