 running on   96 total cores
 distrk:  each k-point on   24 cores,    4 groups
 distr:  one band on    6 cores,    4 groups
 using from now: INCAR     
 vasp.5.4.1 24Jun15 (build Nov 25 2015 16:01:35) complex                        
  
 POSCAR found type information on POSCAR  Ga As
 POSCAR found :  2 types and       2 ions
 scaLAPACK will be used

 ----------------------------------------------------------------------------- 
|                                                                             |
|           W    W    AA    RRRRR   N    N  II  N    N   GGGG   !!!           |
|           W    W   A  A   R    R  NN   N  II  NN   N  G    G  !!!           |
|           W    W  A    A  R    R  N N  N  II  N N  N  G       !!!           |
|           W WW W  AAAAAA  RRRRR   N  N N  II  N  N N  G  GGG   !            |
|           WW  WW  A    A  R   R   N   NN  II  N   NN  G    G                |
|           W    W  A    A  R    R  N    N  II  N    N   GGGG   !!!           |
|                                                                             |
|      You have enabled k-point parallelism (KPAR>1).                         |
|      This developmental code was originally  written by Paul Kent at ORNL,  |
|      and carefully double checked in Vienna.                                |
|      GW as well as linear response parallelism added by Martijn Marsman     |
|      and Georg Kresse.                                                      |
|      Carefully verify results versus KPAR=1.                                |
|      Report problems to Paul Kent and Vienna.                               |
|                                                                             |
 ----------------------------------------------------------------------------- 


 ----------------------------------------------------------------------------- 
|                                                                             |
|           W    W    AA    RRRRR   N    N  II  N    N   GGGG   !!!           |
|           W    W   A  A   R    R  NN   N  II  NN   N  G    G  !!!           |
|           W    W  A    A  R    R  N N  N  II  N N  N  G       !!!           |
|           W WW W  AAAAAA  RRRRR   N  N N  II  N  N N  G  GGG   !            |
|           WW  WW  A    A  R   R   N   NN  II  N   NN  G    G                |
|           W    W  A    A  R    R  N    N  II  N    N   GGGG   !!!           |
|                                                                             |
|      You have selected ISYM=2 for HF type calculation. This will symmetrize |
|      the charge density but not the exchange potential.                     |
|      I suggest to use ISYM=3 instead. This uses symmetry to obtain          |
|      the orbitals at all k-points in the Brillouine zone, but does not      |
|      apply symmetry to the Hartree potential directly.                      |
|      The resultant charge might have lower symmetry than the crystal,       |
|      but at least, Hartree and exchange are fully compatible.               |
|                                                                             |
 ----------------------------------------------------------------------------- 

 LDA part: xc-table for Pade appr. of Perdew

 ----------------------------------------------------------------------------- 
|                                                                             |
|           W    W    AA    RRRRR   N    N  II  N    N   GGGG   !!!           |
|           W    W   A  A   R    R  NN   N  II  NN   N  G    G  !!!           |
|           W    W  A    A  R    R  N N  N  II  N N  N  G       !!!           |
|           W WW W  AAAAAA  RRRRR   N  N N  II  N  N N  G  GGG   !            |
|           WW  WW  A    A  R   R   N   NN  II  N   NN  G    G                |
|           W    W  A    A  R    R  N    N  II  N    N   GGGG   !!!           |
|                                                                             |
|      Your generating k-point grid is not commensurate to the symmetry       |
|      of the lattice.  This can cause   slow convergence with respect        |
|      to k-points for HF type calculations                                   |
|      suggested SOLUTIONS:                                                   |
|       ) if not already the case, use automatic k-point generation           |
|       ) shift your grid to Gamma (G) (e.g. required for hex or fcc lattice) |
|                                                                             |
 ----------------------------------------------------------------------------- 

 POSCAR, INCAR and KPOINTS ok, starting setup
 WARNING: small aliasing (wrap around) errors must be expected
 FFT: planning ...
 WAVECAR not read
 WARNING: random wavefunctions but no delay for mixing, default for NELMDL
 entering main loop
       N       E                     dE             d eps       ncg     rms          ort
DAV:   1     0.778488128920E+03    0.77849E+03   -0.34783E+04 18528   0.635E+03
DAV:   2     0.120292042187E+03   -0.65820E+03   -0.61039E+03 18528   0.157E+03
DAV:   3     0.362775508115E+02   -0.84014E+02   -0.80080E+02 18528   0.205E+02
DAV:   4     0.312625345066E+02   -0.50150E+01   -0.49677E+01 18528   0.527E+01
DAV:   5     0.311857773332E+02   -0.76757E-01   -0.76738E-01 18528   0.674E+00
 gam= 0.000 g(H,U,f)=  0.188E+01 0.318E+00 0.207E-11 ort(H,U,f) = 0.000E+00 0.000E+00 0.000E+00
SDA:   6    -0.944739365288E+01   -0.40633E+02   -0.76738E-01 18528   0.220E+01 0.000E+00
 gam= 0.000 trial= 0.400  step= 0.268 mean= 0.400
 gam= 0.075 g(H,U,f)=  0.746E-01 0.897E-01 0.496E-25 ort(H,U,f) =-0.157E+00 0.156E+00 0.575E-25
CGA:   7    -0.973889692121E+01   -0.29150E+00   -0.29459E+00 18528   0.164E+00-0.165E-02
 gam= 0.075 trial= 0.393  step= 0.743 mean= 0.393
 gam= 0.711 g(H,U,f)=  0.885E-01 0.283E-01 0.184E-34 ort(H,U,f) =-0.480E-01 0.517E-01 0.302E-34
CGA:   8    -0.980053846223E+01   -0.61642E-01   -0.60960E-01 18528   0.117E+00 0.379E-02
 gam= 0.711 trial= 0.411  step= 0.552 mean= 0.411
 gam= 0.251 g(H,U,f)=  0.240E-01 0.538E-02 0.765E-48 ort(H,U,f) =-0.245E-01 0.258E-01 0.331E-47
CGA:   9    -0.983361311588E+01   -0.33075E-01   -0.32958E-01 18528   0.293E-01 0.127E-02
 gam= 0.251 trial= 0.418  step= 0.583 mean= 0.418
 gam= 0.438 g(H,U,f)=  0.118E-01 0.103E-02 0.792E-63 ort(H,U,f) =-0.368E-02 0.399E-02 0.105E-62
CGA:  10    -0.984229605946E+01   -0.86829E-02   -0.86507E-02 18528   0.128E-01 0.309E-03
 gam= 0.438 trial= 0.426  step= 0.398 mean= 0.426
 gam= 0.158 g(H,U,f)=  0.170E-02 0.324E-03 0.279E-17 ort(H,U,f) =-0.142E-02 0.142E-02 0.327E-17
CGA:  11    -0.984487689362E+01   -0.25808E-02   -0.25812E-02 18528   0.202E-02 0.673E-05
 gam= 0.158 trial= 0.425  step= 0.535 mean= 0.425
 gam= 0.356 g(H,U,f)=  0.592E-03 0.130E-03 0.173E-52 ort(H,U,f) =-0.321E-03 0.327E-03 0.280E-52
CGA:  12    -0.984541942693E+01   -0.54253E-03   -0.54213E-03 18528   0.722E-03 0.622E-05
 gam= 0.356 trial= 0.430  step= 0.501 mean= 0.430
 gam= 0.449 g(H,U,f)=  0.268E-03 0.560E-04 0.179E-18 ort(H,U,f) =-0.150E-03 0.147E-03 0.400E-18
CGA:  13    -0.984560057965E+01   -0.18115E-03   -0.18124E-03 18528   0.324E-03-0.289E-05
 gam= 0.449 trial= 0.434  step= 0.447 mean= 0.434
 gam= 0.403 g(H,U,f)=  0.110E-03 0.205E-04 0.103E-30 ort(H,U,f) =-0.743E-04 0.706E-04 0.340E-30
CGA:  14    -0.984567258347E+01   -0.72004E-04   -0.72027E-04 18528   0.131E-03-0.372E-05
 gam= 0.403 trial= 0.434  step= 0.456 mean= 0.434
 gam= 0.467 g(H,U,f)=  0.545E-04 0.646E-05 0.288E-17 ort(H,U,f) =-0.281E-04 0.259E-04 0.118E-16
CGA:  15    -0.984570196362E+01   -0.29380E-04   -0.29403E-04 18528   0.609E-04-0.221E-05
 gam= 0.467 trial= 0.436  step= 0.416 mean= 0.436
 gam= 0.362 g(H,U,f)=  0.198E-04 0.226E-05 0.973E-51 ort(H,U,f) =-0.104E-04 0.985E-05 0.553E-50
CGA:  16    -0.984571442208E+01   -0.12458E-04   -0.12453E-04 18528   0.221E-04-0.539E-06
 gam= 0.362 trial= 0.435  step= 0.418 mean= 0.435
 gam= 0.358 g(H,U,f)=  0.702E-05 0.874E-06 0.173E-20 ort(H,U,f) =-0.377E-05 0.329E-05 0.107E-19
CGA:  17    -0.984571899557E+01   -0.45735E-05   -0.45699E-05 18528   0.789E-05-0.483E-06
 gam= 0.358 trial= 0.434  step= 0.446 mean= 0.434
 gam= 0.374 g(H,U,f)=  0.268E-05 0.273E-06 0.226E-15 ort(H,U,f) =-0.125E-05 0.106E-05 0.168E-14
CGA:  18    -0.984572071455E+01   -0.17190E-05   -0.17199E-05 18528   0.295E-05-0.183E-06
 gam= 0.374 trial= 0.434  step= 0.393 mean= 0.434
 gam= 0.366 g(H,U,f)=  0.969E-06 0.109E-06 0.120E-55 ort(H,U,f) =-0.447E-06 0.399E-06 0.111E-54
CGA:  19    -0.984572128167E+01   -0.56713E-06   -0.56658E-06 18528   0.108E-05-0.478E-07
 gam= 0.366 trial= 0.432  step= 0.427 mean= 0.432
   1 F= -.98457213E+01 E0= -.98457213E+01  d E =-.984572E+01
 curvature:   0.00 expect dE=       NaN dE for cont linesearch        NaN
 trial: gam= 0.00000 g(F)=        NaN g(S)=        NaN ort =       NaN (trialstep = 0.100E+01)
 search vector abs. value=        NaN
 reached required accuracy - stopping structural energy minimisation
 writing wavefunctions
Application 21913725 resources: utime ~982825s, stime ~2304s, Rss ~320368, inblocks ~721532, outblocks ~1857522
