 running on   96 total cores
 distrk:  each k-point on   24 cores,    4 groups
 distr:  one band on    3 cores,    8 groups
 using from now: INCAR     
 vasp.5.4.1 24Jun15 (build Nov 25 2015 16:01:35) complex                        
  
 POSCAR found type information on POSCAR  C  N  H  Pb I 
 POSCAR found :  5 types and      96 ions
 scaLAPACK will be used

 ----------------------------------------------------------------------------- 
|                                                                             |
|           W    W    AA    RRRRR   N    N  II  N    N   GGGG   !!!           |
|           W    W   A  A   R    R  NN   N  II  NN   N  G    G  !!!           |
|           W    W  A    A  R    R  N N  N  II  N N  N  G       !!!           |
|           W WW W  AAAAAA  RRRRR   N  N N  II  N  N N  G  GGG   !            |
|           WW  WW  A    A  R   R   N   NN  II  N   NN  G    G                |
|           W    W  A    A  R    R  N    N  II  N    N   GGGG   !!!           |
|                                                                             |
|      For optimal performance we recommend to set                            |
|        NCORE= 4 - approx SQRT( number of cores)                             |
|      NCORE specifies how many cores store one orbital (NPAR=cpu/NCORE).     |
|      This setting can  greatly improve the performance of VASP for DFT.     |
|      The default, NPAR=number of cores might be grossly inefficient         |
|      on modern multi-core architectures or massively parallel machines.     |
|      Do your own testing !!!!                                               |
|      Unfortunately you need to use the default for GW and RPA calculations. |
|      (for HF NCORE is supported but not extensively tested yet)             |
|                                                                             |
 ----------------------------------------------------------------------------- 


 ----------------------------------------------------------------------------- 
|                                                                             |
|           W    W    AA    RRRRR   N    N  II  N    N   GGGG   !!!           |
|           W    W   A  A   R    R  NN   N  II  NN   N  G    G  !!!           |
|           W    W  A    A  R    R  N N  N  II  N N  N  G       !!!           |
|           W WW W  AAAAAA  RRRRR   N  N N  II  N  N N  G  GGG   !            |
|           WW  WW  A    A  R   R   N   NN  II  N   NN  G    G                |
|           W    W  A    A  R    R  N    N  II  N    N   GGGG   !!!           |
|                                                                             |
|      You have enabled k-point parallelism (KPAR>1).                         |
|      This developmental code was originally  written by Paul Kent at ORNL,  |
|      and carefully double checked in Vienna.                                |
|      GW as well as linear response parallelism added by Martijn Marsman     |
|      and Georg Kresse.                                                      |
|      Carefully verify results versus KPAR=1.                                |
|      Report problems to Paul Kent and Vienna.                               |
|                                                                             |
 ----------------------------------------------------------------------------- 


 ----------------------------------------------------------------------------- 
|                                                                             |
|  ADVICE TO THIS USER RUNNING 'VASP/VAMP'   (HEAR YOUR MASTER'S VOICE ...):  |
|                                                                             |
|      You have a (more or less) 'large supercell' and for larger cells       |
|      it might be more efficient to use real space projection opertators     |
|      So try LREAL= Auto  in the INCAR   file.                               |
|      Mind: At the moment your POTCAR file does not contain real space       |
|       projectors, and has to be modified,  BUT if you                       |
|      want to do an extremely  accurate calculation you might also keep the  |
|      reciprocal projection scheme          (i.e. LREAL=.FALSE.)             |
|                                                                             |
 ----------------------------------------------------------------------------- 


 ----------------------------------------------------------------------------- 
|                                                                             |
|  ADVICE TO THIS USER RUNNING 'VASP/VAMP'   (HEAR YOUR MASTER'S VOICE ...):  |
|                                                                             |
|      You enforced a specific xc-type in the INCAR file,                     |
|      a different type was found on the POTCAR file                          |
|          I HOPE YOU KNOW, WHAT YOU ARE  DOING                               |
|                                                                             |
 ----------------------------------------------------------------------------- 

 LDA part: xc-table for Pade appr. of Perdew
 POSCAR, INCAR and KPOINTS ok, starting setup
 WARNING: small aliasing (wrap around) errors must be expected
 FFT: planning ...
 WAVECAR not read
 entering main loop
       N       E                     dE             d eps       ncg     rms          rms(c)
DAV:   1     0.359527397428E+04    0.35953E+04   -0.18941E+05  7176   0.170E+03
DAV:   2     0.202534022793E+03   -0.33927E+04   -0.31936E+04  7976   0.354E+02
DAV:   3    -0.397486854286E+03   -0.60002E+03   -0.59093E+03  9472   0.172E+02
DAV:   4    -0.438186700606E+03   -0.40700E+02   -0.40525E+02  9648   0.490E+01
DAV:   5    -0.439731263672E+03   -0.15446E+01   -0.15422E+01  9784   0.925E+00    0.293E+01
DAV:   6    -0.419482697361E+03    0.20249E+02   -0.40864E+01  9752   0.104E+01    0.155E+01
DAV:   7    -0.417042230113E+03    0.24405E+01   -0.14658E+01 10264   0.641E+00    0.775E+00
DAV:   8    -0.416874731452E+03    0.16750E+00   -0.31076E+00  8536   0.322E+00    0.184E+00
DAV:   9    -0.416797247660E+03    0.77484E-01   -0.77293E-01  9432   0.178E+00    0.713E-01
DAV:  10    -0.416808742280E+03   -0.11495E-01   -0.11029E-01  8928   0.587E-01    0.465E-01
DAV:  11    -0.416808589821E+03    0.15246E-03   -0.15033E-02  9992   0.285E-01    0.195E-01
DAV:  12    -0.416809953037E+03   -0.13632E-02   -0.89061E-03  9752   0.151E-01    0.104E-01
DAV:  13    -0.416810113422E+03   -0.16039E-03   -0.13356E-03  8264   0.766E-02    0.726E-02
DAV:  14    -0.416810145900E+03   -0.32478E-04   -0.29446E-04  8648   0.295E-02    0.318E-02
DAV:  15    -0.416810191672E+03   -0.45771E-04   -0.14729E-04  8184   0.202E-02    0.121E-02
DAV:  16    -0.416810195442E+03   -0.37699E-05   -0.12826E-05 10784   0.666E-03    0.126E-02
DAV:  17    -0.416810195199E+03    0.24271E-06   -0.29481E-06  8472   0.309E-03    0.614E-03
DAV:  18    -0.416810195130E+03    0.68838E-07   -0.97224E-06 10304   0.495E-03    0.378E-03
DAV:  19    -0.416810195158E+03   -0.28009E-07   -0.94266E-07  8584   0.213E-03    0.271E-03
DAV:  20    -0.416810195140E+03    0.18255E-07   -0.45532E-07  9384   0.104E-03    0.545E-04
DAV:  21    -0.416810195187E+03   -0.47185E-07   -0.66652E-08  9384   0.501E-04    0.330E-04
DAV:  22    -0.416810195178E+03    0.88257E-08   -0.42771E-09  8184   0.179E-04    0.221E-04
DAV:  23    -0.416810195179E+03   -0.10587E-08    0.11643E-09  8480   0.899E-05    0.188E-04
DAV:  24    -0.416810195175E+03    0.46712E-08    0.90570E-10  7376   0.709E-05    0.186E-04
DAV:  25    -0.416810195177E+03   -0.22810E-08    0.19403E-09  5688   0.432E-05    0.179E-04
DAV:  26    -0.416810195180E+03   -0.29831E-08    0.14572E-09  5400   0.393E-05    0.175E-04
DAV:  27    -0.416810195180E+03   -0.80036E-10    0.21295E-09  4272   0.215E-05    0.176E-04
DAV:  28    -0.416810195180E+03    0.42201E-09    0.16558E-09  4256   0.141E-05    0.175E-04
DAV:  29    -0.416810195179E+03    0.50932E-09    0.18483E-09  4256   0.110E-05    0.174E-04
DAV:  30    -0.416810195179E+03    0.12369E-09    0.17187E-09  4256   0.926E-06    0.174E-04
DAV:  31    -0.416810195179E+03   -0.72760E-10    0.10193E-09  4256   0.784E-06    0.174E-04
DAV:  32    -0.416810195179E+03    0.36380E-10    0.15177E-09  4256   0.567E-06    0.174E-04
DAV:  33    -0.416810195179E+03   -0.21828E-10    0.12118E-09  4256   0.244E-06    0.174E-04
DAV:  34    -0.416810195179E+03    0.36380E-10    0.10979E-09  4240   0.207E-06    0.174E-04
Application 22454126 exit codes: 134
Application 22454126 exit signals: Killed
Application 22454126 resources: utime ~5565s, stime ~8s, Rss ~646144, inblocks ~355374, outblocks ~773573
