   8   8   1   0
  0.3631583E+02  0.6623111E-09  0.6623111E-09  0.6623111E-09  0.5000000E-15
  1.000000000000000E-004
  CAR 
 Name                                    
     11.28081405    -10.04255374  301      2.07660845      1.00000000
    -10.043  0.0000E+00  0.0000E+00
     -9.971  0.0000E+00  0.0000E+00
     -9.900  0.0000E+00  0.0000E+00
     -9.829  0.0000E+00  0.0000E+00
     -9.758  0.0000E+00  0.0000E+00
     -9.687  0.0000E+00  0.0000E+00
     -9.616  0.1220E-15  0.8674E-17
     -9.545  0.2640E-12  0.1878E-13
     -9.474  0.2346E-09  0.1669E-10
     -9.403  0.7839E-07  0.5588E-08
     -9.332  0.1006E-04  0.7205E-06
     -9.261  0.5163E-03  0.3742E-04
     -9.190  0.1143E-01  0.8498E-03
     -9.119  0.1218E+00  0.9511E-02
     -9.047  0.6969E+00  0.5905E-01
     -8.976  0.2280E+01  0.2211E+00
     -8.905  0.4715E+01  0.5562E+00
     -8.834  0.8347E+01  0.1149E+01
     -8.763  0.1547E+02  0.2249E+01
     -8.692  0.2524E+02  0.4043E+01
     -8.621  0.2936E+02  0.6130E+01
     -8.550  0.1928E+02  0.7501E+01
     -8.479  0.6106E+01  0.7935E+01
     -8.408  0.8644E+00  0.7996E+01
     -8.337  0.5233E-01  0.8000E+01
     -8.266  0.1305E-02  0.8000E+01
     -8.195  0.1300E-04  0.8000E+01
     -8.123  0.5035E-07  0.8000E+01
     -8.052  0.7444E-10  0.8000E+01
     -7.981  0.4086E-13  0.8000E+01
     -7.910  0.0000E+00  0.8000E+01
     -7.839  0.0000E+00  0.8000E+01
     -7.768  0.0000E+00  0.8000E+01
     -7.697  0.0000E+00  0.8000E+01
     -7.626  0.0000E+00  0.8000E+01
     -7.555  0.0000E+00  0.8000E+01
     -7.484  0.0000E+00  0.8000E+01
     -7.413  0.0000E+00  0.8000E+01
     -7.342  0.0000E+00  0.8000E+01
     -7.271  0.0000E+00  0.8000E+01
     -7.199  0.0000E+00  0.8000E+01
     -7.128  0.0000E+00  0.8000E+01
     -7.057  0.0000E+00  0.8000E+01
     -6.986  0.0000E+00  0.8000E+01
     -6.915  0.0000E+00  0.8000E+01
     -6.844  0.4391E-13  0.8000E+01
     -6.773  0.7966E-10  0.8000E+01
     -6.702  0.5598E-07  0.8000E+01
     -6.631  0.1555E-04  0.8000E+01
     -6.560  0.1742E-02  0.8000E+01
     -6.489  0.8069E-01  0.8006E+01
     -6.418  0.1586E+01  0.8119E+01
     -6.347  0.1357E+02  0.9083E+01
     -6.275  0.5240E+02  0.1281E+02
     -6.204  0.9968E+02  0.1989E+02
     -6.133  0.1178E+03  0.2827E+02
     -6.062  0.1074E+03  0.3590E+02
     -5.991  0.6451E+02  0.4048E+02
     -5.920  0.2430E+02  0.4221E+02
     -5.849  0.1299E+02  0.4313E+02
     -5.778  0.1679E+02  0.4433E+02
     -5.707  0.2055E+02  0.4579E+02
     -5.636  0.1787E+02  0.4706E+02
     -5.565  0.9838E+01  0.4776E+02
     -5.494  0.2950E+01  0.4797E+02
     -5.422  0.4254E+00  0.4800E+02
     -5.351  0.2718E-01  0.4800E+02
     -5.280  0.7300E-03  0.4800E+02
     -5.209  0.7952E-05  0.4800E+02
     -5.138  0.3424E-07  0.4800E+02
     -5.067  0.5716E-10  0.4800E+02
     -4.996  0.3690E-13  0.4800E+02
     -4.925  0.0000E+00  0.4800E+02
     -4.854  0.0000E+00  0.4800E+02
     -4.783  0.0000E+00  0.4800E+02
     -4.712  0.0000E+00  0.4800E+02
     -4.641  0.0000E+00  0.4800E+02
     -4.570  0.0000E+00  0.4800E+02
     -4.498  0.0000E+00  0.4800E+02
     -4.427  0.0000E+00  0.4800E+02
     -4.356  0.0000E+00  0.4800E+02
     -4.285  0.0000E+00  0.4800E+02
     -4.214  0.0000E+00  0.4800E+02
     -4.143  0.0000E+00  0.4800E+02
     -4.072  0.0000E+00  0.4800E+02
     -4.001  0.0000E+00  0.4800E+02
     -3.930  0.0000E+00  0.4800E+02
     -3.859  0.0000E+00  0.4800E+02
     -3.788  0.0000E+00  0.4800E+02
     -3.717  0.0000E+00  0.4800E+02
     -3.646  0.0000E+00  0.4800E+02
     -3.574  0.0000E+00  0.4800E+02
     -3.503  0.0000E+00  0.4800E+02
     -3.432  0.0000E+00  0.4800E+02
     -3.361  0.0000E+00  0.4800E+02
     -3.290  0.0000E+00  0.4800E+02
     -3.219  0.0000E+00  0.4800E+02
     -3.148  0.0000E+00  0.4800E+02
     -3.077  0.0000E+00  0.4800E+02
     -3.006  0.0000E+00  0.4800E+02
     -2.935  0.0000E+00  0.4800E+02
     -2.864  0.3905E-15  0.4800E+02
     -2.793  0.9615E-12  0.4800E+02
     -2.722  0.8599E-09  0.4800E+02
     -2.650  0.2867E-06  0.4800E+02
     -2.579  0.3596E-04  0.4800E+02
     -2.508  0.1722E-02  0.4800E+02
     -2.437  0.3240E-01  0.4800E+02
     -2.366  0.2589E+00  0.4802E+02
     -2.295  0.1097E+01  0.4810E+02
     -2.224  0.3522E+01  0.4835E+02
     -2.153  0.8668E+01  0.4897E+02
     -2.082  0.1408E+02  0.4997E+02
     -2.011  0.1602E+02  0.5110E+02
     -1.940  0.1243E+02  0.5199E+02
     -1.869  0.7663E+01  0.5253E+02
     -1.798  0.5244E+01  0.5291E+02
     -1.726  0.3567E+01  0.5316E+02
     -1.655  0.3273E+01  0.5339E+02
     -1.584  0.4063E+01  0.5368E+02
     -1.513  0.4421E+01  0.5399E+02
     -1.442  0.2508E+01  0.5417E+02
     -1.371  0.5972E+00  0.5421E+02
     -1.300  0.1472E+00  0.5423E+02
     -1.229  0.8289E+00  0.5428E+02
     -1.158  0.2904E+01  0.5449E+02
     -1.087  0.4017E+01  0.5478E+02
     -1.016  0.2197E+01  0.5493E+02
     -0.945  0.5219E+00  0.5497E+02
     -0.874  0.4983E+00  0.5500E+02
     -0.802  0.1649E+01  0.5512E+02
     -0.731  0.2347E+01  0.5529E+02
     -0.660  0.1385E+01  0.5539E+02
     -0.589  0.9091E+00  0.5545E+02
     -0.518  0.2808E+01  0.5565E+02
     -0.447  0.5572E+01  0.5605E+02
     -0.376  0.5109E+01  0.5641E+02
     -0.305  0.2864E+01  0.5661E+02
     -0.234  0.3060E+01  0.5683E+02
     -0.163  0.7334E+01  0.5735E+02
     -0.092  0.1425E+02  0.5837E+02
     -0.021  0.1665E+02  0.5955E+02
      0.051  0.1130E+02  0.6035E+02
      0.122  0.4809E+01  0.6069E+02
      0.193  0.2009E+01  0.6084E+02
      0.264  0.2899E+01  0.6104E+02
      0.335  0.7153E+01  0.6155E+02
      0.406  0.1250E+02  0.6244E+02
      0.477  0.1682E+02  0.6364E+02
      0.548  0.1566E+02  0.6475E+02
      0.619  0.1068E+02  0.6551E+02
      0.690  0.7085E+01  0.6601E+02
      0.761  0.5511E+01  0.6640E+02
      0.832  0.6705E+01  0.6688E+02
      0.903  0.7742E+01  0.6743E+02
      0.975  0.8466E+01  0.6803E+02
      1.046  0.1220E+02  0.6890E+02
      1.117  0.1416E+02  0.6991E+02
      1.188  0.8277E+01  0.7049E+02
      1.259  0.2221E+01  0.7065E+02
      1.330  0.1291E+01  0.7074E+02
      1.401  0.3346E+01  0.7098E+02
      1.472  0.4542E+01  0.7130E+02
      1.543  0.3294E+01  0.7154E+02
      1.614  0.2471E+01  0.7171E+02
      1.685  0.1989E+01  0.7185E+02
      1.756  0.1090E+01  0.7193E+02
      1.827  0.6128E+00  0.7198E+02
      1.899  0.2764E+00  0.7200E+02
      1.970  0.5723E-01  0.7200E+02
      2.041  0.4702E-02  0.7200E+02
      2.112  0.2745E-03  0.7200E+02
      2.183  0.3148E-02  0.7200E+02
      2.254  0.3031E-01  0.7200E+02
      2.325  0.1139E+00  0.7201E+02
      2.396  0.1687E+00  0.7202E+02
      2.467  0.9865E-01  0.7203E+02
      2.538  0.2269E-01  0.7203E+02
      2.609  0.2033E-02  0.7203E+02
      2.680  0.7007E-04  0.7203E+02
      2.751  0.9183E-06  0.7203E+02
      2.823  0.4529E-08  0.7203E+02
      2.894  0.8345E-11  0.7203E+02
      2.965  0.6785E-14  0.7203E+02
      3.036  0.2255E-11  0.7203E+02
      3.107  0.1793E-08  0.7203E+02
      3.178  0.5316E-06  0.7203E+02
      3.249  0.5924E-04  0.7203E+02
      3.320  0.2517E-02  0.7203E+02
      3.391  0.4195E-01  0.7203E+02
      3.462  0.2939E+00  0.7206E+02
      3.533  0.1013E+01  0.7213E+02
      3.604  0.2089E+01  0.7228E+02
      3.675  0.2544E+01  0.7246E+02
      3.747  0.1649E+01  0.7257E+02
      3.818  0.1214E+01  0.7266E+02
      3.889  0.1932E+01  0.7280E+02
      3.960  0.1721E+01  0.7292E+02
      4.031  0.8079E+00  0.7298E+02
      4.102  0.1649E+01  0.7309E+02
      4.173  0.5212E+01  0.7346E+02
      4.244  0.7609E+01  0.7401E+02
      4.315  0.5009E+01  0.7436E+02
      4.386  0.1905E+01  0.7450E+02
      4.457  0.1705E+01  0.7462E+02
      4.528  0.2451E+01  0.7479E+02
      4.599  0.3752E+01  0.7506E+02
      4.671  0.8132E+01  0.7564E+02
      4.742  0.1238E+02  0.7652E+02
      4.813  0.1102E+02  0.7730E+02
      4.884  0.8015E+01  0.7787E+02
      4.955  0.6275E+01  0.7832E+02
      5.026  0.6738E+01  0.7880E+02
      5.097  0.6494E+01  0.7926E+02
      5.168  0.5261E+01  0.7963E+02
      5.239  0.5719E+01  0.8004E+02
      5.310  0.6547E+01  0.8050E+02
      5.381  0.6366E+01  0.8096E+02
      5.452  0.4431E+01  0.8127E+02
      5.524  0.1637E+01  0.8139E+02
      5.595  0.2770E+00  0.8141E+02
      5.666  0.2930E+00  0.8143E+02
      5.737  0.1874E+01  0.8156E+02
      5.808  0.5072E+01  0.8192E+02
      5.879  0.5571E+01  0.8232E+02
      5.950  0.2514E+01  0.8250E+02
      6.021  0.5222E+00  0.8253E+02
      6.092  0.7275E+00  0.8258E+02
      6.163  0.3539E+01  0.8284E+02
      6.234  0.7479E+01  0.8337E+02
      6.305  0.7451E+01  0.8390E+02
      6.376  0.7005E+01  0.8439E+02
      6.448  0.9429E+01  0.8507E+02
      6.519  0.7526E+01  0.8560E+02
      6.590  0.3087E+01  0.8582E+02
      6.661  0.3411E+01  0.8606E+02
      6.732  0.8040E+01  0.8663E+02
      6.803  0.9606E+01  0.8732E+02
      6.874  0.7417E+01  0.8784E+02
      6.945  0.8188E+01  0.8843E+02
      7.016  0.8719E+01  0.8905E+02
      7.087  0.7015E+01  0.8954E+02
      7.158  0.8387E+01  0.9014E+02
      7.229  0.1154E+02  0.9096E+02
      7.300  0.1197E+02  0.9181E+02
      7.372  0.8141E+01  0.9239E+02
      7.443  0.3989E+01  0.9267E+02
      7.514  0.4203E+01  0.9297E+02
      7.585  0.6190E+01  0.9341E+02
      7.656  0.6142E+01  0.9385E+02
      7.727  0.4756E+01  0.9419E+02
      7.798  0.4897E+01  0.9453E+02
      7.869  0.5289E+01  0.9491E+02
      7.940  0.4096E+01  0.9520E+02
      8.011  0.2204E+01  0.9536E+02
      8.082  0.1241E+01  0.9545E+02
      8.153  0.1032E+01  0.9552E+02
      8.224  0.4956E+00  0.9556E+02
      8.296  0.9708E-01  0.9556E+02
      8.367  0.7415E-02  0.9556E+02
      8.438  0.2175E-03  0.9556E+02
      8.509  0.2421E-05  0.9556E+02
      8.580  0.1018E-07  0.9556E+02
      8.651  0.3118E-07  0.9556E+02
      8.722  0.6936E-05  0.9556E+02
      8.793  0.5807E-03  0.9556E+02
      8.864  0.1847E-01  0.9556E+02
      8.935  0.2260E+00  0.9558E+02
      9.006  0.1080E+01  0.9566E+02
      9.077  0.2058E+01  0.9580E+02
      9.148  0.1625E+01  0.9592E+02
      9.220  0.5830E+00  0.9596E+02
      9.291  0.1118E+00  0.9597E+02
      9.362  0.1230E-01  0.9597E+02
      9.433  0.6701E-03  0.9597E+02
      9.504  0.1540E-04  0.9597E+02
      9.575  0.1379E-06  0.9597E+02
      9.646  0.4671E-09  0.9597E+02
      9.717  0.5911E-12  0.9597E+02
      9.788  0.7124E-12  0.9597E+02
      9.859  0.5481E-09  0.9597E+02
      9.930  0.1572E-06  0.9597E+02
     10.001  0.1693E-04  0.9597E+02
     10.072  0.6904E-03  0.9597E+02
     10.144  0.1078E-01  0.9597E+02
     10.215  0.6532E-01  0.9597E+02
     10.286  0.1552E+00  0.9599E+02
     10.357  0.1455E+00  0.9600E+02
     10.428  0.5385E-01  0.9600E+02
     10.499  0.7804E-02  0.9600E+02
     10.570  0.4379E-03  0.9600E+02
     10.641  0.9396E-05  0.9600E+02
     10.712  0.7625E-07  0.9600E+02
     10.783  0.2320E-09  0.9600E+02
     10.854  0.2628E-12  0.9600E+02
     10.925  0.9762E-16  0.9600E+02
     10.997  0.0000E+00  0.9600E+02
     11.068  0.0000E+00  0.9600E+02
     11.139  0.0000E+00  0.9600E+02
     11.210  0.0000E+00  0.9600E+02
     11.281  0.0000E+00  0.9600E+02
     11.28081405    -10.04255374  301      2.07660845      1.00000000
    -10.043  0.0000E+00  0.0000E+00  0.0000E+00
     -9.971  0.0000E+00  0.0000E+00  0.0000E+00
     -9.900  0.0000E+00  0.0000E+00  0.0000E+00
     -9.829  0.0000E+00  0.0000E+00  0.0000E+00
     -9.758  0.0000E+00  0.0000E+00  0.0000E+00
     -9.687  0.0000E+00  0.0000E+00  0.0000E+00
     -9.616  0.1638E-17  0.6072E-32  0.1259E-31
     -9.545  0.3541E-14  0.4823E-18  0.3737E-17
     -9.474  0.3144E-11  0.1052E-14  0.8158E-14
     -9.403  0.1048E-08  0.8793E-12  0.6824E-11
     -9.332  0.1338E-06  0.2771E-09  0.2154E-08
     -9.261  0.6790E-05  0.3359E-07  0.2620E-06
     -9.190  0.1466E-03  0.1622E-05  0.1274E-04
     -9.119  0.1497E-02  0.3297E-04  0.2622E-03
     -9.047  0.8069E-02  0.3052E-03  0.2476E-02
     -8.976  0.2449E-01  0.1435E-02  0.1203E-01
     -8.905  0.4463E-01  0.4298E-02  0.3814E-01
     -8.834  0.6090E-01  0.1147E-01  0.1099E+00
     -8.763  0.7913E-01  0.2818E-01  0.2883E+00
     -8.692  0.8465E-01  0.5475E-01  0.5887E+00
     -8.621  0.6276E-01  0.7071E-01  0.7825E+00
     -8.550  0.2805E-01  0.4903E-01  0.5505E+00
     -8.479  0.6329E-02  0.1602E-01  0.1815E+00
     -8.408  0.6366E-03  0.2319E-02  0.2644E-01
     -8.337  0.2683E-04  0.1426E-03  0.1634E-02
     -8.266  0.4598E-06  0.3599E-05  0.4138E-04
     -8.195  0.3158E-08  0.3611E-07  0.4162E-06
     -8.123  0.8617E-11  0.1406E-09  0.1622E-08
     -8.052  0.9268E-14  0.2085E-12  0.2408E-11
     -7.981  0.3400E-17  0.1148E-15  0.1327E-14
     -7.910  0.0000E+00  0.0000E+00  0.0000E+00
     -7.839  0.0000E+00  0.0000E+00  0.0000E+00
     -7.768  0.0000E+00  0.0000E+00  0.0000E+00
     -7.697  0.0000E+00  0.0000E+00  0.0000E+00
     -7.626  0.0000E+00  0.0000E+00  0.0000E+00
     -7.555  0.0000E+00  0.0000E+00  0.0000E+00
     -7.484  0.0000E+00  0.0000E+00  0.0000E+00
     -7.413  0.0000E+00  0.0000E+00  0.0000E+00
     -7.342  0.0000E+00  0.0000E+00  0.0000E+00
     -7.271  0.0000E+00  0.0000E+00  0.0000E+00
     -7.199  0.0000E+00  0.0000E+00  0.0000E+00
     -7.128  0.0000E+00  0.0000E+00  0.0000E+00
     -7.057  0.0000E+00  0.0000E+00  0.0000E+00
     -6.986  0.0000E+00  0.0000E+00  0.0000E+00
     -6.915  0.0000E+00  0.0000E+00  0.0000E+00
     -6.844  0.2970E-18  0.3298E-17  0.1002E-13
     -6.773  0.6508E-15  0.6060E-14  0.1819E-10
     -6.702  0.6573E-12  0.4303E-11  0.1279E-07
     -6.631  0.2506E-09  0.1208E-08  0.3557E-05
     -6.560  0.3658E-07  0.1370E-06  0.3989E-03
     -6.489  0.2094E-05  0.6428E-05  0.1850E-01
     -6.418  0.4900E-04  0.1281E-03  0.3640E+00
     -6.347  0.5021E-03  0.1108E-02  0.3121E+01
     -6.275  0.2491E-02  0.4222E-02  0.1208E+02
     -6.204  0.6715E-02  0.7167E-02  0.2305E+02
     -6.133  0.1098E-01  0.5514E-02  0.2744E+02
     -6.062  0.1348E-01  0.2247E-02  0.2517E+02
     -5.991  0.1676E-01  0.1237E-02  0.1509E+02
     -5.920  0.1869E-01  0.1671E-02  0.5550E+01
     -5.849  0.1987E-01  0.3386E-02  0.2802E+01
     -5.778  0.2442E-01  0.6970E-02  0.3540E+01
     -5.707  0.2380E-01  0.1044E-01  0.4307E+01
     -5.636  0.1476E-01  0.1071E-01  0.3728E+01
     -5.565  0.5255E-02  0.6692E-02  0.2044E+01
     -5.494  0.9650E-03  0.2177E-02  0.6113E+00
     -5.422  0.8409E-04  0.3283E-03  0.8803E-01
     -5.351  0.3296E-05  0.2144E-04  0.5621E-02
     -5.280  0.5592E-07  0.5815E-06  0.1509E-03
     -5.209  0.3964E-09  0.6356E-08  0.1644E-05
     -5.138  0.1135E-11  0.2740E-10  0.7080E-08
     -5.067  0.1274E-14  0.4572E-13  0.1182E-10
     -4.996  0.5015E-18  0.2954E-16  0.7630E-14
     -4.925  0.0000E+00  0.0000E+00  0.0000E+00
     -4.854  0.0000E+00  0.0000E+00  0.0000E+00
     -4.783  0.0000E+00  0.0000E+00  0.0000E+00
     -4.712  0.0000E+00  0.0000E+00  0.0000E+00
     -4.641  0.0000E+00  0.0000E+00  0.0000E+00
     -4.570  0.0000E+00  0.0000E+00  0.0000E+00
     -4.498  0.0000E+00  0.0000E+00  0.0000E+00
     -4.427  0.0000E+00  0.0000E+00  0.0000E+00
     -4.356  0.0000E+00  0.0000E+00  0.0000E+00
     -4.285  0.0000E+00  0.0000E+00  0.0000E+00
     -4.214  0.0000E+00  0.0000E+00  0.0000E+00
     -4.143  0.0000E+00  0.0000E+00  0.0000E+00
     -4.072  0.0000E+00  0.0000E+00  0.0000E+00
     -4.001  0.0000E+00  0.0000E+00  0.0000E+00
     -3.930  0.0000E+00  0.0000E+00  0.0000E+00
     -3.859  0.0000E+00  0.0000E+00  0.0000E+00
     -3.788  0.0000E+00  0.0000E+00  0.0000E+00
     -3.717  0.0000E+00  0.0000E+00  0.0000E+00
     -3.646  0.0000E+00  0.0000E+00  0.0000E+00
     -3.574  0.0000E+00  0.0000E+00  0.0000E+00
     -3.503  0.0000E+00  0.0000E+00  0.0000E+00
     -3.432  0.0000E+00  0.0000E+00  0.0000E+00
     -3.361  0.0000E+00  0.0000E+00  0.0000E+00
     -3.290  0.0000E+00  0.0000E+00  0.0000E+00
     -3.219  0.0000E+00  0.0000E+00  0.0000E+00
     -3.148  0.0000E+00  0.0000E+00  0.0000E+00
     -3.077  0.0000E+00  0.0000E+00  0.0000E+00
     -3.006  0.0000E+00  0.0000E+00  0.0000E+00
     -2.935  0.0000E+00  0.0000E+00  0.0000E+00
     -2.864  0.1635E-16  0.2221E-17  0.1205E-19
     -2.793  0.4026E-13  0.5465E-14  0.3250E-16
     -2.722  0.3602E-10  0.4883E-11  0.3335E-13
     -2.650  0.1202E-07  0.1625E-08  0.1456E-10
     -2.579  0.1512E-05  0.2026E-06  0.2911E-08
     -2.508  0.7283E-04  0.9558E-05  0.2704E-06
     -2.437  0.1394E-02  0.1727E-03  0.1134E-04
     -2.366  0.1167E-01  0.1222E-02  0.2124E-03
     -2.295  0.5470E-01  0.3715E-02  0.1840E-02
     -2.224  0.1935E+00  0.7347E-02  0.7884E-02
     -2.153  0.4852E+00  0.1665E-01  0.1863E-01
     -2.082  0.7685E+00  0.3291E-01  0.3063E-01
     -2.011  0.8505E+00  0.4323E-01  0.4111E-01
     -1.940  0.6591E+00  0.3228E-01  0.4095E-01
     -1.869  0.4161E+00  0.1478E-01  0.3899E-01
     -1.798  0.2878E+00  0.7493E-02  0.3601E-01
     -1.726  0.1885E+00  0.6943E-02  0.2588E-01
     -1.655  0.1582E+00  0.1090E-01  0.2222E-01
     -1.584  0.1783E+00  0.1807E-01  0.2856E-01
     -1.513  0.1843E+00  0.2180E-01  0.3258E-01
     -1.442  0.1032E+00  0.1265E-01  0.1872E-01
     -1.371  0.2453E-01  0.3018E-02  0.4480E-02
     -1.300  0.6336E-02  0.6021E-03  0.1385E-02
     -1.229  0.3666E-01  0.2906E-02  0.8754E-02
     -1.158  0.1285E+00  0.1017E-01  0.3069E-01
     -1.087  0.1777E+00  0.1407E-01  0.4246E-01
     -1.016  0.9719E-01  0.7697E-02  0.2322E-01
     -0.945  0.2279E-01  0.1887E-02  0.5554E-02
     -0.874  0.1951E-01  0.2221E-02  0.5668E-02
     -0.802  0.6455E-01  0.7233E-02  0.1903E-01
     -0.731  0.9283E-01  0.9964E-02  0.2733E-01
     -0.660  0.5316E-01  0.6385E-02  0.1591E-01
     -0.589  0.1235E-01  0.1145E-01  0.6789E-02
     -0.518  0.3105E-02  0.4652E-01  0.1559E-01
     -0.447  0.5456E-02  0.9213E-01  0.3168E-01
     -0.376  0.6050E-02  0.8343E-01  0.3069E-01
     -0.305  0.7878E-02  0.4405E-01  0.2042E-01
     -0.234  0.3358E-01  0.3910E-01  0.2582E-01
     -0.163  0.8538E-01  0.9566E-01  0.5697E-01
     -0.092  0.1076E+00  0.2061E+00  0.1002E+00
     -0.021  0.7901E-01  0.2579E+00  0.1074E+00
      0.051  0.3552E-01  0.1831E+00  0.6650E-01
      0.122  0.9218E-02  0.8106E-01  0.2541E-01
      0.193  0.1379E-02  0.3505E-01  0.9656E-02
      0.264  0.7280E-03  0.4977E-01  0.1667E-01
      0.335  0.3813E-02  0.1203E+00  0.4515E-01
      0.406  0.1792E-01  0.2026E+00  0.8705E-01
      0.477  0.4857E-01  0.2587E+00  0.1293E+00
      0.548  0.6647E-01  0.2310E+00  0.1268E+00
      0.619  0.4557E-01  0.1567E+00  0.8729E-01
      0.690  0.1640E-01  0.1074E+00  0.5792E-01
      0.761  0.1075E-01  0.8117E-01  0.4904E-01
      0.832  0.2162E-01  0.9155E-01  0.6632E-01
      0.903  0.2202E-01  0.1047E+00  0.7844E-01
      0.975  0.1028E-01  0.1161E+00  0.8708E-01
      1.046  0.6416E-02  0.1652E+00  0.1294E+00
      1.117  0.7281E-02  0.1891E+00  0.1530E+00
      1.188  0.4403E-02  0.1098E+00  0.9018E-01
      1.259  0.1150E-02  0.2895E-01  0.2472E-01
      1.330  0.1264E-03  0.1418E-01  0.1693E-01
      1.401  0.5688E-05  0.3499E-01  0.4560E-01
      1.472  0.1017E-06  0.4672E-01  0.6270E-01
      1.543  0.7049E-09  0.3239E-01  0.4664E-01
      1.614  0.1858E-11  0.2204E-01  0.3649E-01
      1.685  0.1839E-14  0.1679E-01  0.3000E-01
      1.756  0.8474E-18  0.8392E-02  0.1705E-01
      1.827  0.1544E-14  0.4003E-02  0.1014E-01
      1.899  0.1933E-11  0.1699E-02  0.4658E-02
      1.970  0.9000E-09  0.3488E-03  0.9666E-03
      2.041  0.1567E-06  0.2862E-04  0.7941E-04
      2.112  0.1029E-04  0.9052E-06  0.2512E-05
      2.183  0.2571E-03  0.1088E-07  0.3019E-07
      2.254  0.2477E-02  0.4916E-10  0.1364E-09
      2.325  0.9313E-02  0.8295E-13  0.2302E-12
      2.396  0.1379E-01  0.5171E-16  0.1435E-15
      2.467  0.8062E-02  0.3858E-20  0.1322E-20
      2.538  0.1855E-02  0.8875E-21  0.3041E-21
      2.609  0.1662E-03  0.7951E-22  0.2724E-22
      2.680  0.5727E-05  0.2741E-23  0.9391E-24
      2.751  0.7505E-07  0.3592E-25  0.1231E-25
      2.823  0.3702E-09  0.1772E-27  0.6070E-28
      2.894  0.6820E-12  0.3264E-30  0.1118E-30
      2.965  0.5332E-15  0.8647E-17  0.1900E-17
      3.036  0.1394E-12  0.1815E-13  0.3990E-14
      3.107  0.1109E-09  0.1444E-10  0.3174E-11
      3.178  0.3286E-07  0.4278E-08  0.9417E-09
      3.249  0.3661E-05  0.4759E-06  0.1052E-06
      3.320  0.1553E-03  0.2011E-04  0.4510E-05
      3.391  0.2576E-02  0.3295E-03  0.7709E-04
      3.462  0.1780E-01  0.2201E-02  0.5740E-03
      3.533  0.5951E-01  0.6926E-02  0.2163E-02
      3.604  0.1185E+00  0.1337E-01  0.4561E-02
      3.675  0.1426E+00  0.1695E-01  0.5016E-02
      3.747  0.9260E-01  0.1192E-01  0.2742E-02
      3.818  0.6727E-01  0.8607E-02  0.1901E-02
      3.889  0.1059E+00  0.1303E-01  0.3176E-02
      3.960  0.9421E-01  0.1157E-01  0.2850E-02
      4.031  0.4425E-01  0.5896E-02  0.1438E-02
      4.102  0.9028E-01  0.1465E-01  0.3563E-02
      4.173  0.2846E+00  0.4617E-01  0.1159E-01
      4.244  0.4142E+00  0.6608E-01  0.1729E-01
      4.315  0.2714E+00  0.4236E-01  0.1194E-01
      4.386  0.9881E-01  0.1463E-01  0.6888E-02
      4.457  0.7409E-01  0.1284E-01  0.1110E-01
      4.528  0.9938E-01  0.2121E-01  0.1572E-01
      4.599  0.1704E+00  0.2925E-01  0.1903E-01
      4.671  0.3920E+00  0.6346E-01  0.3434E-01
      4.742  0.5894E+00  0.1075E+00  0.4914E-01
      4.813  0.5141E+00  0.1074E+00  0.4080E-01
      4.884  0.3771E+00  0.7913E-01  0.2797E-01
      4.955  0.3188E+00  0.4301E-01  0.2535E-01
      5.026  0.3600E+00  0.2285E-01  0.3443E-01
      5.097  0.3061E+00  0.3720E-01  0.3521E-01
      5.168  0.1438E+00  0.8048E-01  0.2804E-01
      5.239  0.1403E+00  0.1014E+00  0.2765E-01
      5.310  0.2073E+00  0.9857E-01  0.2941E-01
      5.381  0.1392E+00  0.1180E+00  0.3157E-01
      5.452  0.3955E-01  0.1029E+00  0.2464E-01
      5.524  0.5447E-02  0.4135E-01  0.9528E-02
      5.595  0.7413E-03  0.7168E-02  0.1587E-02
      5.666  0.4719E-02  0.7969E-02  0.9211E-03
      5.737  0.2961E-01  0.5307E-01  0.5476E-02
      5.808  0.7415E-01  0.1500E+00  0.1433E-01
      5.879  0.7480E-01  0.1732E+00  0.1490E-01
      5.950  0.3078E-01  0.8268E-01  0.6191E-02
      6.021  0.6257E-02  0.1720E-01  0.1277E-02
      6.092  0.1372E-01  0.1230E-01  0.3298E-02
      6.163  0.6638E-01  0.5948E-01  0.1624E-01
      6.234  0.1329E+00  0.1379E+00  0.3335E-01
      6.305  0.1122E+00  0.1638E+00  0.3229E-01
      6.376  0.5265E-01  0.1999E+00  0.3329E-01
      6.448  0.3183E-01  0.2771E+00  0.5243E-01
      6.519  0.1851E-01  0.2040E+00  0.4708E-01
      6.590  0.7022E-02  0.7562E-01  0.2094E-01
      6.661  0.1332E-01  0.8711E-01  0.1987E-01
      6.732  0.3142E-01  0.2110E+00  0.4630E-01
      6.803  0.3232E-01  0.2646E+00  0.5603E-01
      6.874  0.1777E-01  0.2536E+00  0.3672E-01
      6.945  0.1922E-01  0.3303E+00  0.2929E-01
      7.016  0.3200E-01  0.3230E+00  0.3136E-01
      7.087  0.3373E-01  0.2376E+00  0.2664E-01
      7.158  0.2932E-01  0.3075E+00  0.3283E-01
      7.229  0.2071E-01  0.4329E+00  0.5243E-01
      7.300  0.1146E-01  0.4138E+00  0.6509E-01
      7.372  0.8165E-02  0.2486E+00  0.5052E-01
      7.443  0.4440E-02  0.1231E+00  0.2580E-01
      7.514  0.2743E-02  0.1572E+00  0.2440E-01
      7.585  0.8140E-02  0.2085E+00  0.3618E-01
      7.656  0.1502E-01  0.1622E+00  0.3782E-01
      7.727  0.1387E-01  0.1091E+00  0.3027E-01
      7.798  0.1191E-01  0.1219E+00  0.3181E-01
      7.869  0.1010E-01  0.1408E+00  0.3646E-01
      7.940  0.5467E-02  0.1148E+00  0.3085E-01
      8.011  0.1936E-02  0.6227E-01  0.1762E-01
      8.082  0.3999E-03  0.3129E-01  0.1035E-01
      8.153  0.3774E-04  0.2388E-01  0.8750E-02
      8.224  0.1432E-05  0.1134E-01  0.4209E-02
      8.296  0.2092E-07  0.2220E-02  0.8246E-03
      8.367  0.1169E-09  0.1695E-03  0.6298E-04
      8.438  0.2891E-12  0.4973E-05  0.1847E-05
      8.509  0.7605E-15  0.5536E-07  0.2056E-07
      8.580  0.2042E-14  0.2335E-09  0.8627E-10
      8.651  0.1230E-11  0.1138E-08  0.1590E-09
      8.722  0.2853E-09  0.2532E-06  0.3535E-07
      8.793  0.2749E-07  0.2119E-04  0.2959E-05
      8.864  0.1304E-05  0.6738E-03  0.9408E-04
      8.935  0.3531E-04  0.8231E-02  0.1149E-02
      9.006  0.5026E-03  0.3912E-01  0.5462E-02
      9.077  0.3180E-02  0.7308E-01  0.1020E-01
      9.148  0.8238E-02  0.5392E-01  0.7529E-02
      9.220  0.8531E-02  0.1568E-01  0.2189E-02
      9.291  0.3499E-02  0.1780E-02  0.2486E-03
      9.362  0.5634E-03  0.7803E-04  0.1090E-04
      9.433  0.3518E-04  0.1304E-05  0.1820E-06
      9.504  0.8412E-06  0.8219E-08  0.1148E-08
      9.575  0.7617E-08  0.1939E-10  0.2707E-11
      9.646  0.2588E-10  0.1701E-13  0.2375E-14
      9.717  0.3276E-13  0.2748E-23  0.9656E-18
      9.788  0.4980E-15  0.5727E-20  0.2012E-14
      9.859  0.3709E-12  0.4409E-17  0.1549E-11
      9.930  0.1064E-09  0.1265E-14  0.4444E-09
     10.001  0.1145E-07  0.1362E-12  0.4784E-07
     10.072  0.4671E-06  0.5552E-11  0.1951E-05
     10.144  0.7296E-05  0.8673E-10  0.3047E-04
     10.215  0.4420E-04  0.5254E-09  0.1846E-03
     10.286  0.1050E-03  0.1248E-08  0.4386E-03
     10.357  0.9848E-04  0.1171E-08  0.4113E-03
     10.428  0.3644E-04  0.4331E-09  0.1522E-03
     10.499  0.5280E-05  0.6277E-10  0.2205E-04
     10.570  0.2963E-06  0.3522E-11  0.1237E-05
     10.641  0.6357E-08  0.7557E-13  0.2655E-07
     10.712  0.5159E-10  0.6133E-15  0.2155E-09
     10.783  0.1569E-12  0.1866E-17  0.6555E-12
     10.854  0.1778E-15  0.2114E-20  0.7427E-15
     10.925  0.6605E-19  0.7852E-24  0.2759E-18
     10.997  0.0000E+00  0.0000E+00  0.0000E+00
     11.068  0.0000E+00  0.0000E+00  0.0000E+00
     11.139  0.0000E+00  0.0000E+00  0.0000E+00
     11.210  0.0000E+00  0.0000E+00  0.0000E+00
     11.281  0.0000E+00  0.0000E+00  0.0000E+00
     11.28081405    -10.04255374  301      2.07660845      1.00000000
    -10.043  0.0000E+00  0.0000E+00  0.0000E+00
     -9.971  0.0000E+00  0.0000E+00  0.0000E+00
     -9.900  0.0000E+00  0.0000E+00  0.0000E+00
     -9.829  0.0000E+00  0.0000E+00  0.0000E+00
     -9.758  0.0000E+00  0.0000E+00  0.0000E+00
     -9.687  0.0000E+00  0.0000E+00  0.0000E+00
     -9.616  0.1638E-17  0.6268E-32  0.1306E-31
     -9.545  0.3541E-14  0.4823E-18  0.3737E-17
     -9.474  0.3144E-11  0.1052E-14  0.8158E-14
     -9.403  0.1048E-08  0.8793E-12  0.6824E-11
     -9.332  0.1338E-06  0.2771E-09  0.2154E-08
     -9.261  0.6790E-05  0.3359E-07  0.2620E-06
     -9.190  0.1466E-03  0.1622E-05  0.1274E-04
     -9.119  0.1497E-02  0.3297E-04  0.2622E-03
     -9.047  0.8069E-02  0.3052E-03  0.2476E-02
     -8.976  0.2449E-01  0.1435E-02  0.1203E-01
     -8.905  0.4463E-01  0.4298E-02  0.3814E-01
     -8.834  0.6090E-01  0.1147E-01  0.1099E+00
     -8.763  0.7913E-01  0.2818E-01  0.2883E+00
     -8.692  0.8465E-01  0.5475E-01  0.5887E+00
     -8.621  0.6276E-01  0.7071E-01  0.7825E+00
     -8.550  0.2805E-01  0.4903E-01  0.5505E+00
     -8.479  0.6329E-02  0.1602E-01  0.1815E+00
     -8.408  0.6366E-03  0.2319E-02  0.2644E-01
     -8.337  0.2683E-04  0.1426E-03  0.1634E-02
     -8.266  0.4598E-06  0.3599E-05  0.4138E-04
     -8.195  0.3158E-08  0.3611E-07  0.4162E-06
     -8.123  0.8617E-11  0.1406E-09  0.1622E-08
     -8.052  0.9268E-14  0.2085E-12  0.2408E-11
     -7.981  0.3400E-17  0.1148E-15  0.1327E-14
     -7.910  0.0000E+00  0.0000E+00  0.0000E+00
     -7.839  0.0000E+00  0.0000E+00  0.0000E+00
     -7.768  0.0000E+00  0.0000E+00  0.0000E+00
     -7.697  0.0000E+00  0.0000E+00  0.0000E+00
     -7.626  0.0000E+00  0.0000E+00  0.0000E+00
     -7.555  0.0000E+00  0.0000E+00  0.0000E+00
     -7.484  0.0000E+00  0.0000E+00  0.0000E+00
     -7.413  0.0000E+00  0.0000E+00  0.0000E+00
     -7.342  0.0000E+00  0.0000E+00  0.0000E+00
     -7.271  0.0000E+00  0.0000E+00  0.0000E+00
     -7.199  0.0000E+00  0.0000E+00  0.0000E+00
     -7.128  0.0000E+00  0.0000E+00  0.0000E+00
     -7.057  0.0000E+00  0.0000E+00  0.0000E+00
     -6.986  0.0000E+00  0.0000E+00  0.0000E+00
     -6.915  0.0000E+00  0.0000E+00  0.0000E+00
     -6.844  0.2970E-18  0.3298E-17  0.1002E-13
     -6.773  0.6508E-15  0.6060E-14  0.1819E-10
     -6.702  0.6573E-12  0.4303E-11  0.1279E-07
     -6.631  0.2506E-09  0.1208E-08  0.3557E-05
     -6.560  0.3658E-07  0.1370E-06  0.3989E-03
     -6.489  0.2094E-05  0.6428E-05  0.1850E-01
     -6.418  0.4900E-04  0.1281E-03  0.3640E+00
     -6.347  0.5021E-03  0.1108E-02  0.3121E+01
     -6.275  0.2491E-02  0.4222E-02  0.1208E+02
     -6.204  0.6715E-02  0.7167E-02  0.2305E+02
     -6.133  0.1098E-01  0.5514E-02  0.2744E+02
     -6.062  0.1348E-01  0.2247E-02  0.2517E+02
     -5.991  0.1676E-01  0.1237E-02  0.1509E+02
     -5.920  0.1869E-01  0.1671E-02  0.5550E+01
     -5.849  0.1987E-01  0.3386E-02  0.2802E+01
     -5.778  0.2442E-01  0.6970E-02  0.3540E+01
     -5.707  0.2380E-01  0.1044E-01  0.4307E+01
     -5.636  0.1476E-01  0.1071E-01  0.3728E+01
     -5.565  0.5255E-02  0.6692E-02  0.2044E+01
     -5.494  0.9650E-03  0.2177E-02  0.6113E+00
     -5.422  0.8409E-04  0.3283E-03  0.8803E-01
     -5.351  0.3296E-05  0.2144E-04  0.5621E-02
     -5.280  0.5592E-07  0.5815E-06  0.1509E-03
     -5.209  0.3964E-09  0.6356E-08  0.1644E-05
     -5.138  0.1135E-11  0.2740E-10  0.7080E-08
     -5.067  0.1274E-14  0.4572E-13  0.1182E-10
     -4.996  0.5015E-18  0.2954E-16  0.7630E-14
     -4.925  0.0000E+00  0.0000E+00  0.0000E+00
     -4.854  0.0000E+00  0.0000E+00  0.0000E+00
     -4.783  0.0000E+00  0.0000E+00  0.0000E+00
     -4.712  0.0000E+00  0.0000E+00  0.0000E+00
     -4.641  0.0000E+00  0.0000E+00  0.0000E+00
     -4.570  0.0000E+00  0.0000E+00  0.0000E+00
     -4.498  0.0000E+00  0.0000E+00  0.0000E+00
     -4.427  0.0000E+00  0.0000E+00  0.0000E+00
     -4.356  0.0000E+00  0.0000E+00  0.0000E+00
     -4.285  0.0000E+00  0.0000E+00  0.0000E+00
     -4.214  0.0000E+00  0.0000E+00  0.0000E+00
     -4.143  0.0000E+00  0.0000E+00  0.0000E+00
     -4.072  0.0000E+00  0.0000E+00  0.0000E+00
     -4.001  0.0000E+00  0.0000E+00  0.0000E+00
     -3.930  0.0000E+00  0.0000E+00  0.0000E+00
     -3.859  0.0000E+00  0.0000E+00  0.0000E+00
     -3.788  0.0000E+00  0.0000E+00  0.0000E+00
     -3.717  0.0000E+00  0.0000E+00  0.0000E+00