    8    8    1    1
  0.3631583E+02  0.6623111E-09  0.6623111E-09  0.6623111E-09  0.5000000E-15
  1.000000000000000E-004
  CAR 
 Name                                    
     72    210     48
 
  0.0000000E+00  0.0000000E+00  0.0000000E+00  0.1562500E-01
    1       -9.042554
    2       -8.601886
    3       -8.601886
    4       -8.601886
    5       -6.305866
    6       -6.305866
    7       -6.305866
    8       -6.172555
    9       -6.172555
   10       -6.172555
   11       -6.172555
   12       -6.172555
   13       -6.172555
   14       -6.170038
   15       -6.170038
   16       -6.170038
   17       -6.090910
   18       -6.090910
   19       -6.065406
   20       -6.065406
   21       -6.065406
   22       -5.669550
   23       -5.669550
   24       -5.669550
   25       -2.223382
   26       -2.223382
   27       -2.223382
   28        0.127126
   29        0.127126
   30        0.127126
   31        0.127126
   32        0.127126
   33        0.127126
   34        1.780076
   35        1.780076
   36        1.780076
   37        2.355025
   38        4.447679
   39        4.447679
   40        4.447679
   41        4.523939
   42        4.523939
   43        4.523939
   44        6.418614
   45        6.418614
   46        6.418614
   47        9.151535
   48       10.280810
 
  0.2500000E+00  0.0000000E+00  0.0000000E+00  0.9375000E-01
    1       -8.976127
    2       -8.663031
    3       -8.602529
    4       -8.602529
    5       -6.287905
    6       -6.287905
    7       -6.261489
    8       -6.193768
    9       -6.193768
   10       -6.191544
   11       -6.191544
   12       -6.190173
   13       -6.190173
   14       -6.162166
   15       -6.139695
   16       -6.139695
   17       -6.095877
   18       -6.087191
   19       -6.073621
   20       -6.073621
   21       -6.069142
   22       -5.823633
   23       -5.637188
   24       -5.637188
   25       -2.168205
   26       -2.168205
   27       -1.795636
   28       -0.090880
   29       -0.090880
   30       -0.021767
   31       -0.021767
   32        0.315745
   33        0.315745
   34        0.546745
   35        1.454577
   36        1.454577
   37        3.620075
   38        4.473939
   39        4.820227
   40        5.018596
   41        5.018596
   42        5.175927
   43        5.175927
   44        5.848024
   45        6.932132
   46        6.932132
   47        9.054034
   48        9.054231
 
  0.5000000E+00  0.0000000E+00  0.0000000E+00  0.4687500E-01
    1       -8.816988
    2       -8.816988
    3       -8.603196
    4       -8.603196
    5       -6.242447
    6       -6.242447
    7       -6.242447
    8       -6.242447
    9       -6.206052
   10       -6.206052
   11       -6.198099
   12       -6.198099
   13       -6.161622
   14       -6.161622
   15       -6.114524
   16       -6.114524
   17       -6.089083
   18       -6.089083
   19       -6.078168
   20       -6.078168
   21       -6.058040
   22       -6.058040
   23       -5.606323
   24       -5.606323
   25       -2.105099
   26       -2.105099
   27       -0.767939
   28       -0.767939
   29       -0.296786
   30       -0.296786
   31       -0.155783
   32       -0.155783
   33        0.824394
   34        0.824394
   35        0.824394
   36        0.824394
   37        4.593496
   38        4.593496
   39        5.167601
   40        5.167601
   41        5.803653
   42        5.803653
   43        6.477456
   44        6.477456
   45        7.260045
   46        7.260045
   47        8.100377
   48        8.100453
 
  0.2500000E+00  0.2500000E+00  0.0000000E+00  0.1875000E+00
    1       -8.919275
    2       -8.654212
    3       -8.654212
    4       -8.611487
    5       -6.286620
    6       -6.276048
    7       -6.210806
    8       -6.210409
    9       -6.210409
   10       -6.205728
   11       -6.205728
   12       -6.195325
   13       -6.192622
   14       -6.136882
   15       -6.136882
   16       -6.127001
   17       -6.096388
   18       -6.085861
   19       -6.079083
   20       -6.074625
   21       -6.074625
   22       -5.769107
   23       -5.769107
   24       -5.635531
   25       -2.125074
   26       -1.870813
   27       -1.870813
   28       -0.493647
   29       -0.171950
   30        0.006872
   31        0.006872
   32        0.339965
   33        0.339965
   34        0.412776
   35        1.102843
   36        1.614625
   37        3.880948
   38        4.696758
   39        5.026555
   40        5.026555
   41        5.386198
   42        5.386198
   43        6.210659
   44        6.261263
   45        6.721269
   46        7.174525
   47        7.795512
   48        7.795512
 
  0.5000000E+00  0.2500000E+00  0.0000000E+00  0.1875000E+00
    1       -8.784188
    2       -8.784188
    3       -8.632911
    4       -8.632911
    5       -6.253172
    6       -6.253172
    7       -6.243419
    8       -6.243419
    9       -6.220677
   10       -6.220677
   11       -6.209822
   12       -6.209822
   13       -6.124826
   14       -6.124826
   15       -6.109834
   16       -6.109834
   17       -6.088404
   18       -6.088404
   19       -6.082450
   20       -6.082450
   21       -6.004152
   22       -6.004152
   23       -5.675558
   24       -5.675558
   25       -2.017884
   26       -2.017884
   27       -1.132973
   28       -1.132973
   29       -0.443218
   30       -0.443218
   31        0.452883
   32        0.452883
   33        0.465217
   34        0.465217
   35        1.058707
   36        1.058707
   37        4.698899
   38        4.698899
   39        5.278428
   40        5.278428
   41        5.810676
   42        5.810676
   43        6.724410
   44        6.724410
   45        7.147316
   46        7.147316
   47        7.292738
   48        7.292738
 
  0.5000000E+00  0.5000000E+00  0.0000000E+00  0.4687500E-01
    1       -8.706980
    2       -8.706980
    3       -8.706980
    4       -8.706980
    5       -6.240449
    6       -6.240449
    7       -6.240449
    8       -6.240449
    9       -6.237967
   10       -6.237967
   11       -6.237967
   12       -6.237967
   13       -6.096753
   14       -6.096753
   15       -6.096753
   16       -6.096753
   17       -6.095300
   18       -6.095300
   19       -6.095300
   20       -6.095300
   21       -5.843970
   22       -5.843970
   23       -5.843970
   24       -5.843970
   25       -1.685836
   26       -1.685836
   27       -1.685836
   28       -1.685836
   29       -0.129394
   30       -0.129394
   31       -0.129394
   32       -0.129394
   33        1.069726
   34        1.069726
   35        1.069726
   36        1.069726
   37        4.778969
   38        4.778969
   39        4.778969
   40        4.778969
   41        6.971843
   42        6.971843
   43        6.971843
   44        6.971843
   45        7.334512
   46        7.334512
   47        7.334512
   48        7.334512
 
  0.2500000E+00  0.2500000E+00  0.2500000E+00  0.1250000E+00
    1       -8.872124
    2       -8.653981
    3       -8.653981
    4       -8.653981
    5       -6.276474
    6       -6.276474
    7       -6.225307
    8       -6.225307
    9       -6.225307
   10       -6.211403
   11       -6.211403
   12       -6.211403
   13       -6.126565
   14       -6.122107
   15       -6.122107
   16       -6.122107
   17       -6.090980
   18       -6.090980
   19       -6.077385
   20       -6.077385
   21       -6.077385
   22       -5.738248
   23       -5.738248
   24       -5.738248
   25       -2.006291
   26       -2.006291
   27       -2.006291
   28       -0.780653
   29       -0.075155
   30       -0.075155
   31       -0.075155
   32        0.562688
   33        0.562688
   34        0.562688
   35        1.404497
   36        1.404497
   37        3.653573
   38        4.710716
   39        4.710716
   40        4.710716
   41        6.213389
   42        6.213389
   43        6.213389
   44        6.928990
   45        6.928990
   46        7.026317
   47        7.907173
   48        7.907173
 
  0.5000000E+00  0.2500000E+00  0.2500000E+00  0.1875000E+00
    1       -8.760702
    2       -8.760702
    3       -8.653751
    4       -8.653751
    5       -6.256449
    6       -6.256449
    7       -6.247848
    8       -6.247848
    9       -6.232490
   10       -6.232490
   11       -6.222766
   12       -6.222766
   13       -6.107668
   14       -6.107668
   15       -6.102644
   16       -6.102644
   17       -6.085828
   18       -6.085828
   19       -6.081026
   20       -6.081026
   21       -5.949926
   22       -5.949926
   23       -5.707741
   24       -5.707741
   25       -2.133168
   26       -2.133168
   27       -1.551178
   28       -1.551178
   29       -0.071164
   30       -0.071164
   31        0.663387
   32        0.663387
   33        0.834011
   34        0.834011
   35        0.954746
   36        0.954746
   37        4.232863
   38        4.232863
   39        4.866997
   40        4.866997
   41        6.416095
   42        6.416095
   43        6.439846
   44        6.439846
   45        7.528645
   46        7.528645
   47        7.629886
   48        7.629935
 
  0.5000000E+00  0.5000000E+00  0.2500000E+00  0.9375000E-01
    1       -8.705896
    2       -8.705896
    3       -8.705896
    4       -8.705896
    5       -6.247331
    6       -6.247331
    7       -6.247331
    8       -6.247331
    9       -6.246476
   10       -6.246476
   11       -6.246476
   12       -6.246476
   13       -6.089779
   14       -6.089779
   15       -6.089779
   16       -6.089779
   17       -6.088587
   18       -6.088587
   19       -6.088587
   20       -6.088587
   21       -5.816633
   22       -5.816633
   23       -5.816633
   24       -5.816633
   25       -2.039161
   26       -2.039161
   27       -2.039161
   28       -2.039161
   29        0.479069
   30        0.479069
   31        0.479069
   32        0.479069
   33        1.083031
   34        1.083031
   35        1.083031
   36        1.083031
   37        4.179615
   38        4.179615
   39        4.179615
   40        4.179615
   41        6.775182
   42        6.775182
   43        6.775182
   44        6.775182
   45        7.236251
   46        7.236251
   47        7.236251
   48        7.236251
 
  0.5000000E+00  0.5000000E+00  0.5000000E+00  0.1562500E-01
    1       -8.704796
    2       -8.704796
    3       -8.704796
    4       -8.704796
    5       -6.253652
    6       -6.253652
    7       -6.253652
    8       -6.253652
    9       -6.253652
   10       -6.253652
   11       -6.253652
   12       -6.253652
   13       -6.083367
   14       -6.083367
   15       -6.083367
   16       -6.083367
   17       -6.083367
   18       -6.083367
   19       -6.083367
   20       -6.083367
   21       -5.788022
   22       -5.788022
   23       -5.788022
   24       -5.788022
   25       -2.289275
   26       -2.289275
   27       -2.289275
   28       -2.289275
   29        1.096543
   30        1.096543
   31        1.096543
   32        1.096543
   33        1.096543
   34        1.096543
   35        1.096543
   36        1.096543
   37        3.530732
   38        3.530732
   39        3.530732
   40        3.530732
   41        6.986343
   42        6.986343
   43        6.986343
   44        6.986343
   45        6.986343
   46        6.986343
   47        6.986343
   48        6.986343
 
  0.5000000E+00  0.5000000E+00  0.5000000E+00  0.0000000E+00
    1       -8.704796
    2       -8.704796
    3       -8.704796
    4       -8.704796
    5       -6.253652
    6       -6.253652
    7       -6.253652
    8       -6.253652
    9       -6.253652
   10       -6.253652
   11       -6.253652
   12       -6.253652
   13       -6.083367
   14       -6.083367
   15       -6.083367
   16       -6.083367
   17       -6.083367
   18       -6.083367
   19       -6.083367
   20       -6.083367
   21       -5.788022
   22       -5.788022
   23       -5.788022
   24       -5.788022
   25       -2.289275
   26       -2.289275
   27       -2.289275
   28       -2.289275
   29        1.096543
   30        1.096543
   31        1.096543
   32        1.096543
   33        1.096543
   34        1.096543
   35        1.096543
   36        1.096543
   37        3.530732
   38        3.530732
   39        3.530732
   40        3.530732
   41        6.986343
   42        6.986343
   43        6.986343
   44        6.986343
   45        6.986343
   46        6.986343
   47        6.986343
   48        6.986343
 
  0.4900000E+00  0.4900000E+00  0.4900000E+00  0.0000000E+00
    1       -8.705122
    2       -8.704697
    3       -8.704697
    4       -8.704697
    5       -6.253689
    6       -6.253689
    7       -6.253612
    8       -6.253612
    9       -6.253612
   10       -6.253568
   11       -6.253568
   12       -6.253568
   13       -6.083445
   14       -6.083445
   15       -6.083445
   16       -6.083392
   17       -6.083392
   18       -6.083359
   19       -6.083359
   20       -6.083359
   21       -5.788977
   22       -5.787934
   23       -5.787934
   24       -5.787934
   25       -2.288503
   26       -2.288503
   27       -2.288503
   28       -2.286322
   29        1.091788
   30        1.091788
   31        1.091788
   32        1.095343
   33        1.095343
   34        1.095343
   35        1.097104
   36        1.097104
   37        3.531144
   38        3.536338
   39        3.536338
   40        3.536338
   41        6.982709
   42        6.982709
   43        6.982709
   44        6.986575
   45        6.986575
   46        6.989031
   47        6.989031
   48        6.989031
 
  0.4800000E+00  0.4800000E+00  0.4800000E+00  0.0000000E+00
    1       -8.706095
    2       -8.704401
    3       -8.704401
    4       -8.704401
    5       -6.253799
    6       -6.253799
    7       -6.253490
    8       -6.253490
    9       -6.253490
   10       -6.253317
   11       -6.253317
   12       -6.253317
   13       -6.083678
   14       -6.083678
   15       -6.083678
   16       -6.083466
   17       -6.083466
   18       -6.083334
   19       -6.083334
   20       -6.083334
   21       -5.791827
   22       -5.787672
   23       -5.787672
   24       -5.787672
   25       -2.286193
   26       -2.286193
   27       -2.286193
   28       -2.277478
   29        1.077682
   30        1.077682
   31        1.077682
   32        1.091753
   33        1.091753
   34        1.091753
   35        1.098786
   36        1.098786
   37        3.532377
   38        3.552981
   39        3.552981
   40        3.552981
   41        6.971964
   42        6.971964
   43        6.971964
   44        6.987263
   45        6.987263
   46        6.997085
   47        6.997085
   48        6.997085
 
  0.4700000E+00  0.4700000E+00  0.4700000E+00  0.0000000E+00
    1       -8.707709
    2       -8.703909
    3       -8.703909
    4       -8.703909
    5       -6.253984
    6       -6.253984
    7       -6.253286
    8       -6.253286
    9       -6.253286
   10       -6.252899
   11       -6.252899
   12       -6.252899
   13       -6.084065
   14       -6.084065
   15       -6.084065
   16       -6.083587
   17       -6.083587
   18       -6.083293
   19       -6.083293
   20       -6.083293
   21       -5.796530
   22       -5.787235
   23       -5.787235
   24       -5.787235
   25       -2.282362
   26       -2.282362
   27       -2.282362
   28       -2.262790
   29        1.054685
   30        1.054685
   31        1.054685
   32        1.085800
   33        1.085800
   34        1.085800
   35        1.101584
   36        1.101584
   37        3.534420
   38        3.580158
   39        3.580158
   40        3.580158
   41        6.954571
   42        6.954571
   43        6.954571
   44        6.988388
   45        6.988388
   46        7.010477
   47        7.010477
   48        7.010477
 
  0.4600000E+00  0.4600000E+00  0.4600000E+00  0.0000000E+00
    1       -8.709955
    2       -8.703222
    3       -8.703222
    4       -8.703222
    5       -6.254242
    6       -6.254242
    7       -6.252998
    8       -6.252998
    9       -6.252998
   10       -6.252313
   11       -6.252313
   12       -6.252313
   13       -6.084602
   14       -6.084602
   15       -6.084602
   16       -6.083754
   17       -6.083754
   18       -6.083232
   19       -6.083232
   20       -6.083232
   21       -5.803021
   22       -5.786623
   23       -5.786623
   24       -5.786623
   25       -2.277036
   26       -2.277036
   27       -2.277036
   28       -2.242332
   29        1.023500
   30        1.023500
   31        1.023500
   32        1.077527
   33        1.077527
   34        1.077527
   35        1.105493
   36        1.105493
   37        3.537261
   38        3.617086
   39        3.617086
   40        3.617086
   41        6.931230
   42        6.931230
   43        6.931230
   44        6.989917
   45        6.989917
   46        7.029158
   47        7.029158
   48        7.029158
 
  0.4500000E+00  0.4500000E+00  0.4500000E+00  0.0000000E+00
    1       -8.712829
    2       -8.702343
    3       -8.702343
    4       -8.702343
    5       -6.254574
    6       -6.254574
    7       -6.252626
    8       -6.252626
    9       -6.252626
   10       -6.251563
   11       -6.251563
   12       -6.251563
   13       -6.085290
   14       -6.085290
   15       -6.085290
   16       -6.083966
   17       -6.083966
   18       -6.083156
   19       -6.083156
   20       -6.083156
   21       -5.811214
   22       -5.785838
   23       -5.785838
   24       -5.785838
   25       -2.270252
   26       -2.270252
   27       -2.270252
   28       -2.216212
   29        0.985007
   30        0.985007
   31        0.985007
   32        1.066998
   33        1.066998
   34        1.066998
   35        1.110502
   36        1.110502
   37        3.540877
   38        3.662780
   39        3.662780
   40        3.662780
   41        6.902824
   42        6.902824
   43        6.902824
   44        6.991801
   45        6.991801
   46        7.053066
   47        7.053066
   48        7.053066
 
  0.4400000E+00  0.4400000E+00  0.4400000E+00  0.0000000E+00
    1       -8.716320
    2       -8.701275
    3       -8.701275
    4       -8.701275
    5       -6.254982
    6       -6.254982
    7       -6.252168
    8       -6.252168
    9       -6.252168
   10       -6.250653
   11       -6.250653
   12       -6.250653
   13       -6.086124
   14       -6.086124
   15       -6.086124
   16       -6.084219
   17       -6.084219
   18       -6.083061
   19       -6.083061
   20       -6.083061
   21       -5.820998
   22       -5.784882
   23       -5.784882
   24       -5.784882
   25       -2.262058
   26       -2.262058
   27       -2.262058
   28       -2.184562
   29        0.940189
   30        0.940189
   31        0.940189
   32        1.054289
   33        1.054289
   34        1.054289
   35        1.116603
   36        1.116603
   37        3.545241
   38        3.716120
   39        3.716120
   40        3.716120
   41        6.870336
   42        6.870336
   43        6.870336
   44        6.993982
   45        6.993982
   46        7.082113
   47        7.082113
   48        7.082113
 
  0.4300000E+00  0.4300000E+00  0.4300000E+00  0.0000000E+00
    1       -8.720418
    2       -8.700022
    3       -8.700022
    4       -8.700022
    5       -6.255465
    6       -6.255465
    7       -6.251621
    8       -6.251621
    9       -6.251621
   10       -6.249587
   11       -6.249587
   12       -6.249587
   13       -6.087100
   14       -6.087100
   15       -6.087100
   16       -6.084509
   17       -6.084509
   18       -6.082948
   19       -6.082948
   20       -6.082948
   21       -5.832249
   22       -5.783757
   23       -5.783757
   24       -5.783757
   25       -2.252514
   26       -2.252514
   27       -2.252514
   28       -2.147534
   29        0.890052
   30        0.890052
   31        0.890052
   32        1.039488
   33        1.039488
   34        1.039488
   35        1.123779
   36        1.123779
   37        3.550317
   38        3.775916
   39        3.775916
   40        3.775916
   41        6.834783
   42        6.834783
   43        6.834783
   44        6.996384
   45        6.996384
   46        7.116202
   47        7.116202
   48        7.116202
 
  0.4200000E+00  0.4200000E+00  0.4200000E+00  0.0000000E+00
    1       -8.725109
    2       -8.698589
    3       -8.698589
    4       -8.698589
    5       -6.256024
    6       -6.256024
    7       -6.250986
    8       -6.250986
    9       -6.250986
   10       -6.248370
   11       -6.248370
   12       -6.248370
   13       -6.088215
   14       -6.088215
   15       -6.088215
   16       -6.084832
   17       -6.084832
   18       -6.082816
   19       -6.082816
   20       -6.082816
   21       -5.844826
   22       -5.782465
   23       -5.782465
   24       -5.782465
   25       -2.241695
   26       -2.241695
   27       -2.241695
   28       -2.105297
   29        0.835585
   30        0.835585
   31        0.835585
   32        1.022704
   33        1.022704
   34        1.022704
   35        1.132016
   36        1.132016
   37        3.556064
   38        3.840957
   39        3.840957
   40        3.840957
   41        6.797169
   42        6.797169
   43        6.797169
   44        6.998919
   45        6.998919
   46        7.155226
   47        7.155226
   48        7.155226
 
  0.4100000E+00  0.4100000E+00  0.4100000E+00  0.0000000E+00
    1       -8.730374
    2       -8.696981
    3       -8.696981
    4       -8.696981
    5       -6.256658
    6       -6.256658
    7       -6.250258
    8       -6.250258
    9       -6.250258
   10       -6.247004
   11       -6.247004
   12       -6.247004
   13       -6.089465
   14       -6.089465
   15       -6.089465
   16       -6.085183
   17       -6.085183
   18       -6.082666
   19       -6.082666
   20       -6.082666
   21       -5.858581
   22       -5.781008
   23       -5.781008
   24       -5.781008
   25       -2.229687
   26       -2.229687
   27       -2.229687
   28       -2.058037
   29        0.777721
   30        0.777721
   31        0.777721
   32        1.004051
   33        1.004051
   34        1.004051
   35        1.141294
   36        1.141294
   37        3.562429
   38        3.910037
   39        3.910037
   40        3.910037
   41        6.758456
   42        6.758456
   43        6.758456
   44        7.001492
   45        7.001492
   46        7.199057
   47        7.199057
   48        7.199057
 
  0.4000000E+00  0.4000000E+00  0.4000000E+00  0.0000000E+00
    1       -8.736202
    2       -8.695204
    3       -8.695204
    4       -8.695204
    5       -6.257369
    6       -6.257369
    7       -6.249436
    8       -6.249436
    9       -6.249436
   10       -6.245498
   11       -6.245498
   12       -6.245498
   13       -6.090845
   14       -6.090845
   15       -6.090845
   16       -6.085558
   17       -6.085558
   18       -6.082498
   19       -6.082498
   20       -6.082498
   21       -5.873361
   22       -5.779389
   23       -5.779389
   24       -5.779389
   25       -2.216588
   26       -2.216588
   27       -2.216588
   28       -2.005954
   29        0.717337
   30        0.717337
   31        0.717337
   32        0.983654
   33        0.983654
   34        0.983654
   35        1.151591
   36        1.151591
   37        3.569351
   38        3.981964
   39        3.981964
   40        3.981964
   41        6.719540
   42        6.719540
   43        6.719540
   44        7.003978
   45        7.003978
   46        7.247562
   47        7.247562
   48        7.247562
 
  0.3900000E+00  0.3900000E+00  0.3900000E+00  0.0000000E+00
    1       -8.742577
    2       -8.693263
    3       -8.693263
    4       -8.693263
    5       -6.258157
    6       -6.258157
    7       -6.248518
    8       -6.248518
    9       -6.248518
   10       -6.243855
   11       -6.243855
   12       -6.243855
   13       -6.092347
   14       -6.092347
   15       -6.092347
   16       -6.085951
   17       -6.085951
   18       -6.082310
   19       -6.082310
   20       -6.082310
   21       -5.889010
   22       -5.777609
   23       -5.777609
   24       -5.777609
   25       -2.202513
   26       -2.202513
   27       -2.202513
   28       -1.949249
   29        0.655230
   30        0.655230
   31        0.655230
   32        0.961645
   33        0.961645
   34        0.961645
   35        1.162881
   36        1.162881
   37        3.576760
   38        4.055565
   39        4.055565
   40        4.055565
   41        6.681238
   42        6.681238
   43        6.681238
   44        7.006254
   45        7.006254
   46        7.300600
   47        7.300600
   48        7.300600
 
  0.3800000E+00  0.3800000E+00  0.3800000E+00  0.0000000E+00
    1       -8.749473
    2       -8.691165
    3       -8.691165
    4       -8.691165
    5       -6.259021
    6       -6.259021
    7       -6.247501
    8       -6.247501
    9       -6.247501
   10       -6.242084
   11       -6.242084
   12       -6.242084
   13       -6.093965
   14       -6.093965
   15       -6.093965
   16       -6.086359
   17       -6.086359
   18       -6.082102
   19       -6.082102
   20       -6.082102
   21       -5.905377
   22       -5.775673
   23       -5.775673
   24       -5.775673
   25       -2.187594
   26       -2.187594
   27       -2.187594
   28       -1.888124
   29        0.592126
   30        0.592126
   31        0.592126
   32        0.938160
   33        0.938160
   34        0.938160
   35        1.175136
   36        1.175136
   37        3.584572
   38        4.129685
   39        4.129685
   40        4.129685
   41        6.644274
   42        6.644274
   43        6.644274
   44        7.008179
   45        7.008179
   46        7.358016
   47        7.358016
   48        7.358016
 
  0.3700000E+00  0.3700000E+00  0.3700000E+00  0.0000000E+00
    1       -8.756859
    2       -8.688919
    3       -8.688919
    4       -8.688919
    5       -6.259962
    6       -6.259962
    7       -6.246384
    8       -6.246384
    9       -6.246384
   10       -6.240193
   11       -6.240193
   12       -6.240193
   13       -6.095691
   14       -6.095691
   15       -6.095691
   16       -6.086778
   17       -6.086778
   18       -6.081874
   19       -6.081874
   20       -6.081874
   21       -5.922312
   22       -5.773584
   23       -5.773584
   24       -5.773584
   25       -2.171975
   26       -2.171975
   27       -2.171975
   28       -1.822786
   29        0.528685
   30        0.528685
   31        0.528685
   32        0.913341
   33        0.913341
   34        0.913341
   35        1.188328
   36        1.188328
   37        3.592690
   38        4.203181
   39        4.203181
   40        4.203181
   41        6.609264
   42        6.609264
   43        6.609264
   44        7.009602
   45        7.009602
   46        7.419655
   47        7.419655
   48        7.419655
 
  0.3600000E+00  0.3600000E+00  0.3600000E+00  0.0000000E+00
    1       -8.764708
    2       -8.686533
    3       -8.686533
    4       -8.686533
    5       -6.260978
    6       -6.260978
    7       -6.245167
    8       -6.245167
    9       -6.245167
   10       -6.238189
   11       -6.238189
   12       -6.238189
   13       -6.097521
   14       -6.097521
   15       -6.097521
   16       -6.087201
   17       -6.087201
   18       -6.081627
   19       -6.081627
   20       -6.081627
   21       -5.939669
   22       -5.771346
   23       -5.771346
   24       -5.771346
   25       -2.155823
   26       -2.155823
   27       -2.155823
   28       -1.753436
   29        0.465508
   30        0.465508
   31        0.465508
   32        0.887331
   33        0.887331
   34        0.887331
   35        1.202421
   36        1.202421
   37        3.601005
   38        4.274924
   39        4.274924
   40        4.274924
   41        6.576676
   42        6.576676
   43        6.576676
   44        7.010362
   45        7.010362
   46        7.485355
   47        7.485355
   48        7.485355
 
  0.3500000E+00  0.3500000E+00  0.3500000E+00  0.0000000E+00
    1       -8.772993
    2       -8.684016
    3       -8.684016
    4       -8.684016
    5       -6.262069
    6       -6.262069
    7       -6.243847
    8       -6.243847
    9       -6.243847
   10       -6.236080
   11       -6.236080
   12       -6.236080
   13       -6.099444
   14       -6.099444
   15       -6.099444
   16       -6.087624
   17       -6.087624
   18       -6.081357
   19       -6.081357
   20       -6.081357
   21       -5.957314
   22       -5.768961
   23       -5.768961
   24       -5.768961
   25       -2.139319
   26       -2.139319
   27       -2.139319
   28       -1.680279
   29        0.403150
   30        0.403150
   31        0.403150
   32        0.860271
   33        0.860271
   34        0.860271
   35        1.217381
   36        1.217381
   37        3.609390
   38        4.343803
   39        4.343803
   40        4.343803
   41        6.546799
   42        6.546799
   43        6.546799
   44        7.010290
   45        7.010290
   46        7.554949
   47        7.554949
   48        7.554949
 
  0.3400000E+00  0.3400000E+00  0.3400000E+00  0.0000000E+00
    1       -8.781680
    2       -8.681378
    3       -8.681378
    4       -8.681378
    5       -6.263234
    6       -6.263234
    7       -6.242424
    8       -6.242424
    9       -6.242424
   10       -6.233876
   11       -6.233876
   12       -6.233876
   13       -6.101454
   14       -6.101454
   15       -6.101454
   16       -6.088043
   17       -6.088043
   18       -6.081065
   19       -6.081065
   20       -6.081065
   21       -5.975122
   22       -5.766435
   23       -5.766435
   24       -5.766435
   25       -2.122663
   26       -2.122663
   27       -2.122663
   28       -1.603515
   29        0.342127