       N       E                     dE             d eps       ncg     rms          rms(c)
DAV:   1     0.443717806893E+03    0.44372E+03   -0.31014E+04 20184   0.126E+03
DAV:   2     0.505785512719E+01   -0.43866E+03   -0.42477E+03 22560   0.304E+02
DAV:   3    -0.198045144993E+02   -0.24862E+02   -0.24714E+02 23224   0.717E+01
DAV:   4    -0.201816932441E+02   -0.37718E+00   -0.37702E+00 24400   0.769E+00
DAV:   5    -0.201866613743E+02   -0.49681E-02   -0.49680E-02 23512   0.972E-01    0.978E+00
DAV:   6    -0.192903944285E+02    0.89627E+00   -0.19195E+00 21888   0.927E+00    0.811E+00
DAV:   7    -0.192402335407E+02    0.50161E-01   -0.66796E-01 22600   0.291E+00    0.317E+00
DAV:   8    -0.192422248890E+02   -0.19913E-02   -0.50687E-02 22432   0.165E+00    0.106E+00
DAV:   9    -0.192437322117E+02   -0.15073E-02   -0.67196E-03 22584   0.558E-01    0.240E-01
DAV:  10    -0.192436488124E+02    0.83399E-04   -0.90250E-04 22592   0.215E-01    0.130E-01
DAV:  11    -0.192438380361E+02   -0.18922E-03   -0.75626E-04 23320   0.137E-01    0.701E-02
DAV:  12    -0.192438237596E+02    0.14276E-04   -0.74442E-05 22984   0.570E-02    0.500E-02
DAV:  13    -0.192438252833E+02   -0.15237E-05   -0.22982E-06 20160   0.689E-03    0.574E-02
DAV:  14    -0.192438272214E+02   -0.19381E-05   -0.42602E-05 21688   0.274E-02    0.145E-02
DAV:  15    -0.192438261384E+02    0.10830E-05   -0.39655E-06 21200   0.914E-03    0.196E-02
DAV:  16    -0.192438262543E+02   -0.11586E-06   -0.19062E-07 12848   0.205E-03
   1 F= -.19243826E+02 E0= -.19243826E+02  d E =-.192438E+02
