 vasp.5.3.5 31Mar14 (build Mar 26 2015 15:03:36) complex                        
  
 executed on             LinuxIFC date 2015.10.28  14:45:10
 running on    8 total cores
 distrk:  each k-point on    8 cores,    1 groups
 distr:  one band on NCORES_PER_BAND=   1 cores,    8 groups


--------------------------------------------------------------------------------------------------------


 INCAR:
 POTCAR:    PAW_PBE Cd 06Sep2000                  
 POTCAR:    PAW_PBE Te 08Apr2002                  

 ----------------------------------------------------------------------------- 
|                                                                             |
|           W    W    AA    RRRRR   N    N  II  N    N   GGGG   !!!           |
|           W    W   A  A   R    R  NN   N  II  NN   N  G    G  !!!           |
|           W    W  A    A  R    R  N N  N  II  N N  N  G       !!!           |
|           W WW W  AAAAAA  RRRRR   N  N N  II  N  N N  G  GGG   !            |
|           WW  WW  A    A  R   R   N   NN  II  N   NN  G    G                |
|           W    W  A    A  R    R  N    N  II  N    N   GGGG   !!!           |
|                                                                             |
|      For optimal performance we recommend to set                            |
|        NCORE= 4 - approx SQRT( number of cores)                             |
|      NCORE specifies how many cores store one orbital (NPAR=cpu/NCORE).     |
|      This setting can  greatly improve the performance of VASP for DFT.     |
|      The default, NPAR=number of cores might be grossly inefficient         |
|      on modern multi-core architectures or massively parallel machines.     |
|      Do your own testing !!!!                                               |
|      Unfortunately you need to use the default for GW and RPA calculations. |
|      (for HF NCORE is supported but not extensively tested yet)             |
|                                                                             |
 ----------------------------------------------------------------------------- 

 POTCAR:    PAW_PBE Cd 06Sep2000                  
   VRHFIN =Cd : s2 d10                                                          
   LEXCH  = PE                                                                  
   EATOM  =  1293.1815 eV,   95.0462 Ry                                         
                                                                                
   TITEL  = PAW_PBE Cd 06Sep2000                                                
   LULTRA =        F    use ultrasoft PP ?                                      
   IUNSCR =        1    unscreen: 0-lin 1-nonlin 2-no                           
   RPACOR =    2.000    partial core radius                                     
   POMASS =  112.411; ZVAL   =   12.000    mass and valenz                      
   RCORE  =    2.300    outmost cutoff radius                                   
   RWIGS  =    2.980; RWIGS  =    1.577    wigner-seitz radius (au A)           
   ENMAX  =  274.336; ENMIN  =  205.752 eV                                      
   RCLOC  =    2.054    cutoff for local pot                                    
   LCOR   =        T    correct aug charges                                     
   LPAW   =        T    paw PP                                                  
   EAUG   =  456.106                                                            
   DEXC   =    0.000                                                            
   RMAX   =    2.358    core radius for proj-oper                               
   RAUG   =    1.300    factor for augmentation sphere                          
   RDEP   =    2.450    radius for radial grids                                 
   RDEPT  =    1.955    core radius for aug-charge                              
                                                                                
   Atomic configuration                                                         
   12 entries                                                                   
     n  l   j            E        occ.                                          
     1  0  0.50    -26519.7817   2.0000                                         
     2  0  0.50     -3936.9612   2.0000                                         
     2  1  1.50     -3532.2230   6.0000                                         
     3  0  0.50      -733.7908   2.0000                                         
     3  1  1.50      -601.0792   6.0000                                         
     3  2  2.50      -393.5307  10.0000                                         
     4  0  0.50      -105.8977   2.0000                                         
     4  1  1.50       -66.9488   6.0000                                         
     4  2  2.50       -11.7331  10.0000                                         
     5  0  0.50        -5.6592   2.0000                                         
     5  1  0.50        -1.3606   0.0000                                         
     4  3  2.50        -1.3606   0.0000                                         
   Description                                                                  
     l       E           TYP  RCUT    TYP  RCUT                                 
     2    -11.7331479     23  2.300                                             
     2    -13.0937305     23  2.300                                             
     0     -5.6591502     23  2.300                                             
     0     -1.5561433     23  2.300                                             
     1     -2.7211652     23  2.300                                             
     1      8.3548275     23  2.300                                             
  local pseudopotential read in
  partial core-charges read in
  partial kinetic energy density read in
  atomic valenz-charges read in
  non local Contribution for L=           2  read in
    real space projection operators read in
  non local Contribution for L=           2  read in
    real space projection operators read in
  non local Contribution for L=           0  read in
    real space projection operators read in
  non local Contribution for L=           0  read in
    real space projection operators read in
  non local Contribution for L=           1  read in
    real space projection operators read in
  non local Contribution for L=           1  read in
    real space projection operators read in
    PAW grid and wavefunctions read in
 
   number of l-projection  operators is LMAX  =           6
   number of lm-projection operators is LMMAX =          18
 
 POTCAR:    PAW_PBE Te 08Apr2002                  
   VRHFIN =Te: s2p4                                                             
   LEXCH  = PE                                                                  
   EATOM  =   223.2721 eV,   16.4100 Ry                                         
                                                                                
   TITEL  = PAW_PBE Te 08Apr2002                                                
   LULTRA =        F    use ultrasoft PP ?                                      
   IUNSCR =        1    unscreen: 0-lin 1-nonlin 2-no                           
   RPACOR =    2.200    partial core radius                                     
   POMASS =  127.600; ZVAL   =    6.000    mass and valenz                      
   RCORE  =    2.300    outmost cutoff radius                                   
   RWIGS  =    2.900; RWIGS  =    1.535    wigner-seitz radius (au A)           
   ENMAX  =  174.982; ENMIN  =  131.236 eV                                      
   ICORE  =        3    local potential                                         
   LCOR   =        T    correct aug charges                                     
   LPAW   =        T    paw PP                                                  
   EAUG   =  368.792                                                            
   DEXC   =    0.000                                                            
   RMAX   =    2.345    core radius for proj-oper                               
   RAUG   =    1.300    factor for augmentation sphere                          
   RDEP   =    2.397    radius for radial grids                                 
   RDEPT  =    2.174    core radius for aug-charge                              
                                                                                
   Atomic configuration                                                         
   13 entries                                                                   
     n  l   j            E        occ.                                          
     1  0  0.50    -31621.2075   2.0000                                         
     2  0  0.50     -4848.7941   2.0000                                         
     2  1  1.50     -4352.1960   6.0000                                         
     3  0  0.50      -964.9612   2.0000                                         
     3  1  1.50      -803.6179   6.0000                                         
     3  2  2.50      -559.8710  10.0000                                         
     4  0  0.50      -164.3522   2.0000                                         
     4  1  1.50      -114.3756   6.0000                                         
     4  2  2.50       -41.6483  10.0000                                         
     5  0  0.50       -15.1072   2.0000                                         
     5  1  0.50        -5.9526   4.0000                                         
     5  2  1.50        -5.4423   0.0000                                         
     4  3  2.50        -5.4423   0.0000                                         
   Description                                                                  
     l       E           TYP  RCUT    TYP  RCUT                                 
     0    -15.1072389     23  2.300                                             
     0    -16.4678215     23  2.300                                             
     1     -5.9526306     23  2.300                                             
     1     -2.4873968     23  2.300                                             
     2     -5.4423304     23  2.300                                             
     3     -1.3605826     23  2.300                                             
  local pseudopotential read in
  partial core-charges read in
  partial kinetic energy density read in
  atomic valenz-charges read in
  non local Contribution for L=           0  read in
    real space projection operators read in
  non local Contribution for L=           0  read in
    real space projection operators read in
  non local Contribution for L=           1  read in
    real space projection operators read in
  non local Contribution for L=           1  read in
    real space projection operators read in
  non local Contribution for L=           2  read in
    real space projection operators read in
    PAW grid and wavefunctions read in
 
   number of l-projection  operators is LMAX  =           5
   number of lm-projection operators is LMMAX =          13
 
  PAW_PBE Cd 06Sep2000                  :
 energy of atom  1       EATOM=-1293.1815
 kinetic energy error for atom=    0.0063 (will be added to EATOM!!)
  PAW_PBE Te 08Apr2002                  :
 energy of atom  2       EATOM= -223.2721
 kinetic energy error for atom=    0.0007 (will be added to EATOM!!)
 
 
 POSCAR: Cd1 Te1                                 
  positions in direct lattice
  velocities in cartesian coordinates
 exchange correlation table for  LEXCH =        8
   RHO(1)=    0.500       N(1)  =     2000
   RHO(2)=  100.500       N(2)  =     4000
 


--------------------------------------------------------------------------------------------------------


 ion  position               nearest neighbor table
   1  0.000  0.000  0.000-   5 2.87   6 2.87   7 2.87   8 2.87
   2  0.000  0.500  0.500-   5 2.87   6 2.87   7 2.87   8 2.87
   3  0.500  0.000  0.500-   5 2.87   6 2.87   7 2.87   8 2.87
   4  0.500  0.500  0.000-   5 2.87   6 2.87   7 2.87   8 2.87
   5  0.250  0.250  0.250-   1 2.87   2 2.87   3 2.87   4 2.87
   6  0.750  0.750  0.250-   1 2.87   2 2.87   3 2.87   4 2.87
   7  0.750  0.250  0.750-   1 2.87   2 2.87   3 2.87   4 2.87
   8  0.250  0.750  0.750-   1 2.87   2 2.87   3 2.87   4 2.87
 
  LATTYP: Found a simple cubic cell.
 ALAT       =     6.6231105740
  
  Lattice vectors:
  
 A1 = (   6.6231105740,   0.0000000000,   0.0000000000)
 A2 = (   0.0000000000,   6.6231105740,   0.0000000000)
 A3 = (   0.0000000000,   0.0000000000,   6.6231105740)


Analysis of symmetry for initial positions (statically):
=====================================================================
 Subroutine PRICEL returns following result:
 
  LATTYP: Found a face centered cubic cell.
 ALAT       =     6.6231105740
  
  Lattice vectors:
  
 A1 = (   3.3115552870,   3.3115552870,   0.0000000000)
 A2 = (   3.3115552870,   0.0000000000,  -3.3115552870)
 A3 = (   0.0000000000,   3.3115552870,  -3.3115552870)
 
   4 primitive cells build up your supercell.
 

 Routine SETGRP: Setting up the symmetry group for a 
 simple cubic supercell.


 Subroutine GETGRP returns: Found 24 space group operations
 (whereof 24 operations were pure point group operations)
 out of a pool of 48 trial point group operations.


The static configuration has the point symmetry T_d .


Analysis of symmetry for dynamics (positions and initial velocities):
=====================================================================
 Subroutine PRICEL returns following result:
 
  LATTYP: Found a face centered cubic cell.
 ALAT       =     6.6231105740
  
  Lattice vectors:
  
 A1 = (   3.3115552870,   3.3115552870,   0.0000000000)
 A2 = (   3.3115552870,   0.0000000000,  -3.3115552870)
 A3 = (   0.0000000000,   3.3115552870,  -3.3115552870)
 
   4 primitive cells build up your supercell.
 

 Routine SETGRP: Setting up the symmetry group for a 
 simple cubic supercell.


 Subroutine GETGRP returns: Found 24 space group operations
 (whereof 24 operations were pure point group operations)
 out of a pool of 48 trial point group operations.


The dynamic configuration has the point symmetry T_d .
 
 
 KPOINTS: Automatically generated mesh            
  k-points in reciprocal lattice
Space group operators:
 irot       det(A)        alpha          n_x          n_y          n_z        tau_x        tau_y        tau_z
    1     1.000000     0.000000     1.000000     0.000000     0.000000     0.000000     0.000000     0.000000
    2     1.000000   120.000000    -0.577350    -0.577350    -0.577350     0.000000     0.000000     0.000000
    3     1.000000   120.000000     0.577350     0.577350     0.577350     0.000000     0.000000     0.000000
    4    -1.000000    90.000000     0.000000     0.000000    -1.000000     0.000000     0.000000     0.000000
    5    -1.000000   180.000000     0.000000     0.707107     0.707107     0.000000     0.000000     0.000000
    6    -1.000000    90.000000     0.000000     1.000000     0.000000     0.000000     0.000000     0.000000
    7     1.000000   180.000000     0.000000     0.000000     1.000000     0.000000     0.000000     0.000000
    8     1.000000   120.000000    -0.577350     0.577350     0.577350     0.000000     0.000000     0.000000
    9     1.000000   120.000000    -0.577350     0.577350    -0.577350     0.000000     0.000000     0.000000
   10    -1.000000    90.000000     0.000000     0.000000     1.000000     0.000000     0.000000     0.000000
   11    -1.000000    90.000000    -1.000000     0.000000     0.000000     0.000000     0.000000     0.000000
   12    -1.000000   180.000000     0.707107     0.000000     0.707107     0.000000     0.000000     0.000000
   13     1.000000   120.000000     0.577350    -0.577350     0.577350     0.000000     0.000000     0.000000
   14     1.000000   120.000000    -0.577350    -0.577350     0.577350     0.000000     0.000000     0.000000
   15     1.000000   180.000000     1.000000     0.000000     0.000000     0.000000     0.000000     0.000000
   16    -1.000000    90.000000     0.000000    -1.000000     0.000000     0.000000     0.000000     0.000000
   17    -1.000000   180.000000     0.707107     0.707107     0.000000     0.000000     0.000000     0.000000
   18    -1.000000    90.000000     1.000000     0.000000     0.000000     0.000000     0.000000     0.000000
   19     1.000000   120.000000     0.577350    -0.577350    -0.577350     0.000000     0.000000     0.000000
   20     1.000000   180.000000     0.000000     1.000000     0.000000     0.000000     0.000000     0.000000
   21     1.000000   120.000000     0.577350     0.577350    -0.577350     0.000000     0.000000     0.000000
   22    -1.000000   180.000000     0.000000    -0.707107     0.707107     0.000000     0.000000     0.000000
   23    -1.000000   180.000000     0.707107    -0.707107     0.000000     0.000000     0.000000     0.000000
   24    -1.000000   180.000000     0.707107     0.000000    -0.707107     0.000000     0.000000     0.000000


--------------------------------------------------------------------------------------------------------




 Dimension of arrays:
   k-points           NKPTS =    210   k-points in BZ     NKDIM =    210   number of bands    NBANDS=     48
   number of dos      NEDOS =    301   number of ions     NIONS =      8
   non local maximal  LDIM  =      6   non local SUM 2l+1 LMDIM =     18
   total plane-waves  NPLWV =  46656
   max r-space proj   IRMAX =      1   max aug-charges    IRDMAX=   9539
   dimension x,y,z NGX =    36 NGY =   36 NGZ =   36
   dimension x,y,z NGXF=    72 NGYF=   72 NGZF=   72
   support grid    NGXF=    72 NGYF=   72 NGZF=   72
   ions per type =               4   4
 NGX,Y,Z   is equivalent  to a cutoff of   9.04,  9.04,  9.04 a.u.
 NGXF,Y,Z  is equivalent  to a cutoff of  18.07, 18.07, 18.07 a.u.


 I would recommend the setting:
   dimension x,y,z NGX =    36 NGY =   36 NGZ =   36
 SYSTEM =  Name                                    
 POSCAR =  Cd1 Te1                                 

 Startparameter for this run:
   NWRITE =      2    write-flag & timer
   PREC   = normal    normal or accurate (medium, high low for compatibility)
   ISTART =      0    job   : 0-new  1-cont  2-samecut
   ICHARG =      2    charge: 1-file 2-atom 10-const
   ISPIN  =      1    spin polarized calculation?
   LNONCOLLINEAR =      F non collinear calculations
   LSORBIT =      F    spin-orbit coupling
   INIWAV =      1    electr: 0-lowe 1-rand  2-diag
   LASPH  =      F    aspherical Exc in radial PAW
   METAGGA=      F    non-selfconsistent MetaGGA calc.

 Electronic Relaxation 1
   ENCUT  =  500.0 eV  36.75 Ry    6.06 a.u.  12.08 12.08 12.08*2*pi/ulx,y,z
   ENINI  =  500.0     initial cutoff
   ENAUG  =  456.1 eV  augmentation charge cutoff
   NELM   =     60;   NELMIN=  2; NELMDL=  0     # of ELM steps 
   EDIFF  = 0.1E-05   stopping-criterion for ELM
   LREAL  =      F    real-space projection
   NLSPLINE    = F    spline interpolate recip. space projectors
   LCOMPAT=      F    compatible to vasp.4.4
   GGA_COMPAT  = T    GGA compatible to vasp.4.4-vasp.4.6
   LMAXPAW     = -100 max onsite density
   LMAXMIX     =    2 max onsite mixed and CHGCAR
   VOSKOWN=      0    Vosko Wilk Nusair interpolation
   ROPT   =    0.00000   0.00000
 Ionic relaxation
   EDIFFG = -.5E-02   stopping-criterion for IOM
   NSW    =      1    number of steps for IOM
   NBLOCK =      1;   KBLOCK =      1    inner block; outer block 
   IBRION =      2    ionic relax: 0-MD 1-quasi-New 2-CG
   NFREE  =      1    steps in history (QN), initial steepest desc. (CG)
   ISIF   =      3    stress and relaxation
   IWAVPR =     11    prediction:  0-non 1-charg 2-wave 3-comb
   ISYM   =      2    0-nonsym 1-usesym 2-fastsym
   LCORR  =      T    Harris-Foulkes like correction to forces

   POTIM  = 0.5000    time-step for ionic-motion
   TEIN   =    0.0    initial temperature
   TEBEG  =    0.0;   TEEND  =   0.0 temperature during run
   SMASS  =  -3.00    Nose mass-parameter (am)
   estimated Nose-frequenzy (Omega)   =  0.10E-29 period in steps =****** mass=  -0.100E-26a.u.
   SCALEE = 1.0000    scale energy and forces
   NPACO  =    256;   APACO  = 16.0  distance and # of slots for P.C.
   PSTRESS=    0.0 pullay stress

  Mass of Ions in am
   POMASS = 112.41127.60
  Ionic Valenz
   ZVAL   =  12.00  6.00
  Atomic Wigner-Seitz radii
   RWIGS  =  -1.00 -1.00
  virtual crystal weights 
   VCA    =   1.00  1.00
   NELECT =      72.0000    total number of electrons
   NUPDOWN=      -1.0000    fix difference up-down

 DOS related values:
   EMIN   =  10.00;   EMAX   =-10.00  energy-range for DOS
   EFERMI =   0.00
   ISMEAR =     0;   SIGMA  =   0.10  broadening in eV -4-tet -1-fermi 0-gaus

 Electronic relaxation 2 (details)
   IALGO  =     38    algorithm
   LDIAG  =      T    sub-space diagonalisation (order eigenvalues)
   LSUBROT=      F    optimize rotation matrix (better conditioning)
   TURBO    =      0    0=normal 1=particle mesh
   IRESTART =      0    0=no restart 2=restart with 2 vectors
   NREBOOT  =      0    no. of reboots
   NMIN     =      0    reboot dimension
   EREF     =   0.00    reference energy to select bands
   IMIX   =      4    mixing-type and parameters
     AMIX     =   0.40;   BMIX     =  1.00
     AMIX_MAG =   1.60;   BMIX_MAG =  1.00
     AMIN     =   0.01
     WC   =   100.;   INIMIX=   1;  MIXPRE=   1;  MAXMIX= -45

 Intra band minimization:
   WEIMIN = 0.0010     energy-eigenvalue tresh-hold
   EBREAK =  0.52E-08  absolut break condition
   DEPER  =   0.30     relativ break condition  

   TIME   =   0.40     timestep for ELM

  volume/ion in A,a.u.               =      36.32       245.07
  Fermi-wavevector in a.u.,A,eV,Ry     =   1.028309  1.943222 14.387066  1.057419
  Thomas-Fermi vector in A             =   2.162299
 
 Write flags
   LWAVE  =      T    write WAVECAR
   LCHARG =      T    write CHGCAR
   LVTOT  =      F    write LOCPOT, total local potential
   LVHAR  =      F    write LOCPOT, Hartree potential only
   LELF   =      F    write electronic localiz. function (ELF)
   LORBIT =     10    0 simple, 1 ext, 2 COOP (PROOUT)


 Dipole corrections
   LMONO  =      F    monopole corrections only (constant potential shift)
   LDIPOL =      F    correct potential (dipole corrections)
   IDIPOL =      0    1-x, 2-y, 3-z, 4-all directions 
   EPSILON=  1.0000000 bulk dielectric constant

 Core level calculations are selected ICORELEVEL =  1
 Exchange correlation treatment:
   GGA     =    PE    GGA type
   LEXCH   =     8    internal setting for exchange type
   VOSKOWN=      0    Vosko Wilk Nusair interpolation
   LHFCALC =     F    Hartree Fock is set to
   LHFONE  =     F    Hartree Fock one center treatment
   AEXX    =    0.0000 exact exchange contribution

 Linear response parameters
   LEPSILON=     F    determine dielectric tensor
   LRPA    =     F    only Hartree local field effects (RPA)
   LNABLA  =     F    use nabla operator in PAW spheres
   LVEL    =     F    velocity operator in full k-point grid
   LINTERFAST=   F  fast interpolation
   KINTER  =     0    interpolate to denser k-point grid
   CSHIFT  =0.1000    complex shift for real part using Kramers Kronig
   OMEGAMAX=  -1.0    maximum frequency
   DEG_THRESHOLD= 0.2000000E-02 threshold for treating states as degnerate
   RTIME   =    0.100 relaxation time in fs

 Orbital magnetization related:
   ORBITALMAG=     F  switch on orbital magnetization
   LCHIMAG   =     F  perturbation theory with respect to B field
   DQ        =  0.001000  dq finite difference perturbation B field



--------------------------------------------------------------------------------------------------------


 conjugate gradient relaxation of ions
 charge density and potential will be updated during run
 non-spin polarized calculation
 Variant of blocked Davidson
 Davidson routine will perform the subspace rotation
 perform sub-space diagonalisation
    after iterative eigenvector-optimisation
 modified Broyden-mixing scheme, WC =      100.0
 initial mixing is a Kerker type mixing with AMIX =  0.4000 and BMIX =      1.0000
 Hartree-type preconditioning will be used
 using additional bands           12
 reciprocal scheme for non local part
 use partial core corrections
 calculate Harris-corrections to forces 
   (improved forces if not selfconsistent)
 use gradient corrections 
 use of overlap-Matrix (Vanderbilt PP)
 Gauss-broadening in eV      SIGMA  =   0.10


--------------------------------------------------------------------------------------------------------


  energy-cutoff  :      500.00
  volume of cell :      290.53
      direct lattice vectors                 reciprocal lattice vectors
     6.623110574  0.000000000  0.000000000     0.150986457  0.000000000  0.000000000
     0.000000000  6.623110574  0.000000000     0.000000000  0.150986457  0.000000000
     0.000000000  0.000000000  6.623110574     0.000000000  0.000000000  0.150986457

  length of vectors
     6.623110574  6.623110574  6.623110574     0.150986457  0.150986457  0.150986457


 
 k-points in units of 2pi/SCALE and weight: Automatically generated mesh            
   0.00000000  0.00000000  0.00000000       0.016
   0.03774661  0.00000000  0.00000000       0.094
   0.07549323  0.00000000  0.00000000       0.047
   0.03774661  0.03774661  0.00000000       0.188
   0.07549323  0.03774661  0.00000000       0.188
   0.07549323  0.07549323  0.00000000       0.047
   0.03774661  0.03774661  0.03774661       0.125
   0.07549323  0.03774661  0.03774661       0.188
   0.07549323  0.07549323  0.03774661       0.094
   0.07549323  0.07549323  0.07549323       0.016
   0.07549323  0.07549323  0.07549323       0.000
   0.07398337  0.07398337  0.07398337       0.000
   0.07247350  0.07247350  0.07247350       0.000
   0.07096363  0.07096363  0.07096363       0.000
   0.06945377  0.06945377  0.06945377       0.000
   0.06794390  0.06794390  0.06794390       0.000
   0.06643404  0.06643404  0.06643404       0.000
   0.06492418  0.06492418  0.06492418       0.000
   0.06341431  0.06341431  0.06341431       0.000
   0.06190445  0.06190445  0.06190445       0.000
   0.06039458  0.06039458  0.06039458       0.000
   0.05888472  0.05888472  0.05888472       0.000
   0.05737485  0.05737485  0.05737485       0.000
   0.05586499  0.05586499  0.05586499       0.000
   0.05435513  0.05435513  0.05435513       0.000
   0.05284526  0.05284526  0.05284526       0.000
   0.05133540  0.05133540  0.05133540       0.000
   0.04982553  0.04982553  0.04982553       0.000
   0.04831566  0.04831566  0.04831566       0.000
   0.04680580  0.04680580  0.04680580       0.000
   0.04529594  0.04529594  0.04529594       0.000
   0.04378607  0.04378607  0.04378607       0.000
   0.04227620  0.04227620  0.04227620       0.000
   0.04076634  0.04076634  0.04076634       0.000
   0.03925648  0.03925648  0.03925648       0.000
   0.03774661  0.03774661  0.03774661       0.000
   0.03623675  0.03623675  0.03623675       0.000
   0.03472688  0.03472688  0.03472688       0.000
   0.03321702  0.03321702  0.03321702       0.000
   0.03170716  0.03170716  0.03170716       0.000
   0.03019729  0.03019729  0.03019729       0.000
   0.02868743  0.02868743  0.02868743       0.000
   0.02717756  0.02717756  0.02717756       0.000
   0.02566770  0.02566770  0.02566770       0.000
   0.02415783  0.02415783  0.02415783       0.000
   0.02264797  0.02264797  0.02264797       0.000
   0.02113810  0.02113810  0.02113810       0.000
   0.01962823  0.01962823  0.01962823       0.000
   0.01811837  0.01811837  0.01811837       0.000
   0.01660851  0.01660851  0.01660851       0.000
   0.01509864  0.01509864  0.01509864       0.000
   0.01358878  0.01358878  0.01358878       0.000
   0.01207891  0.01207891  0.01207891       0.000
   0.01056905  0.01056905  0.01056905       0.000
   0.00905918  0.00905918  0.00905918       0.000
   0.00754932  0.00754932  0.00754932       0.000
   0.00603946  0.00603946  0.00603946       0.000
   0.00452959  0.00452959  0.00452959       0.000
   0.00301973  0.00301973  0.00301973       0.000
   0.00150986  0.00150986  0.00150986       0.000
   0.00000000  0.00000000  0.00000000       0.000
   0.00117958  0.00235916  0.00000000       0.000
   0.00235916  0.00471833  0.00000000       0.000
   0.00353875  0.00707749  0.00000000       0.000
   0.00471833  0.00943665  0.00000000       0.000
   0.00589791  0.01179582  0.00000000       0.000
   0.00707749  0.01415498  0.00000000       0.000
   0.00825707  0.01651414  0.00000000       0.000
   0.00943665  0.01887331  0.00000000       0.000
   0.01061624  0.02123247  0.00000000       0.000
   0.01179582  0.02359163  0.00000000       0.000
   0.01297540  0.02595080  0.00000000       0.000
   0.01415498  0.02830996  0.00000000       0.000
   0.01533456  0.03066912  0.00000000       0.000
   0.01651414  0.03302829  0.00000000       0.000
   0.01769373  0.03538745  0.00000000       0.000
   0.01887331  0.03774661  0.00000000       0.000
   0.02005289  0.04010578  0.00000000       0.000
   0.02123247  0.04246494  0.00000000       0.000
   0.02241205  0.04482410  0.00000000       0.000
   0.02359163  0.04718327  0.00000000       0.000
   0.02477122  0.04954243  0.00000000       0.000
   0.02595080  0.05190159  0.00000000       0.000
   0.02713038  0.05426076  0.00000000       0.000
   0.02830996  0.05661992  0.00000000       0.000
   0.02948954  0.05897908  0.00000000       0.000
   0.03066912  0.06133825  0.00000000       0.000
   0.03184871  0.06369741  0.00000000       0.000
   0.03302829  0.06605657  0.00000000       0.000
   0.03420787  0.06841573  0.00000000       0.000
   0.03538745  0.07077490  0.00000000       0.000
   0.03656703  0.07313407  0.00000000       0.000
   0.03774661  0.07549323  0.00000000       0.000
   0.03892620  0.07785239  0.00000000       0.000
   0.04010578  0.08021156  0.00000000       0.000
   0.04128536  0.08257072  0.00000000       0.000
   0.04246494  0.08492988  0.00000000       0.000
   0.04364452  0.08728905  0.00000000       0.000
   0.04482410  0.08964821  0.00000000       0.000
   0.04600369  0.09200737  0.00000000       0.000
   0.04718327  0.09436654  0.00000000       0.000
   0.04836285  0.09672570  0.00000000       0.000
   0.04954243  0.09908486  0.00000000       0.000
   0.05072201  0.10144403  0.00000000       0.000
   0.05190159  0.10380319  0.00000000       0.000
   0.05308118  0.10616235  0.00000000       0.000
   0.05426076  0.10852152  0.00000000       0.000
   0.05544034  0.11088068  0.00000000       0.000
   0.05661992  0.11323984  0.00000000       0.000
   0.05779950  0.11559901  0.00000000       0.000
   0.05897908  0.11795817  0.00000000       0.000
   0.06015867  0.12031733  0.00000000       0.000
   0.06133825  0.12267650  0.00000000       0.000
   0.06251783  0.12503566  0.00000000       0.000
   0.06369741  0.12739482  0.00000000       0.000
   0.06487699  0.12975399  0.00000000       0.000
   0.06605657  0.13211315  0.00000000       0.000
   0.06723616  0.13447231  0.00000000       0.000
   0.06841573  0.13683147  0.00000000       0.000
   0.06959532  0.13919064  0.00000000       0.000
   0.07077490  0.14154980  0.00000000       0.000
   0.07195448  0.14390897  0.00000000       0.000
   0.07313407  0.14626813  0.00000000       0.000
   0.07431365  0.14862729  0.00000000       0.000
   0.07549323  0.15098646  0.00000000       0.000
   0.07279704  0.15098646  0.00000000       0.000
   0.07010085  0.15098646  0.00000000       0.000
   0.06740467  0.15098646  0.00000000       0.000
   0.06470848  0.15098646  0.00000000       0.000
   0.06201229  0.15098646  0.00000000       0.000
   0.05931611  0.15098646  0.00000000       0.000
   0.05661992  0.15098646  0.00000000       0.000
   0.05392374  0.15098646  0.00000000       0.000
   0.05122755  0.15098646  0.00000000       0.000
   0.04853136  0.15098646  0.00000000       0.000
   0.04583517  0.15098646  0.00000000       0.000
   0.04313899  0.15098646  0.00000000       0.000
   0.04044280  0.15098646  0.00000000       0.000
   0.03774661  0.15098646  0.00000000       0.000
   0.03505042  0.15098646  0.00000000       0.000
   0.03235424  0.15098646  0.00000000       0.000
   0.02965805  0.15098646  0.00000000       0.000
   0.02696186  0.15098646  0.00000000       0.000
   0.02426568  0.15098646  0.00000000       0.000
   0.02156949  0.15098646  0.00000000       0.000
   0.01887330  0.15098646  0.00000000       0.000
   0.01617712  0.15098646  0.00000000       0.000
   0.01348093  0.15098646  0.00000000       0.000
   0.01078474  0.15098646  0.00000000       0.000
   0.00808856  0.15098646  0.00000000       0.000
   0.00539237  0.15098646  0.00000000       0.000
   0.00269618  0.15098646  0.00000000       0.000
   0.00000000  0.15098646  0.00000000       0.000
   0.00000000  0.14833757  0.00000000       0.000
   0.00000000  0.14568869  0.00000000       0.000
   0.00000000  0.14303980  0.00000000       0.000
   0.00000000  0.14039092  0.00000000       0.000
   0.00000000  0.13774203  0.00000000       0.000
   0.00000000  0.13509314  0.00000000       0.000
   0.00000000  0.13244426  0.00000000       0.000
   0.00000000  0.12979537  0.00000000       0.000
   0.00000000  0.12714649  0.00000000       0.000
   0.00000000  0.12449761  0.00000000       0.000
   0.00000000  0.12184872  0.00000000       0.000
   0.00000000  0.11919983  0.00000000       0.000
   0.00000000  0.11655095  0.00000000       0.000
   0.00000000  0.11390206  0.00000000       0.000
   0.00000000  0.11125318  0.00000000       0.000
   0.00000000  0.10860429  0.00000000       0.000
   0.00000000  0.10595541  0.00000000       0.000
   0.00000000  0.10330653  0.00000000       0.000
   0.00000000  0.10065763  0.00000000       0.000
   0.00000000  0.09800876  0.00000000       0.000
   0.00000000  0.09535986  0.00000000       0.000
   0.00000000  0.09271098  0.00000000       0.000
   0.00000000  0.09006210  0.00000000       0.000
   0.00000000  0.08741321  0.00000000       0.000
   0.00000000  0.08476433  0.00000000       0.000
   0.00000000  0.08211544  0.00000000       0.000
   0.00000000  0.07946656  0.00000000       0.000
   0.00000000  0.07681767  0.00000000       0.000
   0.00000000  0.07416878  0.00000000       0.000
   0.00000000  0.07151990  0.00000000       0.000
   0.00000000  0.06887101  0.00000000       0.000
   0.00000000  0.06622213  0.00000000       0.000
   0.00000000  0.06357324  0.00000000       0.000
   0.00000000  0.06092436  0.00000000       0.000
   0.00000000  0.05827548  0.00000000       0.000
   0.00000000  0.05562659  0.00000000       0.000
   0.00000000  0.05297770  0.00000000       0.000
   0.00000000  0.05032882  0.00000000       0.000
   0.00000000  0.04767993  0.00000000       0.000
   0.00000000  0.04503105  0.00000000       0.000
   0.00000000  0.04238216  0.00000000       0.000
   0.00000000  0.03973328  0.00000000       0.000
   0.00000000  0.03708440  0.00000000       0.000
   0.00000000  0.03443550  0.00000000       0.000
   0.00000000  0.03178662  0.00000000       0.000
   0.00000000  0.02913773  0.00000000       0.000
   0.00000000  0.02648885  0.00000000       0.000
   0.00000000  0.02383997  0.00000000       0.000
   0.00000000  0.02119108  0.00000000       0.000
   0.00000000  0.01854220  0.00000000       0.000
   0.00000000  0.01589331  0.00000000       0.000
   0.00000000  0.01324443  0.00000000       0.000
   0.00000000  0.01059554  0.00000000       0.000
   0.00000000  0.00794665  0.00000000       0.000
   0.00000000  0.00529777  0.00000000       0.000
   0.00000000  0.00264888  0.00000000       0.000
   0.00000000  0.00000000  0.00000000       0.000
 
 k-points in reciprocal lattice and weights: Automatically generated mesh            
   0.00000000  0.00000000  0.00000000       0.016
   0.25000000  0.00000000  0.00000000       0.094
   0.50000000  0.00000000  0.00000000       0.047
   0.25000000  0.25000000  0.00000000       0.188
   0.50000000  0.25000000  0.00000000       0.188
   0.50000000  0.50000000  0.00000000       0.047
   0.25000000  0.25000000  0.25000000       0.125
   0.50000000  0.25000000  0.25000000       0.188
   0.50000000  0.50000000  0.25000000       0.094
   0.50000000  0.50000000  0.50000000       0.016
   0.50000000  0.50000000  0.50000000       0.000
   0.49000001  0.49000001  0.49000001       0.000
   0.47999999  0.47999999  0.47999999       0.000
   0.47000000  0.47000000  0.47000000       0.000
   0.46000001  0.46000001  0.46000001       0.000
   0.44999999  0.44999999  0.44999999       0.000
   0.44000000  0.44000000  0.44000000       0.000
   0.43000001  0.43000001  0.43000001       0.000
   0.42000002  0.42000002  0.42000002       0.000
   0.41000000  0.41000000  0.41000000       0.000
   0.40000001  0.40000001  0.40000001       0.000
   0.38999999  0.38999999  0.38999999       0.000
   0.38000000  0.38000000  0.38000000       0.000
   0.37000000  0.37000000  0.37000000       0.000
   0.36000001  0.36000001  0.36000001       0.000
   0.34999999  0.34999999  0.34999999       0.000
   0.34000000  0.34000000  0.34000000       0.000
   0.32999998  0.32999998  0.32999998       0.000
   0.31999999  0.31999999  0.31999999       0.000
   0.31000000  0.31000000  0.31000000       0.000
   0.30000001  0.30000001  0.30000001       0.000
   0.28999999  0.28999999  0.28999999       0.000
   0.27999997  0.27999997  0.27999997       0.000
   0.26999998  0.26999998  0.26999998       0.000
   0.25999999  0.25999999  0.25999999       0.000
   0.25000000  0.25000000  0.25000000       0.000
   0.24000001  0.24000001  0.24000001       0.000
   0.22999999  0.22999999  0.22999999       0.000
   0.22000000  0.22000000  0.22000000       0.000
   0.21000001  0.21000001  0.21000001       0.000
   0.19999999  0.19999999  0.19999999       0.000
   0.19000000  0.19000000  0.19000000       0.000
   0.18000001  0.18000001  0.18000001       0.000
   0.16999999  0.16999999  0.16999999       0.000
   0.16000000  0.16000000  0.16000000       0.000
   0.14999998  0.14999998  0.14999998       0.000
   0.13999999  0.13999999  0.13999999       0.000
   0.12999997  0.12999997  0.12999997       0.000
   0.12000000  0.12000000  0.12000000       0.000
   0.11000001  0.11000001  0.11000001       0.000
   0.09999999  0.09999999  0.09999999       0.000
   0.09000000  0.09000000  0.09000000       0.000
   0.07999998  0.07999998  0.07999998       0.000
   0.06999999  0.06999999  0.06999999       0.000
   0.05999997  0.05999997  0.05999997       0.000
   0.04999998  0.04999998  0.04999998       0.000
   0.03999999  0.03999999  0.03999999       0.000
   0.02999997  0.02999997  0.02999997       0.000
   0.01999998  0.01999998  0.01999998       0.000
   0.00999999  0.00999999  0.00999999       0.000
   0.00000000  0.00000000  0.00000000       0.000
   0.00781250  0.01562500  0.00000000       0.000
   0.01562500  0.03125000  0.00000000       0.000
   0.02343750  0.04687500  0.00000000       0.000
   0.03125000  0.06250000  0.00000000       0.000
   0.03906250  0.07812500  0.00000000       0.000
   0.04687500  0.09375000  0.00000000       0.000
   0.05468750  0.10937500  0.00000000       0.000
   0.06250000  0.12500000  0.00000000       0.000
   0.07031250  0.14062500  0.00000000       0.000
   0.07812500  0.15625000  0.00000000       0.000
   0.08593750  0.17187500  0.00000000       0.000
   0.09375000  0.18750000  0.00000000       0.000
   0.10156250  0.20312500  0.00000000       0.000
   0.10937500  0.21875000  0.00000000       0.000
   0.11718750  0.23437500  0.00000000       0.000
   0.12500000  0.25000000  0.00000000       0.000
   0.13281250  0.26562500  0.00000000       0.000
   0.14062500  0.28125000  0.00000000       0.000
   0.14843750  0.29687500  0.00000000       0.000
   0.15625000  0.31250000  0.00000000       0.000
   0.16406250  0.32812500  0.00000000       0.000
   0.17187500  0.34375000  0.00000000       0.000
   0.17968750  0.35937500  0.00000000       0.000
   0.18750000  0.37500000  0.00000000       0.000
   0.19531250  0.39062500  0.00000000       0.000
   0.20312500  0.40625000  0.00000000       0.000
   0.21093750  0.42187500  0.00000000       0.000
   0.21875000  0.43750000  0.00000000       0.000
   0.22656249  0.45312497  0.00000000       0.000
   0.23437500  0.46875000  0.00000000       0.000
   0.24218750  0.48437500  0.00000000       0.000
   0.25000000  0.50000000  0.00000000       0.000
   0.25781250  0.51562500  0.00000000       0.000
   0.26562500  0.53125000  0.00000000       0.000
   0.27343750  0.54687500  0.00000000       0.000
   0.28125000  0.56250000  0.00000000       0.000
   0.28906250  0.57812500  0.00000000       0.000
   0.29687500  0.59375000  0.00000000       0.000
   0.30468750  0.60937500  0.00000000       0.000
   0.31250000  0.62500000  0.00000000       0.000
   0.32031250  0.64062500  0.00000000       0.000
   0.32812500  0.65625000  0.00000000       0.000
   0.33593750  0.67187500  0.00000000       0.000
   0.34375000  0.68750000  0.00000000       0.000
   0.35156250  0.70312500  0.00000000       0.000
   0.35937500  0.71875000  0.00000000       0.000
   0.36718750  0.73437500  0.00000000       0.000
   0.37500000  0.75000000  0.00000000       0.000
   0.38281250  0.76562500  0.00000000       0.000
   0.39062500  0.78125000  0.00000000       0.000
   0.39843750  0.79687500  0.00000000       0.000
   0.40625000  0.81250000  0.00000000       0.000
   0.41406250  0.82812500  0.00000000       0.000
   0.42187500  0.84375000  0.00000000       0.000
   0.42968750  0.85937500  0.00000000       0.000
   0.43750000  0.87500000  0.00000000       0.000
   0.44531250  0.89062500  0.00000000       0.000
   0.45312497  0.90624994  0.00000000       0.000
   0.46093750  0.92187500  0.00000000       0.000
   0.46875000  0.93750000  0.00000000       0.000
   0.47656250  0.95312500  0.00000000       0.000
   0.48437500  0.96875000  0.00000000       0.000
   0.49218750  0.98437500  0.00000000       0.000
   0.50000000  1.00000000  0.00000000       0.000
   0.48214287  1.00000000  0.00000000       0.000
   0.46428570  1.00000000  0.00000000       0.000
   0.44642857  1.00000000  0.00000000       0.000
   0.42857143  1.00000000  0.00000000       0.000
   0.41071427  1.00000000  0.00000000       0.000
   0.39285713  1.00000000  0.00000000       0.000
   0.37500000  1.00000000  0.00000000       0.000
   0.35714287  1.00000000  0.00000000       0.000
   0.33928570  1.00000000  0.00000000       0.000
   0.32142857  1.00000000  0.00000000       0.000
   0.30357140  1.00000000  0.00000000       0.000
   0.28571427  1.00000000  0.00000000       0.000
   0.26785713  1.00000000  0.00000000       0.000
   0.25000000  1.00000000  0.00000000       0.000
   0.23214284  1.00000000  0.00000000       0.000
   0.21428570  1.00000000  0.00000000       0.000
   0.19642857  1.00000000  0.00000000       0.000
   0.17857140  1.00000000  0.00000000       0.000
   0.16071427  1.00000000  0.00000000       0.000
   0.14285713  1.00000000  0.00000000       0.000
   0.12499997  1.00000000  0.00000000       0.000
   0.10714284  1.00000000  0.00000000       0.000
   0.08928570  1.00000000  0.00000000       0.000
   0.07142854  1.00000000  0.00000000       0.000
   0.05357140  1.00000000  0.00000000       0.000
   0.03571427  1.00000000  0.00000000       0.000
   0.01785713  1.00000000  0.00000000       0.000
   0.00000000  1.00000000  0.00000000       0.000
   0.00000000  0.98245615  0.00000000       0.000
   0.00000000  0.96491230  0.00000000       0.000
   0.00000000  0.94736844  0.00000000       0.000
   0.00000000  0.92982459  0.00000000       0.000
   0.00000000  0.91228068  0.00000000       0.000
   0.00000000  0.89473683  0.00000000       0.000
   0.00000000  0.87719297  0.00000000       0.000
   0.00000000  0.85964912  0.00000000       0.000
   0.00000000  0.84210527  0.00000000       0.000
   0.00000000  0.82456142  0.00000000       0.000
   0.00000000  0.80701756  0.00000000       0.000
   0.00000000  0.78947365  0.00000000       0.000
   0.00000000  0.77192986  0.00000000       0.000
   0.00000000  0.75438595  0.00000000       0.000
   0.00000000  0.73684210  0.00000000       0.000
   0.00000000  0.71929824  0.00000000       0.000
   0.00000000  0.70175439  0.00000000       0.000
   0.00000000  0.68421054  0.00000000       0.000
   0.00000000  0.66666663  0.00000000       0.000
   0.00000000  0.64912283  0.00000000       0.000
   0.00000000  0.63157892  0.00000000       0.000
   0.00000000  0.61403507  0.00000000       0.000
   0.00000000  0.59649122  0.00000000       0.000
   0.00000000  0.57894737  0.00000000       0.000
   0.00000000  0.56140351  0.00000000       0.000
   0.00000000  0.54385966  0.00000000       0.000
   0.00000000  0.52631581  0.00000000       0.000
   0.00000000  0.50877190  0.00000000       0.000
   0.00000000  0.49122804  0.00000000       0.000
   0.00000000  0.47368419  0.00000000       0.000
   0.00000000  0.45614034  0.00000000       0.000
   0.00000000  0.43859649  0.00000000       0.000
   0.00000000  0.42105263  0.00000000       0.000
   0.00000000  0.40350878  0.00000000       0.000
   0.00000000  0.38596493  0.00000000       0.000
   0.00000000  0.36842108  0.00000000       0.000
   0.00000000  0.35087717  0.00000000       0.000
   0.00000000  0.33333331  0.00000000       0.000
   0.00000000  0.31578946  0.00000000       0.000
   0.00000000  0.29824561  0.00000000       0.000
   0.00000000  0.28070176  0.00000000       0.000
   0.00000000  0.26315790  0.00000000       0.000
   0.00000000  0.24561405  0.00000000       0.000
   0.00000000  0.22807014  0.00000000       0.000
   0.00000000  0.21052629  0.00000000       0.000
   0.00000000  0.19298244  0.00000000       0.000
   0.00000000  0.17543858  0.00000000       0.000
   0.00000000  0.15789473  0.00000000       0.000
   0.00000000  0.14035088  0.00000000       0.000
   0.00000000  0.12280703  0.00000000       0.000
   0.00000000  0.10526317  0.00000000       0.000
   0.00000000  0.08771932  0.00000000       0.000
   0.00000000  0.07017541  0.00000000       0.000
   0.00000000  0.05263156  0.00000000       0.000
   0.00000000  0.03508770  0.00000000       0.000
   0.00000000  0.01754385  0.00000000       0.000
   0.00000000  0.00000000  0.00000000       0.000
 
 position of ions in fractional coordinates (direct lattice) 
   0.00000000  0.00000000  0.00000000
   0.00000000  0.50000000  0.50000000
   0.50000000  0.00000000  0.50000000
   0.50000000  0.50000000  0.00000000
   0.25000000  0.25000000  0.25000000
   0.75000000  0.75000000  0.25000000
   0.75000000  0.25000000  0.75000000
   0.25000000  0.75000000  0.75000000
 
 position of ions in cartesian coordinates  (Angst):
   0.00000000  0.00000000  0.00000000
   0.00000000  3.31155529  3.31155529
   3.31155529  0.00000000  3.31155529
   3.31155529  3.31155529  0.00000000
   1.65577764  1.65577764  1.65577764
   4.96733293  4.96733293  1.65577764
   4.96733293  1.65577764  4.96733293
   1.65577764  4.96733293  4.96733293
 


--------------------------------------------------------------------------------------------------------


 k-point  1 :   0.0000 0.0000 0.0000  plane waves:    7249
 k-point  2 :   0.2500 0.0000 0.0000  plane waves:    7360
 k-point  3 :   0.5000 0.0000 0.0000  plane waves:    7368
 k-point  4 :   0.2500 0.2500 0.0000  plane waves:    7395
 k-point  5 :   0.5000 0.2500 0.0000  plane waves:    7398
 k-point  6 :   0.5000 0.5000 0.0000  plane waves:    7380
 k-point  7 :   0.2500 0.2500 0.2500  plane waves:    7394
 k-point  8 :   0.5000 0.2500 0.2500  plane waves:    7354
 k-point  9 :   0.5000 0.5000 0.2500  plane waves:    7384
 k-point 10 :   0.5000 0.5000 0.5000  plane waves:    7400
 k-point 11 :   0.5000 0.5000 0.5000  plane waves:    7400
 k-point 12 :   0.4900 0.4900 0.4900  plane waves:    7400
 k-point 13 :   0.4800 0.4800 0.4800  plane waves:    7400
 k-point 14 :   0.4700 0.4700 0.4700  plane waves:    7415
 k-point 15 :   0.4600 0.4600 0.4600  plane waves:    7409
 k-point 16 :   0.4500 0.4500 0.4500  plane waves:    7403
 k-point 17 :   0.4400 0.4400 0.4400  plane waves:    7397
 k-point 18 :   0.4300 0.4300 0.4300  plane waves:    7397
 k-point 19 :   0.4200 0.4200 0.4200  plane waves:    7400
 k-point 20 :   0.4100 0.4100 0.4100  plane waves:    7379
 k-point 21 :   0.4000 0.4000 0.4000  plane waves:    7385
 k-point 22 :   0.3900 0.3900 0.3900  plane waves:    7379
 k-point 23 :   0.3800 0.3800 0.3800  plane waves:    7379
 k-point 24 :   0.3700 0.3700 0.3700  plane waves:    7379
 k-point 25 :   0.3600 0.3600 0.3600  plane waves:    7373
 k-point 26 :   0.3500 0.3500 0.3500  plane waves:    7373
 k-point 27 :   0.3400 0.3400 0.3400  plane waves:    7358
 k-point 28 :   0.3300 0.3300 0.3300  plane waves:    7346
 k-point 29 :   0.3200 0.3200 0.3200  plane waves:    7355
 k-point 30 :   0.3100 0.3100 0.3100  plane waves:    7361
 k-point 31 :   0.3000 0.3000 0.3000  plane waves:    7349
 k-point 32 :   0.2900 0.2900 0.2900  plane waves:    7361
 k-point 33 :   0.2800 0.2800 0.2800  plane waves:    7388
 k-point 34 :   0.2700 0.2700 0.2700  plane waves:    7388
 k-point 35 :   0.2600 0.2600 0.2600  plane waves:    7370
 k-point 36 :   0.2500 0.2500 0.2500  plane waves:    7394
 k-point 37 :   0.2400 0.2400 0.2400  plane waves:    7379
 k-point 38 :   0.2300 0.2300 0.2300  plane waves:    7379
 k-point 39 :   0.2200 0.2200 0.2200  plane waves:    7382
 k-point 40 :   0.2100 0.2100 0.2100  plane waves:    7388
 k-point 41 :   0.2000 0.2000 0.2000  plane waves:    7388
 k-point 42 :   0.1900 0.1900 0.1900  plane waves:    7385
 k-point 43 :   0.1800 0.1800 0.1800  plane waves:    7385
 k-point 44 :   0.1700 0.1700 0.1700  plane waves:    7385
 k-point 45 :   0.1600 0.1600 0.1600  plane waves:    7385
 k-point 46 :   0.1500 0.1500 0.1500  plane waves:    7379
 k-point 47 :   0.1400 0.1400 0.1400  plane waves:    7373
 k-point 48 :   0.1300 0.1300 0.1300  plane waves:    7373
 k-point 49 :   0.1200 0.1200 0.1200  plane waves:    7367
 k-point 50 :   0.1100 0.1100 0.1100  plane waves:    7349
 k-point 51 :   0.1000 0.1000 0.1000  plane waves:    7334
 k-point 52 :   0.0900 0.0900 0.0900  plane waves:    7334
 k-point 53 :   0.0800 0.0800 0.0800  plane waves:    7319
 k-point 54 :   0.0700 0.0700 0.0700  plane waves:    7313
 k-point 55 :   0.0600 0.0600 0.0600  plane waves:    7313
 k-point 56 :   0.0500 0.0500 0.0500  plane waves:    7319
 k-point 57 :   0.0400 0.0400 0.0400  plane waves:    7310
 k-point 58 :   0.0300 0.0300 0.0300  plane waves:    7316
 k-point 59 :   0.0200 0.0200 0.0200  plane waves:    7321
 k-point 60 :   0.0100 0.0100 0.0100  plane waves:    7309
 k-point 61 :   0.0000 0.0000 0.0000  plane waves:    7249
 k-point 62 :   0.0078 0.0156 0.0000  plane waves:    7298
 k-point 63 :   0.0156 0.0312 0.0000  plane waves:    7324
 k-point 64 :   0.0234 0.0469 0.0000  plane waves:    7320
 k-point 65 :   0.0312 0.0625 0.0000  plane waves:    7317
 k-point 66 :   0.0391 0.0781 0.0000  plane waves:    7316
 k-point 67 :   0.0469 0.0938 0.0000  plane waves:    7313
 k-point 68 :   0.0547 0.1094 0.0000  plane waves:    7316
 k-point 69 :   0.0625 0.1250 0.0000  plane waves:    7318
 k-point 70 :   0.0703 0.1406 0.0000  plane waves:    7332
 k-point 71 :   0.0781 0.1562 0.0000  plane waves:    7339
 k-point 72 :   0.0859 0.1719 0.0000  plane waves:    7347
 k-point 73 :   0.0938 0.1875 0.0000  plane waves:    7355
 k-point 74 :   0.1016 0.2031 0.0000  plane waves:    7353
 k-point 75 :   0.1094 0.2188 0.0000  plane waves:    7357
 k-point 76 :   0.1172 0.2344 0.0000  plane waves:    7357
 k-point 77 :   0.1250 0.2500 0.0000  plane waves:    7355
 k-point 78 :   0.1328 0.2656 0.0000  plane waves:    7354
 k-point 79 :   0.1406 0.2812 0.0000  plane waves:    7357
 k-point 80 :   0.1484 0.2969 0.0000  plane waves:    7369
 k-point 81 :   0.1562 0.3125 0.0000  plane waves:    7377
 k-point 82 :   0.1641 0.3281 0.0000  plane waves:    7371
 k-point 83 :   0.1719 0.3438 0.0000  plane waves:    7376
 k-point 84 :   0.1797 0.3594 0.0000  plane waves:    7379
 k-point 85 :   0.1875 0.3750 0.0000  plane waves:    7384
 k-point 86 :   0.1953 0.3906 0.0000  plane waves:    7382
 k-point 87 :   0.2031 0.4062 0.0000  plane waves:    7378
 k-point 88 :   0.2109 0.4219 0.0000  plane waves:    7390
 k-point 89 :   0.2188 0.4375 0.0000  plane waves:    7389
 k-point 90 :   0.2266 0.4531 0.0000  plane waves:    7386
 k-point 91 :   0.2344 0.4688 0.0000  plane waves:    7386
 k-point 92 :   0.2422 0.4844 0.0000  plane waves:    7381
 k-point 93 :   0.2500 0.5000 0.0000  plane waves:    7398
 k-point 94 :   0.2578 0.5156 0.0000  plane waves:    7381
 k-point 95 :   0.2656 0.5312 0.0000  plane waves:    7384
 k-point 96 :   0.2734 0.5469 0.0000  plane waves:    7386
 k-point 97 :   0.2812 0.5625 0.0000  plane waves:    7386
 k-point 98 :   0.2891 0.5781 0.0000  plane waves:    7384
 k-point 99 :   0.2969 0.5938 0.0000  plane waves:    7380
 k-point ** :   0.3047 0.6094 0.0000  plane waves:    7380
 k-point ** :   0.3125 0.6250 0.0000  plane waves:    7381
 k-point ** :   0.3203 0.6406 0.0000  plane waves:    7383
 k-point ** :   0.3281 0.6562 0.0000  plane waves:    7395
 k-point ** :   0.3359 0.6719 0.0000  plane waves:    7392
 k-point ** :   0.3438 0.6875 0.0000  plane waves:    7392
 k-point ** :   0.3516 0.7031 0.0000  plane waves:    7380
 k-point ** :   0.3594 0.7188 0.0000  plane waves:    7381
 k-point ** :   0.3672 0.7344 0.0000  plane waves:    7382
 k-point ** :   0.3750 0.7500 0.0000  plane waves:    7377
 k-point ** :   0.3828 0.7656 0.0000  plane waves:    7379
 k-point ** :   0.3906 0.7812 0.0000  plane waves:    7383
 k-point ** :   0.3984 0.7969 0.0000  plane waves:    7378
 k-point ** :   0.4062 0.8125 0.0000  plane waves:    7381
 k-point ** :   0.4141 0.8281 0.0000  plane waves:    7379
 k-point ** :   0.4219 0.8438 0.0000  plane waves:    7379
 k-point ** :   0.4297 0.8594 0.0000  plane waves:    7375
 k-point ** :   0.4375 0.8750 0.0000  plane waves:    7381
 k-point ** :   0.4453 0.8906 0.0000  plane waves:    7375
 k-point ** :   0.4531 0.9062 0.0000  plane waves:    7373
 k-point ** :   0.4609 0.9219 0.0000  plane waves:    7365
 k-point ** :   0.4688 0.9375 0.0000  plane waves:    7373
 k-point ** :   0.4766 0.9531 0.0000  plane waves:    7369
 k-point ** :   0.4844 0.9688 0.0000  plane waves:    7373
 k-point ** :   0.4922 0.9844 0.0000  plane waves:    7368
 k-point ** :   0.5000 1.0000 0.0000  plane waves:    7368
 k-point ** :   0.4821 1.0000 0.0000  plane waves:    7368
 k-point ** :   0.4643 1.0000 0.0000  plane waves:    7380
 k-point ** :   0.4464 1.0000 0.0000  plane waves:    7380
 k-point ** :   0.4286 1.0000 0.0000  plane waves:    7372
 k-point ** :   0.4107 1.0000 0.0000  plane waves:    7364
 k-point ** :   0.3929 1.0000 0.0000  plane waves:    7364
 k-point ** :   0.3750 1.0000 0.0000  plane waves:    7364
 k-point ** :   0.3571 1.0000 0.0000  plane waves:    7372
 k-point ** :   0.3393 1.0000 0.0000  plane waves:    7376
 k-point ** :   0.3214 1.0000 0.0000  plane waves:    7372
 k-point ** :   0.3036 1.0000 0.0000  plane waves:    7368
 k-point ** :   0.2857 1.0000 0.0000  plane waves:    7372
 k-point ** :   0.2679 1.0000 0.0000  plane waves:    7364
 k-point ** :   0.2500 1.0000 0.0000  plane waves:    7360
 k-point ** :   0.2321 1.0000 0.0000  plane waves:    7368
 k-point ** :   0.2143 1.0000 0.0000  plane waves:    7368
 k-point ** :   0.1964 1.0000 0.0000  plane waves:    7348
 k-point ** :   0.1786 1.0000 0.0000  plane waves:    7332
 k-point ** :   0.1607 1.0000 0.0000  plane waves:    7332
 k-point ** :   0.1429 1.0000 0.0000  plane waves:    7328
 k-point ** :   0.1250 1.0000 0.0000  plane waves:    7328
 k-point ** :   0.1071 1.0000 0.0000  plane waves:    7328
 k-point ** :   0.0893 1.0000 0.0000  plane waves:    7308
 k-point ** :   0.0714 1.0000 0.0000  plane waves:    7305
 k-point ** :   0.0536 1.0000 0.0000  plane waves:    7305
 k-point ** :   0.0357 1.0000 0.0000  plane waves:    7321
 k-point ** :   0.0179 1.0000 0.0000  plane waves:    7297
 k-point ** :   0.0000 1.0000 0.0000  plane waves:    7249
 k-point ** :   0.0000 0.9825 0.0000  plane waves:    7297
 k-point ** :   0.0000 0.9649 0.0000  plane waves:    7321
 k-point ** :   0.0000 0.9474 0.0000  plane waves:    7305
 k-point ** :   0.0000 0.9298 0.0000  plane waves:    7305
 k-point ** :   0.0000 0.9123 0.0000  plane waves:    7308
 k-point ** :   0.0000 0.8947 0.0000  plane waves:    7328
 k-point ** :   0.0000 0.8772 0.0000  plane waves:    7328
 k-point ** :   0.0000 0.8596 0.0000  plane waves:    7328
 k-point ** :   0.0000 0.8421 0.0000  plane waves:    7328
 k-point ** :   0.0000 0.8246 0.0000  plane waves:    7332
 k-point ** :   0.0000 0.8070 0.0000  plane waves:    7348
 k-point ** :   0.0000 0.7895 0.0000  plane waves:    7356
 k-point ** :   0.0000 0.7719 0.0000  plane waves:    7356
 k-point ** :   0.0000 0.7544 0.0000  plane waves:    7360
 k-point ** :   0.0000 0.7368 0.0000  plane waves:    7364
 k-point ** :   0.0000 0.7193 0.0000  plane waves:    7372
 k-point ** :   0.0000 0.7018 0.0000  plane waves:    7364
 k-point ** :   0.0000 0.6842 0.0000  plane waves:    7372
 k-point ** :   0.0000 0.6667 0.0000  plane waves:    7376
 k-point ** :   0.0000 0.6491 0.0000  plane waves:    7372
 k-point ** :   0.0000 0.6316 0.0000  plane waves:    7372
 k-point ** :   0.0000 0.6140 0.0000  plane waves:    7364
 k-point ** :   0.0000 0.5965 0.0000  plane waves:    7360
 k-point ** :   0.0000 0.5789 0.0000  plane waves:    7364
 k-point ** :   0.0000 0.5614 0.0000  plane waves:    7380
 k-point ** :   0.0000 0.5439 0.0000  plane waves:    7380
 k-point ** :   0.0000 0.5263 0.0000  plane waves:    7372
 k-point ** :   0.0000 0.5088 0.0000  plane waves:    7368
 k-point ** :   0.0000 0.4912 0.0000  plane waves:    7368
 k-point ** :   0.0000 0.4737 0.0000  plane waves:    7372
 k-point ** :   0.0000 0.4561 0.0000  plane waves:    7380
 k-point ** :   0.0000 0.4386 0.0000  plane waves:    7380
 k-point ** :   0.0000 0.4211 0.0000  plane waves:    7364
 k-point ** :   0.0000 0.4035 0.0000  plane waves:    7360
 k-point ** :   0.0000 0.3860 0.0000  plane waves:    7364
 k-point ** :   0.0000 0.3684 0.0000  plane waves:    7372
 k-point ** :   0.0000 0.3509 0.0000  plane waves:    7372
 k-point ** :   0.0000 0.3333 0.0000  plane waves:    7376
 k-point ** :   0.0000 0.3158 0.0000  plane waves:    7372
 k-point ** :   0.0000 0.2982 0.0000  plane waves:    7364
 k-point ** :   0.0000 0.2807 0.0000  plane waves:    7372
 k-point ** :   0.0000 0.2632 0.0000  plane waves:    7364
 k-point ** :   0.0000 0.2456 0.0000  plane waves:    7360
 k-point ** :   0.0000 0.2281 0.0000  plane waves:    7356
 k-point ** :   0.0000 0.2105 0.0000  plane waves:    7356
 k-point ** :   0.0000 0.1930 0.0000  plane waves:    7348
 k-point ** :   0.0000 0.1754 0.0000  plane waves:    7332
 k-point ** :   0.0000 0.1579 0.0000  plane waves:    7328
 k-point ** :   0.0000 0.1404 0.0000  plane waves:    7328
 k-point ** :   0.0000 0.1228 0.0000  plane waves:    7328
 k-point ** :   0.0000 0.1053 0.0000  plane waves:    7328
 k-point ** :   0.0000 0.0877 0.0000  plane waves:    7308
 k-point ** :   0.0000 0.0702 0.0000  plane waves:    7305
 k-point ** :   0.0000 0.0526 0.0000  plane waves:    7305
 k-point ** :   0.0000 0.0351 0.0000  plane waves:    7321
 k-point ** :   0.0000 0.0175 0.0000  plane waves:    7297
 k-point ** :   0.0000 0.0000 0.0000  plane waves:    7249

 maximum and minimum number of plane-waves per node :      7415     7249

 maximum number of plane-waves:      7415
 maximum index in each direction: 
   IXMAX=   12   IYMAX=   12   IZMAX=   12
   IXMIN=  -12   IYMIN=  -13   IZMIN=  -12

 WARNING: aliasing errors must be expected set NGX to  50 to avoid them
 WARNING: aliasing errors must be expected set NGY to  52 to avoid them
 WARNING: aliasing errors must be expected set NGZ to  50 to avoid them
 aliasing errors are usually negligible using standard VASP settings
 and one can safely disregard these warnings

 serial   3D FFT for wavefunctions
 parallel 3D FFT for charge:
    minimum data exchange during FFTs selected (reduces bandwidth)


 total amount of memory used by VASP on root node   638044. kBytes
========================================================================

   base      :      30000. kBytes
   nonl-proj :     449468. kBytes
   fftplans  :       1814. kBytes
   grid      :       4551. kBytes
   one-center:        124. kBytes
   wavefun   :     152087. kBytes
 
     INWAV:  cpu time    0.00: real time    0.00
 Broyden mixing: mesh for mixing (old mesh)
   NGX = 25   NGY = 25   NGZ = 25
  (NGX  = 72   NGY  = 72   NGZ  = 72)
  gives a total of  15625 points

 initial charge density was supplied:
 charge density of overlapping atoms calculated
 number of electron      72.0000000 magnetization 
 keeping initial charge density in first step


--------------------------------------------------------------------------------------------------------


 Maximum index for augmentation-charges         1143 (set IRDMAX)


--------------------------------------------------------------------------------------------------------


 First call to EWALD:  gamma=   0.268
 Maximum number of real-space cells 3x 3x 3
 Maximum number of reciprocal cells 3x 3x 3

 FEWALD executed in parallel
    FEWALD:  cpu time    0.00: real time    0.00


----------------------------------------- Iteration    1(   1)  ---------------------------------------


    POTLOK:  cpu time    0.03: real time    0.07
    SETDIJ:  cpu time    0.00: real time    0.01
     EDDAV:  cpu time   23.12: real time   48.07
       DOS:  cpu time    0.00: real time    0.01
    --------------------------------------------
      LOOP:  cpu time   23.16: real time   48.16

 eigenvalue-minimisations  : 20184
 total energy-change (2. order) : 0.4437178E+03  (-0.3101389E+04)
 number of electron      72.0000000 magnetization 
 augmentation part       72.0000000 magnetization 

 Free energy of the ion-electron system (eV)
  ---------------------------------------------------
  alpha Z        PSCENC =       188.19369429
  Ewald energy   TEWEN  =     -4090.72356811
  -Hartree energ DENC   =     -2089.73724981
  -exchange      EXHF   =         0.00000000
  -V(xc)+E(xc)   XCENC  =       -91.44395040
  PAW double counting   =      5617.72092748    -5328.65891765
  entropy T*S    EENTRO =        -0.02027767
  eigenvalues    EBANDS =       172.60068560
  atomic energy  EATOM  =      6065.78646317
  ---------------------------------------------------
  free energy    TOTEN  =       443.71780689 eV

  energy without entropy =      443.73808457  energy(sigma->0) =      443.72794573


--------------------------------------------------------------------------------------------------------




----------------------------------------- Iteration    1(   2)  ---------------------------------------


     EDDAV:  cpu time   25.02: real time   53.53
       DOS:  cpu time    0.00: real time    0.01
    --------------------------------------------
      LOOP:  cpu time   25.02: real time   53.54

 eigenvalue-minimisations  : 22560
 total energy-change (2. order) :-0.4386600E+03  (-0.4247666E+03)
 number of electron      72.0000000 magnetization 
 augmentation part       72.0000000 magnetization 

 Free energy of the ion-electron system (eV)
  ---------------------------------------------------
  alpha Z        PSCENC =       188.19369429
  Ewald energy   TEWEN  =     -4090.72356811
  -Hartree energ DENC   =     -2089.73724981
  -exchange      EXHF   =         0.00000000
  -V(xc)+E(xc)   XCENC  =       -91.44395040
  PAW double counting   =      5617.72092748    -5328.65891765
  entropy T*S    EENTRO =        -0.00000000
  eigenvalues    EBANDS =      -266.07954384
  atomic energy  EATOM  =      6065.78646317
  ---------------------------------------------------
  free energy    TOTEN  =         5.05785513 eV

  energy without entropy =        5.05785513  energy(sigma->0) =        5.05785513


--------------------------------------------------------------------------------------------------------




----------------------------------------- Iteration    1(   3)  ---------------------------------------


     EDDAV:  cpu time   25.58: real time   53.64
       DOS:  cpu time    0.00: real time    0.01
    --------------------------------------------
      LOOP:  cpu time   25.59: real time   53.65

 eigenvalue-minimisations  : 23224
 total energy-change (2. order) :-0.2486237E+02  (-0.2471411E+02)
 number of electron      72.0000000 magnetization 
 augmentation part       72.0000000 magnetization 

 Free energy of the ion-electron system (eV)
  ---------------------------------------------------
  alpha Z        PSCENC =       188.19369429
  Ewald energy   TEWEN  =     -4090.72356811
  -Hartree energ DENC   =     -2089.73724981
  -exchange      EXHF   =         0.00000000
  -V(xc)+E(xc)   XCENC  =       -91.44395040
  PAW double counting   =      5617.72092748    -5328.65891765
  entropy T*S    EENTRO =        -0.00000000
  eigenvalues    EBANDS =      -290.94191346
  atomic energy  EATOM  =      6065.78646317
  ---------------------------------------------------
  free energy    TOTEN  =       -19.80451450 eV

  energy without entropy =      -19.80451450  energy(sigma->0) =      -19.80451450


--------------------------------------------------------------------------------------------------------




----------------------------------------- Iteration    1(   4)  ---------------------------------------


     EDDAV:  cpu time   26.30: real time   58.18
       DOS:  cpu time    0.00: real time    0.01
    --------------------------------------------
      LOOP:  cpu time   26.30: real time   58.18

 eigenvalue-minimisations  : 24400
 total energy-change (2. order) :-0.3771787E+00  (-0.3770165E+00)
 number of electron      72.0000000 magnetization 
 augmentation part       72.0000000 magnetization 

 Free energy of the ion-electron system (eV)
  ---------------------------------------------------
  alpha Z        PSCENC =       188.19369429
  Ewald energy   TEWEN  =     -4090.72356811
  -Hartree energ DENC   =     -2089.73724981
  -exchange      EXHF   =         0.00000000
  -V(xc)+E(xc)   XCENC  =       -91.44395040
  PAW double counting   =      5617.72092748    -5328.65891765
  entropy T*S    EENTRO =        -0.00000000
  eigenvalues    EBANDS =      -291.31909221
  atomic energy  EATOM  =      6065.78646317
  ---------------------------------------------------
  free energy    TOTEN  =       -20.18169324 eV

  energy without entropy =      -20.18169324  energy(sigma->0) =      -20.18169324


--------------------------------------------------------------------------------------------------------




----------------------------------------- Iteration    1(   5)  ---------------------------------------


     EDDAV:  cpu time   25.75: real time   52.94
       DOS:  cpu time    0.00: real time    0.01
    CHARGE:  cpu time    0.06: real time    0.12
    MIXING:  cpu time    0.00: real time    0.00
    --------------------------------------------
      LOOP:  cpu time   25.82: real time   53.08

 eigenvalue-minimisations  : 23512
 total energy-change (2. order) :-0.4968130E-02  (-0.4968030E-02)
 number of electron      71.9999865 magnetization 
 augmentation part       17.9254029 magnetization 

 Broyden mixing:
  rms(total) = 0.97831E+00    rms(broyden)= 0.97830E+00
  rms(prec ) = 0.12318E+01
  weight for this iteration     100.00

 Free energy of the ion-electron system (eV)
  ---------------------------------------------------
  alpha Z        PSCENC =       188.19369429
  Ewald energy   TEWEN  =     -4090.72356811
  -Hartree energ DENC   =     -2089.73724981
  -exchange      EXHF   =         0.00000000
  -V(xc)+E(xc)   XCENC  =       -91.44395040
  PAW double counting   =      5617.72092748    -5328.65891765
  entropy T*S    EENTRO =        -0.00000000
  eigenvalues    EBANDS =      -291.32406034
  atomic energy  EATOM  =      6065.78646317
  ---------------------------------------------------
  free energy    TOTEN  =       -20.18666137 eV

  energy without entropy =      -20.18666137  energy(sigma->0) =      -20.18666137


--------------------------------------------------------------------------------------------------------




----------------------------------------- Iteration    1(   6)  ---------------------------------------


    POTLOK:  cpu time    0.03: real time    0.06
    SETDIJ:  cpu time    0.00: real time    0.01
     EDDAV:  cpu time   24.44: real time   49.70
       DOS:  cpu time    0.00: real time    0.01
    CHARGE:  cpu time    0.06: real time    0.11
    MIXING:  cpu time    0.00: real time    0.00
    --------------------------------------------
      LOOP:  cpu time   24.53: real time   49.89

 eigenvalue-minimisations  : 21888
 total energy-change (2. order) : 0.8962669E+00  (-0.1919513E+00)
 number of electron      71.9999863 magnetization 
 augmentation part       18.2513783 magnetization 

 Broyden mixing:
  rms(total) = 0.81115E+00    rms(broyden)= 0.81115E+00
  rms(prec ) = 0.86053E+00
  weight for this iteration     100.00

 eigenvalues of (default mixing * dielectric matrix)
  average eigenvalue GAMMA=   1.9131
  1.9131

 Free energy of the ion-electron system (eV)
  ---------------------------------------------------
  alpha Z        PSCENC =       188.19369429
  Ewald energy   TEWEN  =     -4090.72356811
  -Hartree energ DENC   =     -2066.85093988
  -exchange      EXHF   =         0.00000000
  -V(xc)+E(xc)   XCENC  =       -91.68515607
  PAW double counting   =      5969.97514407    -5678.43327948
  entropy T*S    EENTRO =        -0.00000003
  eigenvalues    EBANDS =      -315.55275238
  atomic energy  EATOM  =      6065.78646317
  ---------------------------------------------------
  free energy    TOTEN  =       -19.29039443 eV

  energy without entropy =      -19.29039439  energy(sigma->0) =      -19.29039441


--------------------------------------------------------------------------------------------------------




----------------------------------------- Iteration    1(   7)  ---------------------------------------


    POTLOK:  cpu time    0.03: real time    0.06
    SETDIJ:  cpu time    0.00: real time    0.01
     EDDAV:  cpu time   24.94: real time   52.44
       DOS:  cpu time    0.00: real time    0.01
    CHARGE:  cpu time    0.06: real time    0.11
    MIXING:  cpu time    0.00: real time    0.00
    --------------------------------------------
      LOOP:  cpu time   25.03: real time   52.63

 eigenvalue-minimisations  : 22600
 total energy-change (2. order) : 0.5016089E-01  (-0.6679598E-01)
 number of electron      71.9999863 magnetization 
 augmentation part       18.3808030 magnetization 

 Broyden mixing:
  rms(total) = 0.31707E+00    rms(broyden)= 0.31707E+00
  rms(prec ) = 0.33135E+00
  weight for this iteration     100.00

 eigenvalues of (default mixing * dielectric matrix)
  average eigenvalue GAMMA=   1.6746
  0.9344  2.4148

 Free energy of the ion-electron system (eV)
  ---------------------------------------------------
  alpha Z        PSCENC =       188.19369429
  Ewald energy   TEWEN  =     -4090.72356811
  -Hartree energ DENC   =     -2062.41402699
  -exchange      EXHF   =         0.00000000
  -V(xc)+E(xc)   XCENC  =       -91.44947034
  PAW double counting   =      6374.82028468    -6082.93015096
  entropy T*S    EENTRO =        -0.00000167
  eigenvalues    EBANDS =      -320.52345760
  atomic energy  EATOM  =      6065.78646317
  ---------------------------------------------------
  free energy    TOTEN  =       -19.24023354 eV

  energy without entropy =      -19.24023187  energy(sigma->0) =      -19.24023271


--------------------------------------------------------------------------------------------------------




----------------------------------------- Iteration    1(   8)  ---------------------------------------


    POTLOK:  cpu time    0.03: real time    0.06
    SETDIJ:  cpu time    0.00: real time    0.00
     EDDAV:  cpu time   24.88: real time   50.63
       DOS:  cpu time    0.00: real time    0.02
    CHARGE:  cpu time    0.06: real time    0.10
    MIXING:  cpu time    0.00: real time    0.00
    --------------------------------------------
      LOOP:  cpu time   24.98: real time   50.83

 eigenvalue-minimisations  : 22432
 total energy-change (2. order) :-0.1991348E-02  (-0.5068680E-02)
 number of electron      71.9999863 magnetization 
 augmentation part       18.3458130 magnetization 

 Broyden mixing:
  rms(total) = 0.10622E+00    rms(broyden)= 0.10622E+00
  rms(prec ) = 0.11277E+00
  weight for this iteration     100.00

 eigenvalues of (default mixing * dielectric matrix)
  average eigenvalue GAMMA=   1.7035
  2.6096  1.2504  1.2504

 Free energy of the ion-electron system (eV)
  ---------------------------------------------------
  alpha Z        PSCENC =       188.19369429
  Ewald energy   TEWEN  =     -4090.72356811
  -Hartree energ DENC   =     -2064.60952992
  -exchange      EXHF   =         0.00000000
  -V(xc)+E(xc)   XCENC  =       -91.24757662
  PAW double counting   =      6612.04186229    -6320.48686564
  entropy T*S    EENTRO =        -0.00000103
  eigenvalues    EBANDS =      -318.19670331
  atomic energy  EATOM  =      6065.78646317
  ---------------------------------------------------
  free energy    TOTEN  =       -19.24222489 eV

  energy without entropy =      -19.24222386  energy(sigma->0) =      -19.24222437


--------------------------------------------------------------------------------------------------------




----------------------------------------- Iteration    1(   9)  ---------------------------------------


    POTLOK:  cpu time    0.03: real time    0.06
    SETDIJ:  cpu time    0.00: real time    0.01
     EDDAV:  cpu time   25.01: real time   50.75
       DOS:  cpu time    0.00: real time    0.01
    CHARGE:  cpu time    0.06: real time    0.11
    MIXING:  cpu time    0.00: real time    0.00
    --------------------------------------------
      LOOP:  cpu time   25.11: real time   50.94

 eigenvalue-minimisations  : 22584
 total energy-change (2. order) :-0.1507323E-02  (-0.6719587E-03)
 number of electron      71.9999863 magnetization 
 augmentation part       18.3546308 magnetization 

 Broyden mixing:
  rms(total) = 0.23991E-01    rms(broyden)= 0.23991E-01
  rms(prec ) = 0.27721E-01
  weight for this iteration     100.00

 eigenvalues of (default mixing * dielectric matrix)
  average eigenvalue GAMMA=   1.5191
  2.5219  1.3649  1.3649  0.8248

 Free energy of the ion-electron system (eV)
  ---------------------------------------------------
  alpha Z        PSCENC =       188.19369429
  Ewald energy   TEWEN  =     -4090.72356811
  -Hartree energ DENC   =     -2063.20577129
  -exchange      EXHF   =         0.00000000
  -V(xc)+E(xc)   XCENC  =       -91.19990977
  PAW double counting   =      6758.61273898    -6466.93061614
  entropy T*S    EENTRO =        -0.00000105
  eigenvalues    EBANDS =      -319.77676228
  atomic energy  EATOM  =      6065.78646317
  ---------------------------------------------------
  free energy    TOTEN  =       -19.24373221 eV

  energy without entropy =      -19.24373116  energy(sigma->0) =      -19.24373169


--------------------------------------------------------------------------------------------------------




----------------------------------------- Iteration    1(  10)  ---------------------------------------


    POTLOK:  cpu time    0.03: real time    0.06
    SETDIJ:  cpu time    0.00: real time    0.00
     EDDAV:  cpu time   24.96: real time   51.69
       DOS:  cpu time    0.00: real time    0.01
    CHARGE:  cpu time    0.06: real time    0.12
    MIXING:  cpu time    0.00: real time    0.00
    --------------------------------------------
      LOOP:  cpu time   25.06: real time   51.89

 eigenvalue-minimisations  : 22592
 total energy-change (2. order) : 0.8339933E-04  (-0.9024991E-04)
 number of electron      71.9999863 magnetization 
 augmentation part       18.3497446 magnetization 

 Broyden mixing:
  rms(total) = 0.12990E-01    rms(broyden)= 0.12990E-01
  rms(prec ) = 0.14282E-01
  weight for this iteration     100.00

 eigenvalues of (default mixing * dielectric matrix)
  average eigenvalue GAMMA=   1.7374
  2.5788  2.5788  1.1070  1.1070  1.3155

 Free energy of the ion-electron system (eV)
  ---------------------------------------------------
  alpha Z        PSCENC =       188.19369429
  Ewald energy   TEWEN  =     -4090.72356811
  -Hartree energ DENC   =     -2063.62800641
  -exchange      EXHF   =         0.00000000
  -V(xc)+E(xc)   XCENC  =       -91.18482569
  PAW double counting   =      6764.11184824    -6472.46395789
  entropy T*S    EENTRO =        -0.00000087
  eigenvalues    EBANDS =      -319.33529555
  atomic energy  EATOM  =      6065.78646317
  ---------------------------------------------------
  free energy    TOTEN  =       -19.24364881 eV

  energy without entropy =      -19.24364795  energy(sigma->0) =      -19.24364838


--------------------------------------------------------------------------------------------------------




----------------------------------------- Iteration    1(  11)  ---------------------------------------


    POTLOK:  cpu time    0.03: real time    0.06
    SETDIJ:  cpu time    0.00: real time    0.01
     EDDAV:  cpu time   25.61: real time   52.87
       DOS:  cpu time    0.00: real time    0.02
    CHARGE:  cpu time    0.06: real time    0.10
    MIXING:  cpu time    0.00: real time    0.00
    --------------------------------------------
      LOOP:  cpu time   25.71: real time   53.07

 eigenvalue-minimisations  : 23320
 total energy-change (2. order) :-0.1892237E-03  (-0.7562595E-04)
 number of electron      71.9999863 magnetization 
 augmentation part       18.3440257 magnetization 

 Broyden mixing:
  rms(total) = 0.70099E-02    rms(broyden)= 0.70099E-02
  rms(prec ) = 0.78290E-02
  weight for this iteration     100.00

 eigenvalues of (default mixing * dielectric matrix)
  average eigenvalue GAMMA=   1.6327
  2.6850  2.6850  1.5334  1.0681  1.0681  0.7567

 Free energy of the ion-electron system (eV)
  ---------------------------------------------------
  alpha Z        PSCENC =       188.19369429
  Ewald energy   TEWEN  =     -4090.72356811
  -Hartree energ DENC   =     -2064.19680478
  -exchange      EXHF   =         0.00000000
  -V(xc)+E(xc)   XCENC  =       -91.16012937
  PAW double counting   =      6760.72488266    -6469.07883951
  entropy T*S    EENTRO =        -0.00000073
  eigenvalues    EBANDS =      -318.78953565
  atomic energy  EATOM  =      6065.78646317
  ---------------------------------------------------
  free energy    TOTEN  =       -19.24383804 eV

  energy without entropy =      -19.24383730  energy(sigma->0) =      -19.24383767


--------------------------------------------------------------------------------------------------------




----------------------------------------- Iteration    1(  12)  ---------------------------------------


    POTLOK:  cpu time    0.03: real time    0.06
    SETDIJ:  cpu time    0.00: real time    0.01
     EDDAV:  cpu time   25.39: real time   51.64
       DOS:  cpu time    0.00: real time    0.02
    CHARGE:  cpu time    0.06: real time    0.10
    MIXING:  cpu time    0.00: real time    0.00
    --------------------------------------------
      LOOP:  cpu time   25.49: real time   51.83

 eigenvalue-minimisations  : 22984
 total energy-change (2. order) : 0.1427649E-04  (-0.7444166E-05)
 number of electron      71.9999863 magnetization 
 augmentation part       18.3447367 magnetization 

 Broyden mixing:
[...]
      8      -6.1785      2.00000
      9      -6.1785      2.00000
     10      -6.1743      2.00000
     11      -6.1743      2.00000
     12      -6.1743      2.00000
     13      -6.1743      2.00000
     14      -6.1693      2.00000
     15      -6.1632      2.00000
     16      -6.1632      2.00000
     17      -6.0914      2.00000
     18      -6.0906      2.00000
     19      -6.0661      2.00000
     20      -6.0661      2.00000
     21      -6.0657      2.00000
     22      -5.6840      2.00000
     23      -5.6664      2.00000
     24      -5.6664      2.00000
     25      -2.2184      2.00000
     26      -2.2184      2.00000
     27      -2.1872      2.00000
     28       0.1055      2.00000
     29       0.1055      2.00000
     30       0.1121      2.00000
     31       0.1121      2.00000
     32       0.1423      2.00000
     33       0.1423      2.00000
     34       1.5498      2.00000
     35       1.7510      2.00000
     36       1.7510      2.00000
     37       2.5899      0.00000
     38       4.4342      0.00000
     39       4.4983      0.00000
     40       4.4983      0.00000
     41       4.5652      0.00000
     42       4.5789      0.00000
     43       4.5789      0.00000
     44       6.3568      0.00000
     45       6.4625      0.00000
     46       6.4625      0.00000
     47       9.2462      0.00000
     48      10.1099      0.00000

 k-point   207 :       0.0000    0.0526    0.0000
  band No.  band energies     occupation 
      1      -9.0395      2.00000
      2      -8.6047      2.00000
      3      -8.6019      2.00000
      4      -8.6019      2.00000
      5      -6.3050      2.00000
      6      -6.3050      2.00000
      7      -6.3039      2.00000
      8      -6.1768      2.00000
      9      -6.1768      2.00000
     10      -6.1736      2.00000
     11      -6.1736      2.00000
     12      -6.1736      2.00000
     13      -6.1736      2.00000
     14      -6.1696      2.00000
     15      -6.1652      2.00000
     16      -6.1652      2.00000
     17      -6.0912      2.00000
     18      -6.0907      2.00000
     19      -6.0658      2.00000
     20      -6.0658      2.00000
     21      -6.0656      2.00000
     22      -5.6777      2.00000
     23      -5.6678      2.00000
     24      -5.6678      2.00000
     25      -2.2206      2.00000
     26      -2.2206      2.00000
     27      -2.2030      2.00000
     28       0.1148      2.00000
     29       0.1148      2.00000
     30       0.1186      2.00000
     31       0.1186      2.00000
     32       0.1357      2.00000
     33       0.1357      2.00000
     34       1.6347      2.00000
     35       1.7636      1.99999
     36       1.7636      1.99999
     37       2.5030      0.00000
     38       4.4383      0.00000
     39       4.4763      0.00000
     40       4.4763      0.00000
     41       4.5490      0.00000
     42       4.5549      0.00000
     43       4.5549      0.00000
     44       6.3833      0.00000
     45       6.4434      0.00000
     46       6.4434      0.00000
     47       9.2055      0.00000
     48      10.1761      0.00000

 k-point   208 :       0.0000    0.0351    0.0000
  band No.  band energies     occupation 
      1      -9.0412      2.00000
      2      -8.6031      2.00000
      3      -8.6019      2.00000
      4      -8.6019      2.00000
      5      -6.3055      2.00000
      6      -6.3055      2.00000
      7      -6.3050      2.00000
      8      -6.1752      2.00000
      9      -6.1752      2.00000
     10      -6.1730      2.00000
     11      -6.1730      2.00000
     12      -6.1730      2.00000
     13      -6.1730      2.00000
     14      -6.1699      2.00000
     15      -6.1672      2.00000
     16      -6.1672      2.00000
     17      -6.0910      2.00000
     18      -6.0908      2.00000
     19      -6.0656      2.00000
     20      -6.0656      2.00000
     21      -6.0655      2.00000
     22      -5.6732      2.00000
     23      -5.6687      2.00000
     24      -5.6687      2.00000
     25      -2.2221      2.00000
     26      -2.2221      2.00000
     27      -2.2143      2.00000
     28       0.1216      2.00000
     29       0.1216      2.00000
     30       0.1233      2.00000
     31       0.1233      2.00000
     32       0.1309      2.00000
     33       0.1309      2.00000
     34       1.7080      2.00000
     35       1.7727      1.99998
     36       1.7727      1.99998
     37       2.4283      0.00000
     38       4.4427      0.00000
     39       4.4604      0.00000
     40       4.4604      0.00000
     41       4.5359      0.00000
     42       4.5377      0.00000
     43       4.5377      0.00000
     44       6.4027      0.00000
     45       6.4296      0.00000
     46       6.4296      0.00000
     47       9.1757      0.00000
     48      10.2394      0.00000

 k-point   209 :       0.0000    0.0175    0.0000
  band No.  band energies     occupation 
      1      -9.0422      2.00000
      2      -8.6022      2.00000
      3      -8.6019      2.00000
      4      -8.6019      2.00000
      5      -6.3058      2.00000
      6      -6.3058      2.00000
      7      -6.3057      2.00000
      8      -6.1735      2.00000
      9      -6.1735      2.00000
     10      -6.1727      2.00000
     11      -6.1727      2.00000
     12      -6.1727      2.00000
     13      -6.1727      2.00000
     14      -6.1700      2.00000
     15      -6.1690      2.00000
     16      -6.1690      2.00000
     17      -6.0909      2.00000
     18      -6.0909      2.00000
     19      -6.0654      2.00000
     20      -6.0654      2.00000
     21      -6.0654      2.00000
     22      -5.6705      2.00000
     23      -5.6693      2.00000
     24      -5.6693      2.00000
     25      -2.2231      2.00000
     26      -2.2231      2.00000
     27      -2.2211      2.00000
     28       0.1257      2.00000
     29       0.1257      2.00000
     30       0.1262      2.00000
     31       0.1262      2.00000
     32       0.1281      2.00000
     33       0.1281      2.00000
     34       1.7604      1.99999
     35       1.7782      1.99998
     36       1.7782      1.99998
     37       2.3750      0.00002
     38       4.4463      0.00000
     39       4.4509      0.00000
     40       4.4509      0.00000
     41       4.5271      0.00000
     42       4.5274      0.00000
     43       4.5274      0.00000
     44       6.4146      0.00000
     45       6.4214      0.00000
     46       6.4214      0.00000
     47       9.1576      0.00000
     48      10.2677      0.00000

 k-point   210 :       0.0000    0.0000    0.0000
  band No.  band energies     occupation 
      1      -9.0426      2.00000
      2      -8.6019      2.00000
      3      -8.6019      2.00000
      4      -8.6019      2.00000
      5      -6.3059      2.00000
      6      -6.3059      2.00000
      7      -6.3059      2.00000
      8      -6.1726      2.00000
      9      -6.1726      2.00000
     10      -6.1726      2.00000
     11      -6.1726      2.00000
     12      -6.1726      2.00000
     13      -6.1726      2.00000
     14      -6.1700      2.00000
     15      -6.1700      2.00000
     16      -6.1700      2.00000
     17      -6.0909      2.00000
     18      -6.0909      2.00000
     19      -6.0654      2.00000
     20      -6.0654      2.00000
     21      -6.0654      2.00000
     22      -5.6695      2.00000
     23      -5.6695      2.00000
     24      -5.6695      2.00000
     25      -2.2234      2.00000
     26      -2.2234      2.00000
     27      -2.2234      2.00000
     28       0.1271      2.00000
     29       0.1271      2.00000
     30       0.1271      2.00000
     31       0.1271      2.00000
     32       0.1271      2.00000
     33       0.1271      2.00000
     34       1.7801      1.99997
     35       1.7801      1.99997
     36       1.7801      1.99997
     37       2.3550      0.00008
     38       4.4477      0.00000
     39       4.4477      0.00000
     40       4.4477      0.00000
     41       4.5239      0.00000
     42       4.5239      0.00000
     43       4.5239      0.00000
     44       6.4186      0.00000
     45       6.4186      0.00000
     46       6.4186      0.00000
     47       9.1515      0.00000
     48      10.2808      0.00000


--------------------------------------------------------------------------------------------------------


 soft charge-density along one line, spin component           1
         0         1         2         3         4         5         6         7         8         9
 total charge-density along one line
 
 pseudopotential strength for first ion, spin component:           1
-18.105  -0.000  -0.000   0.000  -0.000 -18.139  -0.000  -0.000
 -0.000 -18.105   0.000   0.000  -0.000  -0.000 -18.139   0.000
 -0.000   0.000 -18.106  -0.000   0.000  -0.000   0.000 -18.141
  0.000   0.000  -0.000 -18.105  -0.000   0.000   0.000  -0.000
 -0.000  -0.000   0.000  -0.000 -18.106  -0.000  -0.000   0.000
-18.139  -0.000  -0.000   0.000  -0.000 -18.154  -0.000  -0.000
 -0.000 -18.139   0.000   0.000  -0.000  -0.000 -18.154   0.000
 -0.000   0.000 -18.141  -0.000   0.000  -0.000   0.000 -18.156
  0.000   0.000  -0.000 -18.139  -0.000   0.000   0.000  -0.000
 -0.000  -0.000   0.000  -0.000 -18.141  -0.000  -0.000   0.000
 -0.000  -0.000   0.000   0.000   0.000  -0.000  -0.000   0.000
 -0.000  -0.000   0.000   0.000   0.000  -0.000  -0.000   0.000
 -0.000   0.000  -0.000  -0.003  -0.000  -0.000   0.000  -0.000
 -0.003   0.000   0.000  -0.000   0.000  -0.003   0.000   0.000
  0.000  -0.003   0.000   0.000  -0.000   0.000  -0.003   0.000
 -0.000   0.000  -0.000  -0.003  -0.000  -0.000   0.000  -0.000
 -0.003   0.000   0.000  -0.000   0.000  -0.003   0.000   0.000
  0.000  -0.003   0.000   0.000  -0.000   0.000  -0.003   0.000
 total augmentation occupancy for first ion, spin component:           1
  3.940   0.000   0.000  -0.000  -0.000  -1.814  -0.000  -0.000  -0.000   0.000   0.000  -0.000  -0.000  -0.468  -0.000   0.000
 -0.000   3.940  -0.000   0.000  -0.000   0.000  -1.814  -0.000  -0.000  -0.000   0.000   0.000   0.000   0.000  -0.468   0.000
  0.000   0.000   2.582   0.000   0.000  -0.000  -0.000  -0.513  -0.000   0.000   0.000   0.000   0.000   0.000   0.000   0.000
  0.000  -0.000  -0.000   3.940   0.000   0.000   0.000  -0.000  -1.814   0.000   0.000  -0.000  -0.468   0.000  -0.000   0.066
 -0.000  -0.000   0.000   0.000   2.582  -0.000  -0.000   0.000   0.000  -0.513  -0.000   0.000   0.000   0.000   0.000   0.000
 -1.814   0.000   0.000  -0.000  -0.000   1.686  -0.000   0.000  -0.000   0.000   0.000   0.000   0.000   0.447  -0.000   0.000
  0.000  -1.814  -0.000   0.000   0.000   0.000   1.686  -0.000  -0.000  -0.000  -0.000  -0.000   0.000   0.000   0.447  -0.000
 -0.000   0.000  -0.513  -0.000   0.000   0.000  -0.000   0.440  -0.000   0.000  -0.000  -0.000  -0.000   0.000   0.000   0.000
  0.000  -0.000  -0.000  -1.814   0.000   0.000  -0.000  -0.000   1.686  -0.000   0.000   0.000   0.447   0.000   0.000  -0.077
 -0.000  -0.000   0.000   0.000  -0.513   0.000   0.000   0.000   0.000   0.440   0.000  -0.000  -0.000   0.000  -0.000   0.000
  0.000   0.000   0.000  -0.000   0.000   0.000  -0.000   0.000   0.000   0.000   2.762  -0.683   0.000  -0.000   0.000  -0.000
 -0.000   0.000   0.000  -0.000  -0.000  -0.000  -0.000  -0.000   0.000  -0.000  -0.683   0.202   0.000  -0.000  -0.000  -0.000
 -0.000  -0.000  -0.000  -0.468   0.000   0.000  -0.000  -0.000   0.447  -0.000   0.000  -0.000   0.186  -0.000   0.000  -0.032
 -0.468   0.000  -0.000   0.000   0.000   0.447  -0.000  -0.000  -0.000   0.000  -0.000   0.000   0.000   0.186   0.000   0.000
 -0.000  -0.468  -0.000  -0.000   0.000  -0.000   0.447  -0.000  -0.000  -0.000  -0.000   0.000   0.000   0.000   0.186   0.000
  0.000   0.000   0.000   0.066  -0.000  -0.000  -0.000   0.000  -0.077   0.000  -0.000   0.000  -0.032   0.000   0.000   0.007
  0.066   0.000   0.000  -0.000   0.000  -0.077   0.000  -0.000  -0.000  -0.000   0.000   0.000   0.000  -0.032  -0.000  -0.000
 -0.000   0.066   0.000   0.000   0.000  -0.000  -0.077   0.000  -0.000  -0.000  -0.000   0.000   0.000  -0.000  -0.032   0.000


------------------------ aborting loop because EDIFF is reached ----------------------------------------


 


 total charge     
 
# of ion     s       p       d       tot
----------------------------------------
  1        0.462   0.282   9.533  10.277
  2        0.462   0.282   9.533  10.277
  3        0.462   0.282   9.533  10.277
  4        0.462   0.282   9.533  10.277
  5        1.353   2.031   0.017   3.401
  6        1.353   2.031   0.017   3.401
  7        1.353   2.031   0.017   3.401
  8        1.353   2.031   0.017   3.401
------------------------------------------------
tot        7.260   9.251  38.201  54.712
 
    CHARGE:  cpu time    0.06: real time    0.12
    FORLOC:  cpu time    0.00: real time    0.00
    FORNL :  cpu time    7.32: real time   15.23
    STRESS:  cpu time   18.18: real time   36.97
    FORCOR:  cpu time    0.03: real time    0.06
    FORHAR:  cpu time    0.01: real time    0.02
    MIXING:  cpu time    0.00: real time    0.00
    OFIELD:  cpu time    0.00: real time    0.00

  FORCE on cell =-STRESS in cart. coord.  units (eV):
  Direction    XX          YY          ZZ          XY          YZ          ZX
  --------------------------------------------------------------------------------------
  Alpha Z   188.19369   188.19369   188.19369
  Ewald   -1363.57655 -1363.57655 -1363.57655     0.00000    -0.00000     0.00000
  Hartree   688.04543   688.04543   688.04543    -0.00000    -0.00000    -0.00000
  E(xc)    -348.65111  -348.65111  -348.65111     0.00000    -0.00000    -0.00000
  Local    -101.60804  -101.60804  -101.60804     0.00000    -0.00000    -0.00000
  n-local   101.73367   106.06317   102.81369    -2.22017    -1.90692    -0.78846
  augment    25.16982    25.16982    25.16982    -0.00000     0.00000    -0.00000
  Kinetic   805.39931   811.28362   810.12866    -2.03461    -2.11973    -0.83725
  Fock        0.00000     0.00000     0.00000     0.00000     0.00000     0.00000
  -------------------------------------------------------------------------------------
  Total       0.04730     0.04730     0.04730     0.00000    -0.00000     0.00000
  in kB       0.26083     0.26083     0.26083     0.00000    -0.00000     0.00000
  external pressure =        0.26 kB  Pullay stress =        0.00 kB


 VOLUME and BASIS-vectors are now :
 -----------------------------------------------------------------------------
  energy-cutoff  :      500.00
  volume of cell :      290.53
      direct lattice vectors                 reciprocal lattice vectors
     6.623110574  0.000000000  0.000000000     0.150986457  0.000000000  0.000000000
     0.000000000  6.623110574  0.000000000     0.000000000  0.150986457  0.000000000
     0.000000000  0.000000000  6.623110574     0.000000000  0.000000000  0.150986457

  length of vectors
     6.623110574  6.623110574  6.623110574     0.150986457  0.150986457  0.150986457


 FORCES acting on ions
    electron-ion (+dipol)            ewald-force                    non-local-force                 convergence-correction
 -----------------------------------------------------------------------------------------------
   0.139E-12 0.557E-13 -.191E-12   -.568E-13 -.213E-13 -.711E-14   0.000E+00 -.228E-17 0.564E-17   0.150E-13 0.206E-12 -.398E-14
   0.161E-12 0.665E-12 0.401E-12   -.568E-13 -.213E-13 0.711E-14   0.954E-17 -.217E-17 -.434E-18   -.246E-13 0.126E-12 -.535E-13
   0.726E-12 0.596E-13 0.634E-11   -.568E-13 -.213E-13 0.711E-14   0.260E-17 0.802E-17 0.217E-17   -.305E-12 0.272E-12 0.520E-14
   0.762E-12 0.358E-11 0.196E-11   -.568E-13 -.213E-13 -.711E-14   0.000E+00 -.770E-17 0.304E-17   -.247E-12 0.290E-12 0.136E-12
   -.152E-12 0.182E-12 -.400E-13   0.633E-13 0.206E-13 -.631E-15   0.217E-16 0.260E-16 0.867E-17   -.244E-13 0.139E-12 -.238E-12
   -.224E-12 0.168E-12 -.141E-12   0.506E-13 0.220E-13 -.640E-15   0.113E-16 -.867E-17 -.347E-17   0.222E-12 0.116E-12 -.254E-12
   -.209E-12 0.528E-12 -.657E-12   0.500E-13 0.209E-13 0.548E-15   0.278E-16 -.343E-16 -.269E-16   0.233E-12 0.127E-12 -.348E-12
   -.166E-12 0.209E-13 -.916E-13   0.636E-13 0.222E-13 0.540E-15   -.278E-16 -.304E-17 -.217E-16   -.232E-13 0.130E-12 -.329E-12
 -----------------------------------------------------------------------------------------------
   0.104E-11 0.526E-11 0.758E-11   0.147E-15 0.428E-15 -.183E-15   0.451E-16 -.241E-16 -.330E-16   -.155E-12 0.141E-11 -.109E-11
 
 
 POSITION                                       TOTAL-FORCE (eV/Angst)
 -----------------------------------------------------------------------------------
      0.00000      0.00000      0.00000         0.000000      0.000000      0.000000
      0.00000      3.31156      3.31156         0.000000     -0.000000      0.000000
      3.31156      0.00000      3.31156         0.000000     -0.000000      0.000000
      3.31156      3.31156      0.00000         0.000000      0.000000      0.000000
      1.65578      1.65578      1.65578        -0.000000      0.000000     -0.000000
      4.96733      4.96733      1.65578        -0.000000      0.000000     -0.000000
      4.96733      1.65578      4.96733        -0.000000      0.000000     -0.000000
      1.65578      4.96733      4.96733        -0.000000      0.000000     -0.000000
 -----------------------------------------------------------------------------------
    total drift:                                0.000000      0.000000      0.000000


--------------------------------------------------------------------------------------------------------



  FREE ENERGIE OF THE ION-ELECTRON SYSTEM (eV)
  ---------------------------------------------------
  free  energy   TOTEN  =       -19.24382625 eV

  energy  without entropy=      -19.24382547  energy(sigma->0) =      -19.24382586
 


--------------------------------------------------------------------------------------------------------


    POTLOK:  cpu time    0.03: real time    0.07


--------------------------------------------------------------------------------------------------------




--------------------------------------------------------------------------------------------------------


 writing wavefunctions
     LOOP+:  cpu time  420.79: real time  869.31
    4ORBIT:  cpu time    0.00: real time    0.00
 


 total charge     
 
# of ion     s       p       d       tot
----------------------------------------
  1        0.462   0.282   9.533  10.277
  2        0.462   0.282   9.533  10.277
  3        0.462   0.282   9.533  10.277
  4        0.462   0.282   9.533  10.277
  5        1.353   2.031   0.017   3.401
  6        1.353   2.031   0.017   3.401
  7        1.353   2.031   0.017   3.401
  8        1.353   2.031   0.017   3.401
------------------------------------------------
tot        7.260   9.251  38.201  54.712
 

 total amount of memory used by VASP on root node   638044. kBytes
========================================================================

   base      :      30000. kBytes
   nonl-proj :     449468. kBytes
   fftplans  :       1814. kBytes
   grid      :       4551. kBytes
   one-center:        124. kBytes
   wavefun   :     152087. kBytes
 
  
  
 General timing and accounting informations for this job:
 ========================================================
  
                  Total CPU time used (sec):      426.996
                            User time (sec):      404.128
                          System time (sec):       22.868
                         Elapsed time (sec):      881.212
  
                   Maximum memory used (kb):   628211712.
                   Average memory used (kb):           0.
  
                          Minor page faults:       153709
                          Major page faults:          551
                 Voluntary context switches:           67
