PROCAR new format
# of k-points:  210         # of bands:  48         # of ions:   8

 k-point    1 :    0.00000000 0.00000000 0.00000000     weight = 0.01562500

band   1 # energy   -9.04255374 # occ.  2.00000000
 
ion      s      p      d    tot
  1  0.013  0.000  0.000  0.013
  2  0.013  0.000  0.000  0.013
  3  0.013  0.000  0.000  0.013
  4  0.013  0.000  0.000  0.013
  5  0.145  0.000  0.000  0.145
  6  0.145  0.000  0.000  0.145
  7  0.145  0.000  0.000  0.145
  8  0.145  0.000  0.000  0.145
tot  0.633  0.000  0.000  0.633
 
band   2 # energy   -8.60188557 # occ.  2.00000000
 
ion      s      p      d    tot
  1  0.000  0.003  0.033  0.035
  2  0.000  0.003  0.033  0.035
  3  0.000  0.003  0.033  0.035
  4  0.000  0.003  0.033  0.035
  5  0.011  0.000  0.000  0.011
  6  0.044  0.000  0.000  0.044
  7  0.343  0.000  0.000  0.343
  8  0.183  0.000  0.000  0.183
tot  0.580  0.011  0.130  0.722
 
band   3 # energy   -8.60188557 # occ.  2.00000000
 
ion      s      p      d    tot
  1  0.000  0.003  0.033  0.035
  2  0.000  0.003  0.033  0.035
  3  0.000  0.003  0.033  0.035
  4  0.000  0.003  0.033  0.035
  5  0.242  0.000  0.000  0.242
  6  0.081  0.000  0.000  0.081
  7  0.085  0.000  0.000  0.085
  8  0.172  0.000  0.000  0.172
tot  0.580  0.011  0.130  0.722
 
band   4 # energy   -8.60188557 # occ.  2.00000000
 
ion      s      p      d    tot
  1  0.000  0.003  0.033  0.035
  2  0.000  0.003  0.033  0.035
  3  0.000  0.003  0.033  0.035
  4  0.000  0.003  0.033  0.035
  5  0.182  0.000  0.000  0.182
  6  0.310  0.000  0.000  0.310
  7  0.008  0.000  0.000  0.008
  8  0.080  0.000  0.000  0.080
tot  0.580  0.011  0.130  0.722
 
band   5 # energy   -6.30586560 # occ.  2.00000000
 
ion      s      p      d    tot
  1  0.000  0.000  0.228  0.228
  2  0.000  0.000  0.228  0.228
  3  0.000  0.000  0.228  0.228
  4  0.000  0.000  0.228  0.228
  5  0.000  0.004  0.000  0.004
  6  0.000  0.004  0.000  0.004
  7  0.000  0.004  0.000  0.004
  8  0.000  0.004  0.000  0.004
tot  0.000  0.017  0.911  0.928
 
band   6 # energy   -6.30586560 # occ.  2.00000000
 
ion      s      p      d    tot
  1  0.000  0.000  0.228  0.228
  2  0.000  0.000  0.228  0.228
  3  0.000  0.000  0.228  0.228
  4  0.000  0.000  0.228  0.228
  5  0.000  0.004  0.000  0.004
  6  0.000  0.004  0.000  0.004
  7  0.000  0.004  0.000  0.004
  8  0.000  0.004  0.000  0.004
tot  0.000  0.017  0.911  0.928
 
band   7 # energy   -6.30586560 # occ.  2.00000000
 
ion      s      p      d    tot
  1  0.000  0.000  0.228  0.228
  2  0.000  0.000  0.228  0.228
  3  0.000  0.000  0.228  0.228
  4  0.000  0.000  0.228  0.228
  5  0.000  0.004  0.000  0.004
  6  0.000  0.004  0.000  0.004
  7  0.000  0.004  0.000  0.004
  8  0.000  0.004  0.000  0.004
tot  0.000  0.017  0.911  0.928
 
band   8 # energy   -6.17255454 # occ.  2.00000000
 
ion      s      p      d    tot
  1  0.000  0.000  0.207  0.207
  2  0.000  0.000  0.158  0.158
  3  0.000  0.000  0.337  0.337
  4  0.000  0.000  0.236  0.236
  5  0.000  0.003  0.000  0.003
  6  0.000  0.003  0.000  0.003
  7  0.000  0.001  0.000  0.001
  8  0.000  0.000  0.000  0.000
tot  0.000  0.008  0.939  0.946
 
band   9 # energy   -6.17255454 # occ.  2.00000000
 
ion      s      p      d    tot
  1  0.000  0.000  0.151  0.151
  2  0.000  0.000  0.302  0.302
  3  0.000  0.000  0.176  0.176
  4  0.000  0.000  0.308  0.308
  5  0.000  0.002  0.000  0.003
  6  0.000  0.001  0.000  0.001
  7  0.000  0.001  0.000  0.001
  8  0.000  0.003  0.000  0.003
tot  0.000  0.008  0.939  0.946
 
band  10 # energy   -6.17255454 # occ.  2.00000000
 
ion      s      p      d    tot
  1  0.000  0.000  0.235  0.235
  2  0.000  0.000  0.226  0.226
  3  0.000  0.000  0.088  0.088
  4  0.000  0.000  0.388  0.388
  5  0.000  0.001  0.000  0.001
  6  0.000  0.003  0.000  0.003
  7  0.000  0.003  0.000  0.003
  8  0.000  0.001  0.000  0.001
tot  0.000  0.008  0.939  0.946
 
band  11 # energy   -6.17255454 # occ.  2.00000000
 
ion      s      p      d    tot
  1  0.000  0.000  0.249  0.249
  2  0.000  0.000  0.104  0.104
  3  0.000  0.000  0.393  0.394
  4  0.000  0.000  0.191  0.191
  5  0.000  0.001  0.000  0.001
  6  0.000  0.001  0.000  0.001
  7  0.000  0.002  0.000  0.002
  8  0.000  0.003  0.001  0.004
tot  0.000  0.008  0.939  0.946
 
band  12 # energy   -6.17255454 # occ.  2.00000000
 
ion      s      p      d    tot
  1  0.000  0.000  0.419  0.419
  2  0.000  0.000  0.414  0.414
  3  0.000  0.000  0.044  0.044
  4  0.000  0.000  0.061  0.061
  5  0.000  0.002  0.000  0.002
  6  0.000  0.002  0.000  0.002
  7  0.000  0.002  0.000  0.003
  8  0.000  0.002  0.000  0.002
tot  0.000  0.008  0.939  0.946
 
band  13 # energy   -6.17255454 # occ.  2.00000000
 
ion      s      p      d    tot
  1  0.000  0.000  0.145  0.145
  2  0.000  0.000  0.202  0.202
  3  0.000  0.000  0.367  0.367
  4  0.000  0.000  0.223  0.223
  5  0.000  0.002  0.000  0.002
  6  0.000  0.002  0.000  0.002
  7  0.000  0.002  0.000  0.003
  8  0.000  0.001  0.000  0.002
tot  0.000  0.008  0.939  0.946
 
band  14 # energy   -6.17003799 # occ.  2.00000000
 
ion      s      p      d    tot
  1  0.000  0.000  0.315  0.315
  2  0.000  0.000  0.234  0.234
  3  0.000  0.000  0.097  0.097
  4  0.000  0.000  0.277  0.277
  5  0.000  0.001  0.000  0.002
  6  0.000  0.001  0.000  0.002
  7  0.000  0.001  0.000  0.002
  8  0.000  0.001  0.000  0.002
tot  0.001  0.006  0.923  0.930
 
band  15 # energy   -6.17003799 # occ.  2.00000000
 
ion      s      p      d    tot
  1  0.000  0.000  0.216  0.216
  2  0.000  0.000  0.156  0.156
  3  0.000  0.000  0.285  0.285
  4  0.000  0.000  0.266  0.266
  5  0.000  0.001  0.000  0.002
  6  0.000  0.001  0.000  0.002
  7  0.000  0.001  0.000  0.002
  8  0.000  0.001  0.000  0.002
tot  0.001  0.006  0.923  0.930
 
band  16 # energy   -6.17003799 # occ.  2.00000000
 
ion      s      p      d    tot
  1  0.000  0.000  0.161  0.162
  2  0.000  0.000  0.302  0.302
  3  0.000  0.000  0.310  0.310
  4  0.000  0.000  0.149  0.149
  5  0.000  0.001  0.000  0.002
  6  0.000  0.001  0.000  0.002
  7  0.000  0.001  0.000  0.002
  8  0.000  0.001  0.000  0.002
tot  0.001  0.006  0.923  0.930
 
band  17 # energy   -6.09090994 # occ.  2.00000000
 
ion      s      p      d    tot
  1  0.000  0.000  0.237  0.237
  2  0.000  0.000  0.237  0.237
  3  0.000  0.000  0.237  0.237
  4  0.000  0.000  0.237  0.237
  5  0.000  0.000  0.000  0.000
  6  0.000  0.000  0.000  0.000
  7  0.000  0.000  0.000  0.000
  8  0.000  0.000  0.000  0.000
tot  0.000  0.000  0.948  0.948
 
band  18 # energy   -6.09090994 # occ.  2.00000000
 
ion      s      p      d    tot
  1  0.000  0.000  0.237  0.237
  2  0.000  0.000  0.237  0.237
  3  0.000  0.000  0.237  0.237
  4  0.000  0.000  0.237  0.237
  5  0.000  0.000  0.000  0.000
  6  0.000  0.000  0.000  0.000
  7  0.000  0.000  0.000  0.000
  8  0.000  0.000  0.000  0.000
tot  0.000  0.000  0.948  0.948
 
band  19 # energy   -6.06540623 # occ.  2.00000000
 
ion      s      p      d    tot
  1  0.000  0.000  0.140  0.140
  2  0.000  0.000  0.292  0.292
  3  0.000  0.000  0.184  0.184
  4  0.000  0.000  0.335  0.335
  5  0.000  0.000  0.000  0.000
  6  0.000  0.000  0.000  0.000
  7  0.000  0.000  0.000  0.000
  8  0.000  0.000  0.000  0.000
tot  0.000  0.000  0.951  0.951
 
band  20 # energy   -6.06540623 # occ.  2.00000000
 
ion      s      p      d    tot
  1  0.000  0.000  0.235  0.235
  2  0.000  0.000  0.250  0.250
  3  0.000  0.000  0.243  0.243
  4  0.000  0.000  0.223  0.223
  5  0.000  0.000  0.000  0.000
  6  0.000  0.000  0.000  0.000
  7  0.000  0.000  0.000  0.000
  8  0.000  0.000  0.000  0.000
tot  0.000  0.000  0.951  0.951
 
band  21 # energy   -6.06540623 # occ.  2.00000000
 
ion      s      p      d    tot
  1  0.000  0.000  0.338  0.338
  2  0.000  0.000  0.171  0.171
  3  0.000  0.000  0.286  0.286
  4  0.000  0.000  0.156  0.156
  5  0.000  0.000  0.000  0.000
  6  0.000  0.000  0.000  0.000
  7  0.000  0.000  0.000  0.000
  8  0.000  0.000  0.000  0.000
tot  0.000  0.000  0.951  0.951
 
band  22 # energy   -5.66954958 # occ.  2.00000000
 
ion      s      p      d    tot
  1  0.000  0.001  0.204  0.205
  2  0.000  0.001  0.204  0.205
  3  0.000  0.001  0.204  0.205
  4  0.000  0.001  0.204  0.205
  5  0.014  0.000  0.000  0.014
  6  0.014  0.000  0.000  0.014
  7  0.036  0.000  0.000  0.036
  8  0.037  0.000  0.000  0.037
tot  0.101  0.004  0.818  0.923
 
band  23 # energy   -5.66954958 # occ.  2.00000000
 
ion      s      p      d    tot
  1  0.000  0.001  0.204  0.205
  2  0.000  0.001  0.204  0.205
  3  0.000  0.001  0.204  0.205
  4  0.000  0.001  0.204  0.205
  5  0.025  0.000  0.000  0.025
  6  0.026  0.000  0.000  0.026
  7  0.027  0.000  0.000  0.027
  8  0.024  0.000  0.000  0.024
tot  0.101  0.004  0.818  0.923
 
band  24 # energy   -5.66954958 # occ.  2.00000000
 
ion      s      p      d    tot
  1  0.000  0.001  0.204  0.205
  2  0.000  0.001  0.204  0.205
  3  0.000  0.001  0.204  0.205
  4  0.000  0.001  0.204  0.205
  5  0.037  0.000  0.000  0.037
  6  0.036  0.000  0.000  0.036
  7  0.013  0.000  0.000  0.013
  8  0.015  0.000  0.000  0.015
tot  0.101  0.004  0.818  0.923
 
band  25 # energy   -2.22338228 # occ.  2.00000000
 
ion      s      p      d    tot
  1  0.091  0.000  0.004  0.095
  2  0.032  0.000  0.007  0.039
  3  0.092  0.000  0.004  0.096
  4  0.024  0.000  0.007  0.031
  5  0.000  0.053  0.001  0.054
  6  0.000  0.053  0.001  0.054
  7  0.000  0.053  0.001  0.054
  8  0.000  0.053  0.001  0.054
tot  0.240  0.212  0.025  0.477
 
band  26 # energy   -2.22338228 # occ.  2.00000000
 
ion      s      p      d    tot
  1  0.087  0.000  0.004  0.092
  2  0.002  0.000  0.008  0.010
  3  0.034  0.000  0.007  0.041
  4  0.116  0.000  0.003  0.119
  5  0.000  0.053  0.001  0.054
  6  0.000  0.053  0.001  0.054
  7  0.000  0.053  0.001  0.054
  8  0.000  0.053  0.001  0.054
tot  0.240  0.212  0.025  0.477
 
band  27 # energy   -2.22338228 # occ.  2.00000000
 
ion      s      p      d    tot
  1  0.001  0.000  0.008  0.009
  2  0.145  0.000  0.002  0.147
  3  0.054  0.000  0.006  0.060
  4  0.039  0.000  0.007  0.046
  5  0.000  0.053  0.001  0.054
  6  0.000  0.053  0.001  0.054
  7  0.000  0.053  0.001  0.054
  8  0.000  0.053  0.001  0.054
tot  0.240  0.212  0.025  0.477
 
band  28 # energy    0.12712630 # occ.  2.00000000
 
ion      s      p      d    tot
  1  0.000  0.009  0.002  0.011
  2  0.000  0.019  0.004  0.023
  3  0.000  0.024  0.005  0.029
  4  0.000  0.020  0.004  0.024
  5  0.000  0.112  0.000  0.112
  6  0.000  0.102  0.000  0.102
  7  0.000  0.088  0.000  0.088
  8  0.000  0.071  0.000  0.071
tot  0.000  0.446  0.016  0.462
 
band  29 # energy    0.12712630 # occ.  2.00000000
 
ion      s      p      d    tot
  1  0.000  0.020  0.004  0.025
  2  0.000  0.018  0.004  0.021
  3  0.000  0.017  0.004  0.021
  4  0.000  0.017  0.004  0.021
  5  0.000  0.107  0.000  0.107
  6  0.000  0.130  0.000  0.130
  7  0.000  0.074  0.000  0.075
  8  0.000  0.062  0.000  0.062
tot  0.000  0.446  0.016  0.462
 
band  30 # energy    0.12712630 # occ.  2.00000000
 
ion      s      p      d    tot
  1  0.000  0.024  0.005  0.029
  2  0.000  0.011  0.002  0.014
  3  0.000  0.022  0.005  0.027
  4  0.000  0.015  0.003  0.018
  5  0.000  0.115  0.000  0.115
  6  0.000  0.059  0.000  0.059
  7  0.000  0.059  0.000  0.059
  8  0.000  0.141  0.000  0.141
tot  0.000  0.446  0.016  0.462
 
band  31 # energy    0.12712630 # occ.  2.00000000
 
ion      s      p      d    tot
  1  0.000  0.017  0.004  0.020
  2  0.000  0.016  0.003  0.019
  3  0.000  0.017  0.004  0.021
  4  0.000  0.023  0.005  0.027
  5  0.000  0.066  0.000  0.066
  6  0.000  0.059  0.000  0.059
  7  0.000  0.114  0.000  0.115
  8  0.000  0.134  0.000  0.135
tot  0.000  0.446  0.016  0.462
 
band  32 # energy    0.12712630 # occ.  2.00000000
 
ion      s      p      d    tot
  1  0.000  0.012  0.003  0.015
  2  0.000  0.029  0.006  0.035
  3  0.000  0.020  0.004  0.024
  4  0.000  0.011  0.002  0.014
  5  0.000  0.086  0.000  0.086
  6  0.000  0.096  0.000  0.096
  7  0.000  0.080  0.000  0.080
  8  0.000  0.112  0.000  0.112
tot  0.000  0.446  0.016  0.462
 
band  33 # energy    0.12712630 # occ.  2.00000000
 
ion      s      p      d    tot
  1  0.000  0.026  0.006  0.032
  2  0.000  0.015  0.003  0.019
  3  0.000  0.008  0.002  0.009
  4  0.000  0.023  0.005  0.028
  5  0.000  0.074  0.000  0.074
  6  0.000  0.116  0.000  0.116
  7  0.000  0.144  0.000  0.144
  8  0.000  0.040  0.000  0.040
tot  0.000  0.446  0.016  0.462
 
band  34 # energy    1.78007642 # occ.  1.99997254
 
ion      s      p      d    tot
  1  0.000  0.006  0.017  0.023
  2  0.000  0.006  0.017  0.023
  3  0.000  0.006  0.017  0.023
  4  0.000  0.006  0.017  0.023
  5  0.000  0.122  0.000  0.122
  6  0.000  0.122  0.000  0.122
  7  0.000  0.122  0.000  0.122
  8  0.000  0.122  0.000  0.122
tot  0.000  0.513  0.068  0.581
 
band  35 # energy    1.78007642 # occ.  1.99997254
 
ion      s      p      d    tot
  1  0.000  0.006  0.017  0.023
  2  0.000  0.006  0.017  0.023
  3  0.000  0.006  0.017  0.023
  4  0.000  0.006  0.017  0.023
  5  0.000  0.122  0.000  0.122
  6  0.000  0.122  0.000  0.122
  7  0.000  0.122  0.000  0.122
  8  0.000  0.122  0.000  0.122
tot  0.000  0.513  0.068  0.581
 
band  36 # energy    1.78007642 # occ.  1.99997254
 
ion      s      p      d    tot
  1  0.000  0.006  0.017  0.023
  2  0.000  0.006  0.017  0.023
  3  0.000  0.006  0.017  0.023
  4  0.000  0.006  0.017  0.023
  5  0.000  0.122  0.000  0.122
  6  0.000  0.122  0.000  0.122
  7  0.000  0.122  0.000  0.122
  8  0.000  0.122  0.000  0.122
tot  0.000  0.513  0.068  0.581
 
band  37 # energy    2.35502510 # occ.  0.00008237
 
ion      s      p      d    tot
  1  0.082  0.000  0.000  0.082
  2  0.082  0.000  0.000  0.082
  3  0.082  0.000  0.000  0.082
  4  0.082  0.000  0.000  0.082
  5  0.055  0.000  0.000  0.055
  6  0.055  0.000  0.000  0.055
  7  0.055  0.000  0.000  0.055
  8  0.055  0.000  0.000  0.055
tot  0.547  0.000  0.000  0.547
 
band  38 # energy    4.44767860 # occ.  0.00000000
 
ion      s      p      d    tot
  1  0.002  0.000  0.012  0.014
  2  0.130  0.000  0.002  0.132
  3  0.056  0.000  0.008  0.064
  4  0.027  0.000  0.010  0.037
  5  0.000  0.030  0.011  0.041
  6  0.000  0.030  0.011  0.041
  7  0.000  0.030  0.011  0.041
  8  0.000  0.030  0.011  0.041
tot  0.215  0.120  0.078  0.412
 
band  39 # energy    4.44767860 # occ.  0.00000000
 
ion      s      p      d    tot
  1  0.090  0.000  0.005  0.096
  2  0.021  0.000  0.010  0.032
  3  0.088  0.000  0.005  0.093
  4  0.015  0.000  0.011  0.026
  5  0.000  0.030  0.011  0.041
  6  0.000  0.030  0.011  0.041
  7  0.000  0.030  0.011  0.041
  8  0.000  0.030  0.011  0.041
tot  0.215  0.120  0.078  0.412
 
band  40 # energy    4.44767860 # occ.  0.00000000
 
ion      s      p      d    tot
  1  0.069  0.000  0.007  0.076
  2  0.010  0.000  0.011  0.021
  3  0.018  0.000  0.011  0.028
  4  0.119  0.000  0.003  0.122
  5  0.000  0.030  0.011  0.041
  6  0.000  0.030  0.011  0.041
  7  0.000  0.030  0.011  0.041
  8  0.000  0.030  0.011  0.041
tot  0.215  0.120  0.078  0.412
 
band  41 # energy    4.52393864 # occ.  0.00000000
 
ion      s      p      d    tot
  1  0.000  0.025  0.007  0.032
  2  0.000  0.025  0.007  0.032
  3  0.000  0.025  0.007  0.032
  4  0.000  0.025  0.007  0.032
  5  0.027  0.000  0.003  0.030
  6  0.003  0.000  0.012  0.015
  7  0.015  0.000  0.008  0.022
  8  0.002  0.000  0.013  0.014
tot  0.046  0.099  0.064  0.210
 
band  42 # energy    4.52393864 # occ.  0.00000000
 
ion      s      p      d    tot
  1  0.000  0.025  0.007  0.032
  2  0.000  0.025  0.007  0.032
  3  0.000  0.025  0.007  0.032
  4  0.000  0.025  0.007  0.032
  5  0.001  0.000  0.013  0.014
  6  0.016  0.000  0.007  0.023
  7  0.001  0.000  0.013  0.014
  8  0.028  0.000  0.003  0.031
tot  0.046  0.099  0.064  0.210
 
band  43 # energy    4.52393864 # occ.  0.00000000
 
ion      s      p      d    tot
  1  0.000  0.025  0.007  0.032
  2  0.000  0.025  0.007  0.032
  3  0.000  0.025  0.007  0.032
  4  0.000  0.025  0.007  0.032
  5  0.007  0.000  0.011  0.018
  6  0.016  0.000  0.007  0.023
  7  0.018  0.000  0.006  0.025
  8  0.005  0.000  0.011  0.016
tot  0.046  0.099  0.064  0.210
 
band  44 # energy    6.41861400 # occ.  0.00000000
 
ion      s      p      d    tot
  1  0.000  0.059  0.000  0.059
  2  0.000  0.059  0.000  0.059
  3  0.000  0.059  0.000  0.059
  4  0.000  0.059  0.000  0.059
  5  0.000  0.002  0.021  0.023
  6  0.000  0.002  0.021  0.023
  7  0.000  0.002  0.021  0.023
  8  0.000  0.002  0.021  0.023
tot  0.000  0.243  0.085  0.328
 
band  45 # energy    6.41861400 # occ.  0.00000000
 
ion      s      p      d    tot
  1  0.000  0.059  0.000  0.059
  2  0.000  0.059  0.000  0.059
  3  0.000  0.059  0.000  0.059
  4  0.000  0.059  0.000  0.059
  5  0.000  0.002  0.021  0.023
  6  0.000  0.002  0.021  0.023
  7  0.000  0.002  0.021  0.023
  8  0.000  0.002  0.021  0.023
tot  0.000  0.243  0.085  0.328
 
band  46 # energy    6.41861400 # occ.  0.00000000
 
ion      s      p      d    tot
  1  0.000  0.059  0.000  0.059
  2  0.000  0.059  0.000  0.059
  3  0.000  0.059  0.000  0.059
  4  0.000  0.059  0.000  0.059
  5  0.000  0.002  0.021  0.023
  6  0.000  0.002  0.021  0.023
  7  0.000  0.002  0.021  0.023
  8  0.000  0.002  0.021  0.023
tot  0.000  0.243  0.085  0.328
 
band  47 # energy    9.15153541 # occ.  0.00000000
 
ion      s      p      d    tot
  1  0.055  0.000  0.000  0.055
  2  0.055  0.000  0.000  0.055
  3  0.055  0.000  0.000  0.055
  4  0.055  0.000  0.000  0.055
  5  0.002  0.000  0.000  0.002
  6  0.002  0.000  0.000  0.002
  7  0.002  0.000  0.000  0.002
  8  0.002  0.000  0.000  0.002
tot  0.229  0.000  0.000  0.229
 
band  48 # energy   10.28081002 # occ.  0.00000000
 
ion      s      p      d    tot
  1  0.001  0.000  0.003  0.004
  2  0.042  0.000  0.001  0.043
  3  0.018  0.000  0.002  0.020
  4  0.009  0.000  0.002  0.011
  5  0.000  0.081  0.005  0.085
  6  0.000  0.081  0.005  0.085
  7  0.000  0.081  0.005  0.085
  8  0.000  0.081  0.005  0.085
tot  0.070  0.323  0.026  0.419
 

 k-point    2 :    0.25000000 0.00000000 0.00000000     weight = 0.09375000

band   1 # energy   -8.97612682 # occ.  2.00000000
 
ion      s      p      d    tot
  1  0.012  0.000  0.003  0.015
  2  0.012  0.000  0.003  0.015
  3  0.012  0.000  0.003  0.015
  4  0.012  0.000  0.003  0.015
  5  0.146  0.000  0.000  0.146
  6  0.146  0.000  0.000  0.146
  7  0.146  0.000  0.000  0.146
  8  0.146  0.000  0.000  0.146
tot  0.629  0.002  0.013  0.644
 
band   2 # energy   -8.66303095 # occ.  2.00000000
 
ion      s      p      d    tot
  1  0.002  0.002  0.026  0.031
  2  0.002  0.002  0.026  0.031
  3  0.002  0.002  0.026  0.031
  4  0.002  0.002  0.026  0.031
  5  0.146  0.000  0.000  0.146
  6  0.146  0.000  0.000  0.146
  7  0.146  0.000  0.000  0.146
  8  0.146  0.000  0.000  0.146
tot  0.593  0.010  0.105  0.707
 
band   3 # energy   -8.60252906 # occ.  2.00000000
 
ion      s      p      d    tot
  1  0.000  0.003  0.033  0.036
  2  0.000  0.003  0.033  0.036
  3  0.000  0.003  0.033  0.036
  4  0.000  0.003  0.033  0.036
  5  0.270  0.000  0.000  0.270
  6  0.020  0.000  0.000  0.020
  7  0.020  0.000  0.000  0.020
  8  0.270  0.000  0.000  0.270
tot  0.580  0.011  0.131  0.722
 
band   4 # energy   -8.60252906 # occ.  2.00000000
 
ion      s      p      d    tot
  1  0.000  0.003  0.033  0.036
  2  0.000  0.003  0.033  0.036
  3  0.000  0.003  0.033  0.036
  4  0.000  0.003  0.033  0.036
  5  0.020  0.000  0.000  0.020
  6  0.270  0.000  0.000  0.270
  7  0.270  0.000  0.000  0.270
  8  0.020  0.000  0.000  0.020
tot  0.580  0.011  0.131  0.722
 
band   5 # energy   -6.28790544 # occ.  2.00000000
 
ion      s      p      d    tot
  1  0.000  0.000  0.228  0.229
  2  0.000  0.000  0.228  0.229
  3  0.000  0.000  0.228  0.229
  4  0.000  0.000  0.228  0.229
  5  0.000  0.004  0.000  0.004
  6  0.000  0.004  0.000  0.004
  7  0.000  0.004  0.000  0.004
  8  0.000  0.004  0.000  0.004
tot  0.000  0.016  0.915  0.930
 
band   6 # energy   -6.28790544 # occ.  2.00000000
 
ion      s      p      d    tot
  1  0.000  0.000  0.228  0.229
  2  0.000  0.000  0.228  0.229
  3  0.000  0.000  0.228  0.229
  4  0.000  0.000  0.228  0.229
  5  0.000  0.004  0.000  0.004
  6  0.000  0.004  0.000  0.004
  7  0.000  0.004  0.000  0.004
  8  0.000  0.004  0.000  0.004
tot  0.000  0.016  0.915  0.930
 
band   7 # energy   -6.26148881 # occ.  2.00000000
 
ion      s      p      d    tot
  1  0.001  0.000  0.224  0.225
  2  0.001  0.000  0.224  0.225
  3  0.001  0.000  0.224  0.225
  4  0.001  0.000  0.224  0.225
  5  0.001  0.004  0.000  0.006
  6  0.001  0.004  0.000  0.006
  7  0.001  0.004  0.000  0.006
  8  0.001  0.004  0.000  0.006
tot  0.008  0.017  0.897  0.921
 
band   8 # energy   -6.19376751 # occ.  2.00000000
 
ion      s      p      d    tot
  1  0.000  0.000  0.233  0.233
  2  0.000  0.000  0.233  0.233
  3  0.000  0.000  0.233  0.233
  4  0.000  0.000  0.233  0.233
  5  0.000  0.002  0.000  0.002
  6  0.000  0.002  0.000  0.002
  7  0.000  0.002  0.000  0.002
  8  0.000  0.002  0.000  0.002
tot  0.000  0.009  0.934  0.943
 
band   9 # energy   -6.19376751 # occ.  2.00000000
 
ion      s      p      d    tot
  1  0.000  0.000  0.233  0.233
  2  0.000  0.000  0.233  0.233
  3  0.000  0.000  0.233  0.233
  4  0.000  0.000  0.233  0.233
  5  0.000  0.002  0.000  0.002
  6  0.000  0.002  0.000  0.002
  7  0.000  0.002  0.000  0.002
  8  0.000  0.002  0.000  0.002
tot  0.000  0.009  0.934  0.943
 
band  10 # energy   -6.19154396 # occ.  2.00000000
 
ion      s      p      d    tot
  1  0.000  0.000  0.283  0.283
  2  0.000  0.000  0.283  0.283
  3  0.000  0.000  0.180  0.180
  4  0.000  0.000  0.180  0.180
  5  0.000  0.002  0.000  0.003
  6  0.000  0.002  0.000  0.003
  7  0.000  0.002  0.000  0.003
  8  0.000  0.002  0.000  0.003
tot  0.000  0.010  0.927  0.938
 
band  11 # energy   -6.19154396 # occ.  2.00000000
 
ion      s      p      d    tot
  1  0.000  0.000  0.180  0.180
  2  0.000  0.000  0.180  0.180
  3  0.000  0.000  0.283  0.283
  4  0.000  0.000  0.283  0.283
  5  0.000  0.002  0.000  0.003
  6  0.000  0.002  0.000  0.003
  7  0.000  0.002  0.000  0.003
  8  0.000  0.002  0.000  0.003
tot  0.000  0.010  0.927  0.938
 
band  12 # energy   -6.19017300 # occ.  2.00000000
 
ion      s      p      d    tot
  1  0.000  0.000  0.234  0.234
  2  0.000  0.000  0.234  0.234
  3  0.000  0.000  0.234  0.234
  4  0.000  0.000  0.234  0.234
  5  0.000  0.003  0.000  0.003
  6  0.000  0.000  0.000  0.001
  7  0.000  0.000  0.000  0.001
  8  0.000  0.003  0.000  0.003
tot  0.000  0.007  0.936  0.943
 
band  13 # energy   -6.19017300 # occ.  2.00000000
 
ion      s      p      d    tot
  1  0.000  0.000  0.234  0.234
  2  0.000  0.000  0.234  0.234
  3  0.000  0.000  0.234  0.234
  4  0.000  0.000  0.234  0.234
  5  0.000  0.000  0.000  0.001
  6  0.000  0.003  0.000  0.003
  7  0.000  0.003  0.000  0.003
  8  0.000  0.000  0.000  0.001
tot  0.000  0.007  0.936  0.943
 
band  14 # energy   -6.16216582 # occ.  2.00000000
 
ion      s      p      d    tot
  1  0.000  0.000  0.231  0.231
  2  0.000  0.000  0.231  0.231
  3  0.000  0.000  0.231  0.231
  4  0.000  0.000  0.231  0.231
  5  0.000  0.002  0.000  0.002
  6  0.000  0.002  0.000  0.002
  7  0.000  0.002  0.000  0.002
  8  0.000  0.002  0.000  0.002
tot  0.002  0.006  0.922  0.930
 
band  15 # energy   -6.13969491 # occ.  2.00000000
 
ion      s      p      d    tot
  1  0.000  0.000  0.226  0.226
  2  0.000  0.000  0.226  0.226
  3  0.000  0.000  0.242  0.242
  4  0.000  0.000  0.242  0.242
  5  0.000  0.001  0.000  0.001
  6  0.000  0.001  0.000  0.001
  7  0.000  0.001  0.000  0.001
  8  0.000  0.001  0.000  0.001
tot  0.000  0.003  0.938  0.941
 
band  16 # energy   -6.13969491 # occ.  2.00000000
 
ion      s      p      d    tot
  1  0.000  0.000  0.242  0.242
  2  0.000  0.000  0.242  0.242
  3  0.000  0.000  0.226  0.226
  4  0.000  0.000  0.226  0.226
  5  0.000  0.001  0.000  0.001
  6  0.000  0.001  0.000  0.001
  7  0.000  0.001  0.000  0.001
  8  0.000  0.001  0.000  0.001
tot  0.000  0.003  0.938  0.941
 
band  17 # energy   -6.09587740 # occ.  2.00000000
 
ion      s      p      d    tot
  1  0.000  0.000  0.236  0.236
  2  0.000  0.000  0.236  0.236
  3  0.000  0.000  0.236  0.236
  4  0.000  0.000  0.236  0.236
  5  0.000  0.000  0.000  0.000
  6  0.000  0.000  0.000  0.000
  7  0.000  0.000  0.000  0.000
  8  0.000  0.000  0.000  0.000
tot  0.000  0.000  0.947  0.947
 
band  18 # energy   -6.08719117 # occ.  2.00000000
 
ion      s      p      d    tot
  1  0.000  0.000  0.237  0.237
  2  0.000  0.000  0.237  0.237
  3  0.000  0.000  0.237  0.237
  4  0.000  0.000  0.237  0.237
  5  0.000  0.000  0.000  0.000
  6  0.000  0.000  0.000  0.000
  7  0.000  0.000  0.000  0.000
  8  0.000  0.000  0.000  0.000
tot  0.000  0.000  0.949  0.949
 
band  19 # energy   -6.07362108 # occ.  2.00000000
 
ion      s      p      d    tot
  1  0.000  0.000  0.272  0.272
  2  0.000  0.000  0.272  0.272
  3  0.000  0.000  0.203  0.203
  4  0.000  0.000  0.203  0.203
  5  0.000  0.000  0.000  0.000
  6  0.000  0.000  0.000  0.000
  7  0.000  0.000  0.000  0.000
  8  0.000  0.000  0.000  0.000
tot  0.000  0.000  0.950  0.950
 
band  20 # energy   -6.07362108 # occ.  2.00000000
 
ion      s      p      d    tot
  1  0.000  0.000  0.203  0.203
  2  0.000  0.000  0.203  0.203
  3  0.000  0.000  0.272  0.272
  4  0.000  0.000  0.272  0.272
  5  0.000  0.000  0.000  0.000
  6  0.000  0.000  0.000  0.000
  7  0.000  0.000  0.000  0.000
  8  0.000  0.000  0.000  0.000
tot  0.000  0.000  0.950  0.950
 
band  21 # energy   -6.06914242 # occ.  2.00000000
 
ion      s      p      d    tot
  1  0.000  0.000  0.238  0.238
  2  0.000  0.000  0.238  0.238
  3  0.000  0.000  0.238  0.238
  4  0.000  0.000  0.238  0.238
  5  0.000  0.000  0.000  0.000
  6  0.000  0.000  0.000  0.000
  7  0.000  0.000  0.000  0.000
  8  0.000  0.000  0.000  0.000
tot  0.000  0.000  0.951  0.951
 
band  22 # energy   -5.82363334 # occ.  2.00000000
 
ion      s      p      d    tot
  1  0.002  0.000  0.208  0.210
  2  0.002  0.000  0.208  0.210
  3  0.002  0.000  0.208  0.210
  4  0.002  0.000  0.208  0.210
  5  0.017  0.001  0.000  0.019
  6  0.017  0.001  0.000  0.019
  7  0.017  0.001  0.000  0.019
  8  0.017  0.001  0.000  0.019
tot  0.076  0.007  0.832  0.914
 
band  23 # energy   -5.63718848 # occ.  2.00000000
 
ion      s      p      d    tot
  1  0.000  0.001  0.206  0.207
  2  0.000  0.001  0.206  0.207
  3  0.000  0.001  0.206  0.207
  4  0.000  0.001  0.206  0.207
  5  0.016  0.000  0.000  0.016
  6  0.035  0.000  0.000  0.035
  7  0.035  0.000  0.000  0.035
  8  0.016  0.000  0.000  0.016
tot  0.102  0.004  0.823  0.929
 
band  24 # energy   -5.63718848 # occ.  2.00000000
 
ion      s      p      d    tot
  1  0.000  0.001  0.206  0.207
  2  0.000  0.001  0.206  0.207
  3  0.000  0.001  0.206  0.207
  4  0.000  0.001  0.206  0.207
  5  0.035  0.000  0.000  0.035
  6  0.016  0.000  0.000  0.016
  7  0.016  0.000  0.000  0.016
  8  0.035  0.000  0.000  0.035
tot  0.102  0.004  0.823  0.929
 
band  25 # energy   -2.16820490 # occ.  2.00000000
 
ion      s      p      d    tot
  1  0.099  0.000  0.003  0.102
  2  0.099  0.000  0.003  0.102
  3  0.025  0.000  0.004  0.029
  4  0.025  0.000  0.004  0.029
  5  0.000  0.053  0.001  0.054
  6  0.000  0.053  0.001  0.054
  7  0.000  0.053  0.001  0.054
  8  0.000  0.053  0.001  0.054
tot  0.248  0.213  0.018  0.478
 
band  26 # energy   -2.16820490 # occ.  2.00000000
 
ion      s      p      d    tot
  1  0.025  0.000  0.004  0.029
  2  0.025  0.000  0.004  0.029
  3  0.099  0.000  0.003  0.102
  4  0.099  0.000  0.003  0.102
  5  0.000  0.053  0.001  0.054
  6  0.000  0.053  0.001  0.054
  7  0.000  0.053  0.001  0.054
  8  0.000  0.053  0.001  0.054
tot  0.248  0.213  0.018  0.478
 
band  27 # energy   -1.79563599 # occ.  2.00000000
 
ion      s      p      d    tot
  1  0.055  0.001  0.010  0.065
  2  0.055  0.001  0.010  0.065
  3  0.055  0.001  0.010  0.065
  4  0.055  0.001  0.010  0.065
  5  0.007  0.053  0.001  0.061
  6  0.007  0.053  0.001  0.061
  7  0.007  0.053  0.001  0.061
  8  0.007  0.053  0.001  0.061
tot  0.247  0.215  0.041  0.503
 
band  28 # energy   -0.09087957 # occ.  2.00000000
 
ion      s      p      d    tot
  1  0.001  0.015  0.006  0.022
  2  0.001  0.015  0.006  0.022
  3  0.001  0.017  0.006  0.024
  4  0.001  0.017  0.006  0.024
  5  0.000  0.088  0.000  0.088
  6  0.000  0.088  0.000  0.088
  7  0.000  0.088  0.000  0.088
  8  0.000  0.088  0.000  0.088
tot  0.003  0.416  0.026  0.445
 
band  29 # energy   -0.09087957 # occ.  2.00000000
 
ion      s      p      d    tot
  1  0.001  0.017  0.006  0.024
  2  0.001  0.017  0.006  0.024
  3  0.001  0.015  0.006  0.022
  4  0.001  0.015  0.006  0.022
  5  0.000  0.088  0.000  0.088
  6  0.000  0.088  0.000  0.088
  7  0.000  0.088  0.000  0.088
  8  0.000  0.088  0.000  0.088
tot  0.003  0.416  0.026  0.445
 
band  30 # energy   -0.02176653 # occ.  2.00000000
 
ion      s      p      d    tot
  1  0.000  0.019  0.003  0.022
  2  0.000  0.019  0.003  0.022
  3  0.000  0.019  0.003  0.022
  4  0.000  0.019  0.003  0.022
  5  0.000  0.018  0.001  0.019
  6  0.000  0.157  0.000  0.157
  7  0.000  0.157  0.000  0.157
  8  0.000  0.018  0.001  0.019
tot  0.000  0.426  0.013  0.439
 
band  31 # energy   -0.02176653 # occ.  2.00000000
 
ion      s      p      d    tot
  1  0.000  0.019  0.003  0.022
  2  0.000  0.019  0.003  0.022
  3  0.000  0.019  0.003  0.022
  4  0.000  0.019  0.003  0.022
  5  0.000  0.157  0.000  0.157
  6  0.000  0.018  0.001  0.019
  7  0.000  0.018  0.001  0.019
  8  0.000  0.157  0.000  0.157
tot  0.000  0.426  0.013  0.439
 
band  32 # energy    0.31574491 # occ.  2.00000000
 
ion      s      p      d    tot
  1  0.000  0.017  0.006  0.023