   2   2   1   0
  0.3405476E+02  0.4583961E-09  0.4583961E-09  0.4583961E-09  0.5000000E-15
  1.000000000000000E-004
  CAR 
 Name                                    
     15.58622432    -10.25911714  301      2.25433568      1.00000000
    -10.259  0.0000E+00  0.0000E+00
    -10.173  0.0000E+00  0.0000E+00
    -10.087  0.0000E+00  0.0000E+00
    -10.001  0.0000E+00  0.0000E+00
     -9.915  0.0000E+00  0.0000E+00
     -9.828  0.0000E+00  0.0000E+00
     -9.742  0.0000E+00  0.0000E+00
     -9.656  0.0000E+00  0.0000E+00
     -9.570  0.0000E+00  0.0000E+00
     -9.484  0.0000E+00  0.0000E+00
     -9.398  0.0000E+00  0.0000E+00
     -9.311  0.0000E+00  0.0000E+00
     -9.225  0.0000E+00  0.0000E+00
     -9.139  0.4833E-15  0.4163E-16
     -9.053  0.1075E+00  0.9259E-02
     -8.967  0.8555E+00  0.8296E-01
     -8.881  0.6399E+00  0.1389E+00
     -8.795  0.1395E+01  0.2591E+00
     -8.708  0.3334E+01  0.5463E+00
     -8.622  0.8812E+01  0.1306E+01
     -8.536  0.8059E+01  0.2000E+01
     -8.450  0.0000E+00  0.2000E+01
     -8.364  0.0000E+00  0.2000E+01
     -8.278  0.0000E+00  0.2000E+01
     -8.191  0.0000E+00  0.2000E+01
     -8.105  0.0000E+00  0.2000E+01
     -8.019  0.0000E+00  0.2000E+01
     -7.933  0.0000E+00  0.2000E+01
     -7.847  0.0000E+00  0.2000E+01
     -7.761  0.0000E+00  0.2000E+01
     -7.675  0.0000E+00  0.2000E+01
     -7.588  0.0000E+00  0.2000E+01
     -7.502  0.0000E+00  0.2000E+01
     -7.416  0.0000E+00  0.2000E+01
     -7.330  0.0000E+00  0.2000E+01
     -7.244  0.0000E+00  0.2000E+01
     -7.158  0.0000E+00  0.2000E+01
     -7.072  0.0000E+00  0.2000E+01
     -6.985  0.0000E+00  0.2000E+01
     -6.899  0.0000E+00  0.2000E+01
     -6.813  0.0000E+00  0.2000E+01
     -6.727  0.0000E+00  0.2000E+01
     -6.641  0.0000E+00  0.2000E+01
     -6.555  0.0000E+00  0.2000E+01
     -6.468  0.0000E+00  0.2000E+01
     -6.382  0.0000E+00  0.2000E+01
     -6.296  0.0000E+00  0.2000E+01
     -6.210  0.0000E+00  0.2000E+01
     -6.124  0.1072E+01  0.2092E+01
     -6.038  0.2904E+02  0.4678E+01
     -5.952  0.1484E+02  0.6257E+01
     -5.865  0.3498E+02  0.9271E+01
     -5.779  0.7793E+01  0.1053E+02
     -5.693  0.3787E+00  0.1058E+02
     -5.607  0.8045E-01  0.1061E+02
     -5.521  0.5665E+01  0.1110E+02
     -5.435  0.4812E+01  0.1151E+02
     -5.349  0.4227E+01  0.1189E+02
     -5.262  0.1255E+01  0.1200E+02
     -5.176  0.0000E+00  0.1200E+02
     -5.090  0.0000E+00  0.1200E+02
     -5.004  0.0000E+00  0.1200E+02
     -4.918  0.0000E+00  0.1200E+02
     -4.832  0.0000E+00  0.1200E+02
     -4.745  0.0000E+00  0.1200E+02
     -4.659  0.0000E+00  0.1200E+02
     -4.573  0.0000E+00  0.1200E+02
     -4.487  0.0000E+00  0.1200E+02
     -4.401  0.0000E+00  0.1200E+02
     -4.315  0.0000E+00  0.1200E+02
     -4.229  0.0000E+00  0.1200E+02
     -4.142  0.0000E+00  0.1200E+02
     -4.056  0.0000E+00  0.1200E+02
     -3.970  0.0000E+00  0.1200E+02
     -3.884  0.0000E+00  0.1200E+02
     -3.798  0.0000E+00  0.1200E+02
     -3.712  0.0000E+00  0.1200E+02
     -3.625  0.0000E+00  0.1200E+02
     -3.539  0.0000E+00  0.1200E+02
     -3.453  0.0000E+00  0.1200E+02
     -3.367  0.0000E+00  0.1200E+02
     -3.281  0.0000E+00  0.1200E+02
     -3.195  0.0000E+00  0.1200E+02
     -3.109  0.0000E+00  0.1200E+02
     -3.022  0.0000E+00  0.1200E+02
     -2.936  0.0000E+00  0.1200E+02
     -2.850  0.0000E+00  0.1200E+02
     -2.764  0.0000E+00  0.1200E+02
     -2.678  0.0000E+00  0.1200E+02
     -2.592  0.0000E+00  0.1200E+02
     -2.506  0.0000E+00  0.1200E+02
     -2.419  0.0000E+00  0.1200E+02
     -2.333  0.4092E+00  0.1204E+02
     -2.247  0.5751E-03  0.1204E+02
     -2.161  0.3230E+00  0.1206E+02
     -2.075  0.6446E+01  0.1262E+02
     -1.989  0.3861E+01  0.1295E+02
     -1.902  0.1225E-05  0.1295E+02
     -1.816  0.2579E+01  0.1318E+02
     -1.730  0.2538E-03  0.1318E+02
     -1.644  0.2579E+01  0.1340E+02
     -1.558  0.4773E-16  0.1340E+02
     -1.472  0.8598E+00  0.1347E+02
     -1.386  0.6122E+00  0.1352E+02
     -1.299  0.0000E+00  0.1353E+02
     -1.213  0.0000E+00  0.1353E+02
     -1.127  0.0000E+00  0.1353E+02
     -1.041  0.1881E+01  0.1369E+02
     -0.955  0.0000E+00  0.1375E+02
     -0.869  0.0000E+00  0.1375E+02
     -0.782  0.0000E+00  0.1375E+02
     -0.696  0.7159E-16  0.1375E+02
     -0.610  0.1290E+01  0.1386E+02
     -0.524  0.5538E-02  0.1386E+02
     -0.438  0.1284E+01  0.1397E+02
     -0.352  0.0000E+00  0.1397E+02
     -0.266  0.2481E+01  0.1419E+02
     -0.179  0.0000E+00  0.1419E+02
     -0.093  0.8353E+00  0.1427E+02
     -0.007  0.3234E+01  0.1458E+02
      0.079  0.2579E+01  0.1486E+02
      0.165  0.0000E+00  0.1486E+02
      0.251  0.3865E-01  0.1486E+02
      0.337  0.3510E+01  0.1517E+02
      0.424  0.7280E+00  0.1527E+02
      0.510  0.5092E+01  0.1571E+02
      0.596  0.2534E+01  0.1594E+02
      0.682  0.1290E+01  0.1605E+02
      0.768  0.3930E-08  0.1605E+02
      0.854  0.3876E+01  0.1638E+02
      0.941  0.1283E+01  0.1649E+02
      1.027  0.2676E+01  0.1672E+02
      1.113  0.2770E+01  0.1696E+02
      1.199  0.2292E+01  0.1716E+02
      1.285  0.6873E-14  0.1716E+02
      1.371  0.3280E+01  0.1744E+02
      1.457  0.0000E+00  0.1745E+02
      1.544  0.2794E+01  0.1769E+02
      1.630  0.0000E+00  0.1771E+02
      1.716  0.0000E+00  0.1771E+02
      1.802  0.1014E+01  0.1780E+02
      1.888  0.1698E-04  0.1782E+02
      1.974  0.1720E+01  0.1797E+02
      2.060  0.0000E+00  0.1797E+02
      2.147  0.9670E-01  0.1798E+02
      2.233  0.0000E+00  0.1800E+02
      2.319  0.0000E+00  0.1800E+02
      2.405  0.0000E+00  0.1800E+02
      2.491  0.0000E+00  0.1800E+02
      2.577  0.0000E+00  0.1800E+02
      2.664  0.4666E-07  0.1800E+02
      2.750  0.1075E+00  0.1801E+02
      2.836  0.0000E+00  0.1801E+02
      2.922  0.0000E+00  0.1801E+02
      3.008  0.0000E+00  0.1801E+02
      3.094  0.0000E+00  0.1801E+02
      3.180  0.0000E+00  0.1801E+02
      3.267  0.0000E+00  0.1801E+02
      3.353  0.0000E+00  0.1801E+02
      3.439  0.0000E+00  0.1801E+02
      3.525  0.0000E+00  0.1801E+02
      3.611  0.0000E+00  0.1801E+02
      3.697  0.0000E+00  0.1801E+02
      3.784  0.3183E-03  0.1801E+02
      3.870  0.1288E+01  0.1812E+02
      3.956  0.8598E+00  0.1819E+02
      4.042  0.0000E+00  0.1819E+02
      4.128  0.0000E+00  0.1819E+02
      4.214  0.0000E+00  0.1819E+02
      4.300  0.0000E+00  0.1819E+02
      4.387  0.0000E+00  0.1819E+02
      4.473  0.7960E-08  0.1819E+02
      4.559  0.6449E+00  0.1825E+02
      4.645  0.3224E+00  0.1828E+02
      4.731  0.1616E+01  0.1842E+02
      4.817  0.3223E+01  0.1869E+02
      4.903  0.7696E+01  0.1936E+02
      4.990  0.0000E+00  0.1936E+02
      5.076  0.1213E+01  0.1947E+02
      5.162  0.3638E+00  0.1950E+02
      5.248  0.0000E+00  0.1953E+02
      5.334  0.0000E+00  0.1953E+02
      5.420  0.0000E+00  0.1953E+02
      5.507  0.0000E+00  0.1953E+02
      5.593  0.3978E-01  0.1953E+02
      5.679  0.2540E+01  0.1975E+02
      5.765  0.6891E+01  0.2034E+02
      5.851  0.1290E+01  0.2047E+02
      5.937  0.0000E+00  0.2047E+02
      6.023  0.9509E-07  0.2047E+02
      6.110  0.2579E+01  0.2069E+02
      6.196  0.2579E+01  0.2092E+02
      6.282  0.0000E+00  0.2092E+02
      6.368  0.0000E+00  0.2092E+02
      6.454  0.0000E+00  0.2092E+02
      6.540  0.0000E+00  0.2092E+02
      6.627  0.9501E-02  0.2092E+02
      6.713  0.3654E+01  0.2123E+02
      6.799  0.3416E+01  0.2157E+02
      6.885  0.0000E+00  0.2157E+02
      6.971  0.9806E+00  0.2166E+02
      7.057  0.1713E+01  0.2194E+02
      7.143  0.2587E+00  0.2197E+02
      7.230  0.1207E+01  0.2216E+02
      7.316  0.2853E+01  0.2241E+02
      7.402  0.2287E+01  0.2261E+02
      7.488  0.5240E-07  0.2261E+02
      7.574  0.1290E+01  0.2272E+02
      7.660  0.1290E+01  0.2283E+02
      7.746  0.4466E+01  0.2322E+02
      7.833  0.2579E+01  0.2350E+02
      7.919  0.0000E+00  0.2350E+02
      8.005  0.2446E+01  0.2371E+02
      8.091  0.0000E+00  0.2372E+02
      8.177  0.2311E+01  0.2392E+02
      8.263  0.8598E+00  0.2402E+02
      8.350  0.1413E+01  0.2414E+02
      8.436  0.0000E+00  0.2424E+02
      8.522  0.0000E+00  0.2424E+02
      8.608  0.2577E+01  0.2446E+02
      8.694  0.2689E+00  0.2449E+02
      8.780  0.0000E+00  0.2457E+02
      8.866  0.8939E-04  0.2457E+02
      8.953  0.1290E+01  0.2469E+02
      9.039  0.5589E+01  0.2517E+02
      9.125  0.0000E+00  0.2517E+02
      9.211  0.2247E+00  0.2519E+02
      9.297  0.1049E+01  0.2531E+02
      9.383  0.7521E+00  0.2551E+02
      9.469  0.2612E+01  0.2573E+02
      9.556  0.2537E+01  0.2595E+02
      9.642  0.0000E+00  0.2595E+02
      9.728  0.1949E+00  0.2597E+02
      9.814  0.3642E+01  0.2628E+02
      9.900  0.1224E+00  0.2630E+02
      9.986  0.4548E+01  0.2669E+02
     10.073  0.8593E+00  0.2681E+02
     10.159  0.0000E+00  0.2681E+02
     10.245  0.2572E+01  0.2703E+02
     10.331  0.6608E-09  0.2703E+02
     10.417  0.8598E+00  0.2710E+02
     10.503  0.4711E-08  0.2710E+02
     10.589  0.4537E+01  0.2749E+02
     10.676  0.0000E+00  0.2751E+02
     10.762  0.7011E-03  0.2751E+02
     10.848  0.2901E+01  0.2776E+02
     10.934  0.1057E-01  0.2776E+02
     11.020  0.2999E+01  0.2802E+02
     11.106  0.3870E+01  0.2835E+02
     11.193  0.3869E+01  0.2869E+02
     11.279  0.0000E+00  0.2869E+02
     11.365  0.0000E+00  0.2869E+02
     11.451  0.4477E-06  0.2869E+02
     11.537  0.2150E+00  0.2870E+02
     11.623  0.1290E+01  0.2881E+02
     11.709  0.3000E-01  0.2882E+02
     11.796  0.4484E+01  0.2920E+02
     11.882  0.2579E+01  0.2943E+02
     11.968  0.1157E-05  0.2943E+02
     12.054  0.2579E+01  0.2965E+02
     12.140  0.0000E+00  0.2965E+02
     12.226  0.0000E+00  0.2965E+02
     12.312  0.2568E+01  0.2987E+02
     12.399  0.4083E+01  0.3022E+02
     12.485  0.2711E+01  0.3046E+02
     12.571  0.2448E+01  0.3067E+02
     12.657  0.0000E+00  0.3067E+02
     12.743  0.1020E+00  0.3068E+02
     12.829  0.2477E+01  0.3089E+02
     12.916  0.1146E-01  0.3089E+02
     13.002  0.3110E+00  0.3092E+02
     13.088  0.6353E-04  0.3092E+02
     13.174  0.1290E+01  0.3103E+02
     13.260  0.2088E+01  0.3121E+02
     13.346  0.1068E-02  0.3125E+02
     13.432  0.1289E+01  0.3136E+02
     13.519  0.5159E+01  0.3181E+02
     13.605  0.2929E+00  0.3183E+02
     13.691  0.0000E+00  0.3183E+02
     13.777  0.0000E+00  0.3183E+02
     13.863  0.0000E+00  0.3183E+02
     13.949  0.6441E+00  0.3189E+02
     14.036  0.0000E+00  0.3189E+02
     14.122  0.1432E-15  0.3189E+02
     14.208  0.1290E+01  0.3200E+02
     14.294  0.0000E+00  0.3200E+02
     14.380  0.0000E+00  0.3200E+02
     14.466  0.0000E+00  0.3200E+02
     14.552  0.0000E+00  0.3200E+02
     14.639  0.0000E+00  0.3200E+02
     14.725  0.0000E+00  0.3200E+02
     14.811  0.0000E+00  0.3200E+02
     14.897  0.0000E+00  0.3200E+02
     14.983  0.0000E+00  0.3200E+02
     15.069  0.0000E+00  0.3200E+02
     15.155  0.0000E+00  0.3200E+02
     15.242  0.0000E+00  0.3200E+02
     15.328  0.0000E+00  0.3200E+02
     15.414  0.0000E+00  0.3200E+02
     15.500  0.0000E+00  0.3200E+02
     15.586  0.0000E+00  0.3200E+02
     15.58622432    -10.25911714  301      2.25433568      1.00000000
    -10.259  0.0000E+00  0.0000E+00  0.0000E+00
    -10.173  0.0000E+00  0.0000E+00  0.0000E+00
    -10.087  0.0000E+00  0.0000E+00  0.0000E+00
    -10.001  0.0000E+00  0.0000E+00  0.0000E+00
     -9.915  0.0000E+00  0.0000E+00  0.0000E+00
     -9.828  0.0000E+00  0.0000E+00  0.0000E+00
     -9.742  0.0000E+00  0.0000E+00  0.0000E+00
     -9.656  0.0000E+00  0.0000E+00  0.0000E+00
     -9.570  0.0000E+00  0.0000E+00  0.0000E+00
     -9.484  0.0000E+00  0.0000E+00  0.0000E+00
     -9.398  0.0000E+00  0.0000E+00  0.0000E+00
     -9.311  0.0000E+00  0.0000E+00  0.0000E+00
     -9.225  0.0000E+00  0.0000E+00  0.0000E+00
     -9.139  0.3061E-16  0.5065E-27  0.1401E-26
     -9.053  0.6809E-02  0.1126E-12  0.3115E-12
     -8.967  0.4555E-01  0.2157E-02  0.1487E-01
     -8.881  0.3185E-01  0.2167E-02  0.1508E-01
     -8.795  0.5261E-01  0.8487E-02  0.6740E-01
     -8.708  0.1008E+00  0.2560E-01  0.2166E+00
     -8.622  0.1310E+00  0.9444E-01  0.9071E+00
     -8.536  0.2831E-01  0.1045E+00  0.1068E+01
     -8.450  0.0000E+00  0.0000E+00  0.0000E+00
     -8.364  0.0000E+00  0.0000E+00  0.0000E+00
     -8.278  0.0000E+00  0.0000E+00  0.0000E+00
     -8.191  0.0000E+00  0.0000E+00  0.0000E+00
     -8.105  0.0000E+00  0.0000E+00  0.0000E+00
     -8.019  0.0000E+00  0.0000E+00  0.0000E+00
     -7.933  0.0000E+00  0.0000E+00  0.0000E+00
     -7.847  0.0000E+00  0.0000E+00  0.0000E+00
     -7.761  0.0000E+00  0.0000E+00  0.0000E+00
     -7.675  0.0000E+00  0.0000E+00  0.0000E+00
     -7.588  0.0000E+00  0.0000E+00  0.0000E+00
     -7.502  0.0000E+00  0.0000E+00  0.0000E+00
     -7.416  0.0000E+00  0.0000E+00  0.0000E+00
     -7.330  0.0000E+00  0.0000E+00  0.0000E+00
     -7.244  0.0000E+00  0.0000E+00  0.0000E+00
     -7.158  0.0000E+00  0.0000E+00  0.0000E+00
     -7.072  0.0000E+00  0.0000E+00  0.0000E+00
     -6.985  0.0000E+00  0.0000E+00  0.0000E+00
     -6.899  0.0000E+00  0.0000E+00  0.0000E+00
     -6.813  0.0000E+00  0.0000E+00  0.0000E+00
     -6.727  0.0000E+00  0.0000E+00  0.0000E+00
     -6.641  0.0000E+00  0.0000E+00  0.0000E+00
     -6.555  0.0000E+00  0.0000E+00  0.0000E+00
     -6.468  0.0000E+00  0.0000E+00  0.0000E+00
     -6.382  0.0000E+00  0.0000E+00  0.0000E+00
     -6.296  0.0000E+00  0.0000E+00  0.0000E+00
     -6.210  0.0000E+00  0.0000E+00  0.0000E+00
     -6.124  0.1735E-10  0.4419E-03  0.9705E+00
     -6.038  0.1127E-01  0.1314E-01  0.2654E+02
     -5.952  0.3814E-02  0.7423E-02  0.1370E+02
     -5.865  0.2393E-01  0.8794E-03  0.3277E+02
     -5.779  0.3310E-01  0.1774E-02  0.7111E+01
     -5.693  0.4074E-02  0.5313E-03  0.3166E+00
     -5.607  0.8239E-03  0.1221E-03  0.6735E-01
     -5.521  0.5580E-01  0.9861E-02  0.4722E+01
     -5.435  0.2966E-01  0.1374E-01  0.3972E+01
     -5.349  0.1478E-01  0.1456E-01  0.3471E+01
     -5.262  0.1462E-14  0.5701E-02  0.1020E+01
     -5.176  0.0000E+00  0.0000E+00  0.0000E+00
     -5.090  0.0000E+00  0.0000E+00  0.0000E+00
     -5.004  0.0000E+00  0.0000E+00  0.0000E+00
     -4.918  0.0000E+00  0.0000E+00  0.0000E+00
     -4.832  0.0000E+00  0.0000E+00  0.0000E+00
     -4.745  0.0000E+00  0.0000E+00  0.0000E+00
     -4.659  0.0000E+00  0.0000E+00  0.0000E+00
     -4.573  0.0000E+00  0.0000E+00  0.0000E+00
     -4.487  0.0000E+00  0.0000E+00  0.0000E+00
     -4.401  0.0000E+00  0.0000E+00  0.0000E+00
     -4.315  0.0000E+00  0.0000E+00  0.0000E+00
     -4.229  0.0000E+00  0.0000E+00  0.0000E+00
     -4.142  0.0000E+00  0.0000E+00  0.0000E+00
     -4.056  0.0000E+00  0.0000E+00  0.0000E+00
     -3.970  0.0000E+00  0.0000E+00  0.0000E+00
     -3.884  0.0000E+00  0.0000E+00  0.0000E+00
     -3.798  0.0000E+00  0.0000E+00  0.0000E+00
     -3.712  0.0000E+00  0.0000E+00  0.0000E+00
     -3.625  0.0000E+00  0.0000E+00  0.0000E+00
     -3.539  0.0000E+00  0.0000E+00  0.0000E+00
     -3.453  0.0000E+00  0.0000E+00  0.0000E+00
     -3.367  0.0000E+00  0.0000E+00  0.0000E+00
     -3.281  0.0000E+00  0.0000E+00  0.0000E+00
     -3.195  0.0000E+00  0.0000E+00  0.0000E+00
     -3.109  0.0000E+00  0.0000E+00  0.0000E+00
     -3.022  0.0000E+00  0.0000E+00  0.0000E+00
     -2.936  0.0000E+00  0.0000E+00  0.0000E+00
     -2.850  0.0000E+00  0.0000E+00  0.0000E+00
     -2.764  0.0000E+00  0.0000E+00  0.0000E+00
     -2.678  0.0000E+00  0.0000E+00  0.0000E+00
     -2.592  0.0000E+00  0.0000E+00  0.0000E+00
     -2.506  0.0000E+00  0.0000E+00  0.0000E+00
     -2.419  0.0000E+00  0.0000E+00  0.0000E+00
     -2.333  0.6961E-01  0.1078E-01  0.3567E-04
     -2.247  0.1440E-03  0.7589E-16  0.1733E-04
     -2.161  0.8088E-01  0.2219E-05  0.9717E-02
     -2.075  0.1440E+01  0.7801E-01  0.6044E-01
     -1.989  0.9362E+00  0.1877E-01  0.8566E-01
     -1.902  0.2217E-06  0.2690E-07  0.2859E-07
     -1.816  0.4666E+00  0.5661E-01  0.6017E-01
     -1.730  0.5409E-04  0.2876E-05  0.8933E-05
     -1.644  0.5497E+00  0.2923E-01  0.9078E-01
     -1.558  0.7143E-17  0.1339E-17  0.1806E-17
     -1.472  0.1287E+00  0.2413E-01  0.3252E-01
     -1.386  0.1291E+00  0.3830E-02  0.3598E-01
     -1.299  0.0000E+00  0.0000E+00  0.0000E+00
     -1.213  0.0000E+00  0.0000E+00  0.0000E+00
     -1.127  0.0000E+00  0.0000E+00  0.0000E+00
     -1.041  0.3170E+00  0.3692E-01  0.9813E-01
     -0.955  0.0000E+00  0.0000E+00  0.0000E+00
     -0.869  0.0000E+00  0.0000E+00  0.0000E+00
     -0.782  0.0000E+00  0.0000E+00  0.0000E+00
     -0.696  0.1120E-16  0.1544E-17  0.3949E-17
     -0.610  0.2017E+00  0.2782E-01  0.7114E-01
     -0.524  0.2578E-04  0.4050E-03  0.1514E-03
     -0.438  0.5978E-02  0.9392E-01  0.3511E-01
     -0.352  0.0000E+00  0.0000E+00  0.0000E+00
     -0.266  0.4107E-01  0.1718E+00  0.7633E-01
     -0.179  0.0000E+00  0.0000E+00  0.0000E+00
     -0.093  0.1981E-02  0.5823E-01  0.3092E-01
     -0.007  0.1615E-01  0.2523E+00  0.6901E-01
      0.079  0.3538E-01  0.1841E+00  0.7717E-01
      0.165  0.0000E+00  0.0000E+00  0.0000E+00
      0.251  0.7112E-17  0.3165E-02  0.6687E-03
      0.337  0.1594E+00  0.2055E+00  0.1343E+00
      0.424  0.9105E-01  0.1861E-01  0.4180E-01
      0.510  0.9191E-01  0.3542E+00  0.1668E+00
      0.596  0.3285E-02  0.1921E+00  0.7883E-01
      0.682  0.9701E-16  0.9825E-01  0.3943E-01
      0.768  0.7721E-11  0.2859E-09  0.1408E-09
      0.854  0.1051E-01  0.2793E+00  0.1421E+00
      0.941  0.1739E-01  0.8206E-01  0.5759E-01
      1.027  0.5841E-01  0.1600E+00  0.1248E+00
      1.113  0.1002E-15  0.1932E+00  0.1119E+00
      1.199  0.1124E-15  0.1533E+00  0.1027E+00
      1.285  0.1210E-30  0.4347E-15  0.3301E-15
      1.371  0.1331E-15  0.2073E+00  0.1573E+00
      1.457  0.0000E+00  0.0000E+00  0.0000E+00
      1.544  0.4248E-15  0.1565E+00  0.1565E+00
      1.630  0.0000E+00  0.0000E+00  0.0000E+00
      1.716  0.0000E+00  0.0000E+00  0.0000E+00
      1.802  0.1309E-16  0.4804E-01  0.6368E-01
      1.888  0.1270E-20  0.6885E-06  0.1171E-05
      1.974  0.1286E-15  0.6972E-01  0.1186E+00
      2.060  0.0000E+00  0.0000E+00  0.0000E+00
      2.147  0.5824E-17  0.2692E-02  0.7550E-02
      2.233  0.0000E+00  0.0000E+00  0.0000E+00
      2.319  0.0000E+00  0.0000E+00  0.0000E+00
      2.405  0.0000E+00  0.0000E+00  0.0000E+00
      2.491  0.0000E+00  0.0000E+00  0.0000E+00
      2.577  0.0000E+00  0.0000E+00  0.0000E+00
      2.664  0.1452E-07  0.1024E-23  0.1985E-23
      2.750  0.3345E-01  0.2359E-17  0.4572E-17
      2.836  0.0000E+00  0.0000E+00  0.0000E+00
      2.922  0.0000E+00  0.0000E+00  0.0000E+00
      3.008  0.0000E+00  0.0000E+00  0.0000E+00
      3.094  0.0000E+00  0.0000E+00  0.0000E+00
      3.180  0.0000E+00  0.0000E+00  0.0000E+00
      3.267  0.0000E+00  0.0000E+00  0.0000E+00
      3.353  0.0000E+00  0.0000E+00  0.0000E+00
      3.439  0.0000E+00  0.0000E+00  0.0000E+00
      3.525  0.0000E+00  0.0000E+00  0.0000E+00
      3.611  0.0000E+00  0.0000E+00  0.0000E+00
      3.697  0.0000E+00  0.0000E+00  0.0000E+00
      3.784  0.7814E-04  0.1023E-04  0.3019E-05
      3.870  0.2888E+00  0.4208E-01  0.8958E-02
      3.956  0.2033E+00  0.3448E-01  0.4582E-02
      4.042  0.0000E+00  0.0000E+00  0.0000E+00
      4.128  0.0000E+00  0.0000E+00  0.0000E+00
      4.214  0.0000E+00  0.0000E+00  0.0000E+00
      4.300  0.0000E+00  0.0000E+00  0.0000E+00
      4.387  0.0000E+00  0.0000E+00  0.0000E+00
      4.473  0.1592E-08  0.7412E-10  0.1279E-09
      4.559  0.1290E+00  0.6004E-02  0.1036E-01
      4.645  0.1413E-06  0.3165E-01  0.1150E-01
      4.731  0.3438E+00  0.5462E-01  0.1794E-01
      4.817  0.5878E+00  0.1455E+00  0.5654E-01
      4.903  0.1326E+01  0.3379E+00  0.1479E+00
      4.990  0.0000E+00  0.0000E+00  0.0000E+00
      5.076  0.1676E+00  0.6847E-01  0.3181E-01
      5.162  0.3145E-01  0.2062E-01  0.9780E-02
      5.248  0.0000E+00  0.0000E+00  0.0000E+00
      5.334  0.0000E+00  0.0000E+00  0.0000E+00
      5.420  0.0000E+00  0.0000E+00  0.0000E+00
      5.507  0.0000E+00  0.0000E+00  0.0000E+00
      5.593  0.9445E-02  0.4551E-03  0.6366E-03
      5.679  0.6030E+00  0.2906E-01  0.4064E-01
      5.765  0.1045E+01  0.3164E+00  0.1502E+00
      5.851  0.1691E-14  0.1065E+00  0.5113E-01
      5.937  0.0000E+00  0.0000E+00  0.0000E+00
      6.023  0.4231E-08  0.1235E-07  0.1193E-08
      6.110  0.1148E+00  0.3351E+00  0.3236E-01
      6.196  0.1841E-02  0.2985E+00  0.7037E-01
      6.282  0.0000E+00  0.0000E+00  0.0000E+00
      6.368  0.0000E+00  0.0000E+00  0.0000E+00
      6.454  0.0000E+00  0.0000E+00  0.0000E+00
      6.540  0.0000E+00  0.0000E+00  0.0000E+00
      6.627  0.4978E-05  0.7006E-03  0.3379E-03
      6.713  0.3311E-01  0.3435E+00  0.1099E+00
      6.799  0.1157E+00  0.3497E+00  0.8123E-01
      6.885  0.0000E+00  0.0000E+00  0.0000E+00
      6.971  0.1383E-01  0.8976E-01  0.2926E-01
      7.057  0.1001E-16  0.3979E+00  0.1109E-01
      7.143  0.2762E-01  0.5507E-02  0.3677E-02
      7.230  0.3152E-17  0.2769E+00  0.1017E-01
      7.316  0.3906E-04  0.4746E+00  0.7514E-01
      7.402  0.3055E-03  0.2153E+00  0.6769E-01
      7.488  0.1723E-09  0.6158E-08  0.1041E-08
      7.574  0.4240E-02  0.1516E+00  0.2563E-01
      7.660  0.1264E-19  0.2754E+00  0.1494E-01
      7.746  0.9649E-03  0.6368E+00  0.1226E+00
      7.833  0.1203E+00  0.2667E+00  0.4225E-01
      7.919  0.0000E+00  0.0000E+00  0.0000E+00
      8.005  0.1290E-17  0.3666E+00  0.7676E-01
      8.091  0.0000E+00  0.0000E+00  0.0000E+00
      8.177  0.4757E-16  0.4169E+00  0.5053E-01
      8.263  0.2969E-01  0.4894E-01  0.1342E-01
      8.350  0.4883E-01  0.9232E-01  0.3339E-01
      8.436  0.0000E+00  0.0000E+00  0.0000E+00
      8.522  0.0000E+00  0.0000E+00  0.0000E+00
      8.608  0.5391E-01  0.2108E+00  0.7704E-01
      8.694  0.1430E-17  0.3760E-01  0.6671E-02
      8.780  0.0000E+00  0.0000E+00  0.0000E+00
      8.866  0.1048E-19  0.1432E-04  0.1813E-05
      8.953  0.1988E-05  0.2067E+00  0.2616E-01
      9.039  0.1485E+00  0.4412E+00  0.1599E+00
      9.125  0.0000E+00  0.0000E+00  0.0000E+00
      9.211  0.8251E-04  0.1654E-02  0.1436E-01
      9.297  0.2676E-03  0.1137E+00  0.3932E-01
      9.383  0.5335E-01  0.2807E-02  0.2244E-01
      9.469  0.4194E-02  0.4681E+00  0.6804E-01
      9.556  0.8408E-03  0.4509E+00  0.5768E-01
      9.642  0.0000E+00  0.0000E+00  0.0000E+00
      9.728  0.9683E-17  0.3017E-01  0.4712E-02
      9.814  0.9801E-15  0.3708E+00  0.1565E+00
      9.900  0.1410E-02  0.8775E-02  0.5200E-02
      9.986  0.2858E-01  0.4709E+00  0.1893E+00
     10.073  0.7206E-01  0.1383E-01  0.1154E-01
     10.159  0.0000E+00  0.0000E+00  0.0000E+00
     10.245  0.3127E-01  0.9233E-01  0.1066E+00
     10.331  0.7879E-10  0.4130E-10  0.2466E-11
     10.417  0.1025E+00  0.5374E-01  0.3209E-02
     10.503  0.1243E-20  0.1942E-09  0.3171E-09
     10.589  0.2733E-01  0.1186E+00  0.3057E+00
     10.676  0.0000E+00  0.0000E+00  0.0000E+00
     10.762  0.5325E-04  0.2173E-06  0.4174E-05
     10.848  0.4813E-01  0.2007E+00  0.7474E-01
     10.934  0.1041E-13  0.4269E-03  0.6681E-03
     11.020  0.5592E-03  0.1929E+00  0.1658E+00
     11.106  0.5249E-01  0.3126E+00  0.1548E+00
     11.193  0.1654E+00  0.5131E+00  0.5589E-01
     11.279  0.0000E+00  0.0000E+00  0.0000E+00
     11.365  0.0000E+00  0.0000E+00  0.0000E+00
     11.451  0.1812E-15  0.2775E-14  0.4477E-07
     11.537  0.4213E-09  0.2422E-07  0.2149E-01
     11.623  0.2762E-02  0.1891E+00  0.4402E-01
     11.709  0.8085E-06  0.6676E-06  0.2655E-02
     11.796  0.2818E+00  0.2426E+00  0.1232E+00
     11.882  0.2005E-09  0.7315E-01  0.1640E+00
     11.968  0.6566E-07  0.3676E-07  0.3039E-07
     12.054  0.1464E+00  0.8195E-01  0.6774E-01
     12.140  0.0000E+00  0.0000E+00  0.0000E+00
     12.226  0.0000E+00  0.0000E+00  0.0000E+00
     12.312  0.9780E-04  0.3458E+00  0.1338E+00
     12.399  0.8266E-01  0.2057E+00  0.1478E+00
     12.485  0.3454E-04  0.2354E+00  0.8764E-01
     12.571  0.6450E-03  0.8939E-01  0.1184E+00
     12.657  0.0000E+00  0.0000E+00  0.0000E+00
     12.743  0.1205E-10  0.7763E-02  0.3231E-02
     12.829  0.2926E-09  0.1885E+00  0.7845E-01
     12.916  0.1545E-11  0.2067E-08  0.1036E-08
     13.002  0.4192E-10  0.5607E-07  0.2809E-07
     13.088  0.1487E-11  0.9514E-05  0.2452E-05
     13.174  0.3019E-07  0.1931E+00  0.4978E-01
     13.260  0.6765E-03  0.2327E+00  0.7495E-01
     13.346  0.5713E-05  0.7677E-05  0.6664E-04
     13.432  0.6896E-02  0.9286E-02  0.8042E-01
     13.519  0.3781E-01  0.6870E+00  0.1693E+00
     13.605  0.2127E-08  0.8042E-02  0.1786E-01
     13.691  0.0000E+00  0.0000E+00  0.0000E+00
     13.777  0.0000E+00  0.0000E+00  0.0000E+00
     13.863  0.0000E+00  0.0000E+00  0.0000E+00
     13.949  0.3768E-01  0.1281E+00  0.4305E-02
     14.036  0.0000E+00  0.0000E+00  0.0000E+00
     14.122  0.3536E-17  0.1116E-16  0.3779E-18
     14.208  0.3185E-01  0.1006E+00  0.3404E-02
     14.294  0.0000E+00  0.0000E+00  0.0000E+00
     14.380  0.0000E+00  0.0000E+00  0.0000E+00
     14.466  0.0000E+00  0.0000E+00  0.0000E+00
     14.552  0.0000E+00  0.0000E+00  0.0000E+00
     14.639  0.0000E+00  0.0000E+00  0.0000E+00
     14.725  0.0000E+00  0.0000E+00  0.0000E+00
     14.811  0.0000E+00  0.0000E+00  0.0000E+00
     14.897  0.0000E+00  0.0000E+00  0.0000E+00
     14.983  0.0000E+00  0.0000E+00  0.0000E+00
     15.069  0.0000E+00  0.0000E+00  0.0000E+00
     15.155  0.0000E+00  0.0000E+00  0.0000E+00
     15.242  0.0000E+00  0.0000E+00  0.0000E+00
     15.328  0.0000E+00  0.0000E+00  0.0000E+00
     15.414  0.0000E+00  0.0000E+00  0.0000E+00
     15.500  0.0000E+00  0.0000E+00  0.0000E+00
     15.586  0.0000E+00  0.0000E+00  0.0000E+00
     15.58622432    -10.25911714  301      2.25433568      1.00000000
    -10.259  0.0000E+00  0.0000E+00  0.0000E+00
    -10.173  0.0000E+00  0.0000E+00  0.0000E+00
    -10.087  0.0000E+00  0.0000E+00  0.0000E+00
    -10.001  0.0000E+00  0.0000E+00  0.0000E+00
     -9.915  0.0000E+00  0.0000E+00  0.0000E+00
     -9.828  0.0000E+00  0.0000E+00  0.0000E+00
     -9.742  0.0000E+00  0.0000E+00  0.0000E+00
     -9.656  0.0000E+00  0.0000E+00  0.0000E+00
     -9.570  0.0000E+00  0.0000E+00  0.0000E+00
     -9.484  0.0000E+00  0.0000E+00  0.0000E+00
     -9.398  0.0000E+00  0.0000E+00  0.0000E+00
     -9.311  0.0000E+00  0.0000E+00  0.0000E+00
     -9.225  0.0000E+00  0.0000E+00  0.0000E+00
     -9.139  0.2762E-15  0.3865E-27  0.3786E-27
     -9.053  0.6142E-01  0.8596E-13  0.8420E-13
     -8.967  0.4931E+00  0.1444E-03  0.9582E-06
     -8.881  0.3698E+00  0.1412E-03  0.1145E-06
     -8.795  0.8106E+00  0.3483E-03  0.4231E-05
     -8.708  0.1940E+01  0.7757E-03  0.1283E-04
     -8.622  0.5118E+01  0.9871E-03  0.4334E-04
     -8.536  0.4659E+01  0.2447E-03  0.1492E-04
     -8.450  0.0000E+00  0.0000E+00  0.0000E+00
     -8.364  0.0000E+00  0.0000E+00  0.0000E+00
     -8.278  0.0000E+00  0.0000E+00  0.0000E+00
     -8.191  0.0000E+00  0.0000E+00  0.0000E+00
     -8.105  0.0000E+00  0.0000E+00  0.0000E+00
     -8.019  0.0000E+00  0.0000E+00  0.0000E+00
     -7.933  0.0000E+00  0.0000E+00  0.0000E+00
     -7.847  0.0000E+00  0.0000E+00  0.0000E+00
     -7.761  0.0000E+00  0.0000E+00  0.0000E+00
     -7.675  0.0000E+00  0.0000E+00  0.0000E+00
     -7.588  0.0000E+00  0.0000E+00  0.0000E+00
     -7.502  0.0000E+00  0.0000E+00  0.0000E+00
     -7.416  0.0000E+00  0.0000E+00  0.0000E+00
     -7.330  0.0000E+00  0.0000E+00  0.0000E+00
     -7.244  0.0000E+00  0.0000E+00  0.0000E+00
     -7.158  0.0000E+00  0.0000E+00  0.0000E+00
     -7.072  0.0000E+00  0.0000E+00  0.0000E+00
     -6.985  0.0000E+00  0.0000E+00  0.0000E+00
     -6.899  0.0000E+00  0.0000E+00  0.0000E+00
     -6.813  0.0000E+00  0.0000E+00  0.0000E+00
     -6.727  0.0000E+00  0.0000E+00  0.0000E+00
     -6.641  0.0000E+00  0.0000E+00  0.0000E+00
     -6.555  0.0000E+00  0.0000E+00  0.0000E+00
     -6.468  0.0000E+00  0.0000E+00  0.0000E+00
     -6.382  0.0000E+00  0.0000E+00  0.0000E+00
     -6.296  0.0000E+00  0.0000E+00  0.0000E+00
     -6.210  0.0000E+00  0.0000E+00  0.0000E+00
     -6.124  0.7522E-12  0.2137E-01  0.8171E-03
     -6.038  0.1191E-01  0.4493E+00  0.2871E-01
     -5.952  0.2481E-02  0.1709E+00  0.1538E-01
     -5.865  0.3389E-01  0.6799E-01  0.2769E-01
     -5.779  0.9922E-01  0.3418E-01  0.5075E-02
     -5.693  0.1898E-01  0.3063E-02  0.4613E-03
     -5.607  0.4834E-02  0.6200E-03  0.5442E-04
     -5.521  0.3611E+00  0.4075E-01  0.3944E-02
     -5.435  0.3963E+00  0.1581E-01  0.3368E-02
     -5.349  0.4117E+00  0.6768E-02  0.1613E-02
     -5.262  0.1375E+00  0.6299E-04  0.3996E-03
     -5.176  0.0000E+00  0.0000E+00  0.0000E+00
     -5.090  0.0000E+00  0.0000E+00  0.0000E+00
     -5.004  0.0000E+00  0.0000E+00  0.0000E+00
     -4.918  0.0000E+00  0.0000E+00  0.0000E+00
     -4.832  0.0000E+00  0.0000E+00  0.0000E+00
     -4.745  0.0000E+00  0.0000E+00  0.0000E+00
     -4.659  0.0000E+00  0.0000E+00  0.0000E+00
     -4.573  0.0000E+00  0.0000E+00  0.0000E+00
     -4.487  0.0000E+00  0.0000E+00  0.0000E+00
     -4.401  0.0000E+00  0.0000E+00  0.0000E+00
     -4.315  0.0000E+00  0.0000E+00  0.0000E+00
     -4.229  0.0000E+00  0.0000E+00  0.0000E+00
     -4.142  0.0000E+00  0.0000E+00  0.0000E+00
     -4.056  0.0000E+00  0.0000E+00  0.0000E+00
     -3.970  0.0000E+00  0.0000E+00  0.0000E+00
     -3.884  0.0000E+00  0.0000E+00  0.0000E+00
     -3.798  0.0000E+00  0.0000E+00  0.0000E+00
     -3.712  0.0000E+00  0.0000E+00  0.0000E+00
     -3.625  0.0000E+00  0.0000E+00  0.0000E+00
     -3.539  0.0000E+00  0.0000E+00  0.0000E+00
     -3.453  0.0000E+00  0.0000E+00  0.0000E+00
     -3.367  0.0000E+00  0.0000E+00  0.0000E+00
     -3.281  0.0000E+00  0.0000E+00  0.0000E+00
     -3.195  0.0000E+00  0.0000E+00  0.0000E+00
     -3.109  0.0000E+00  0.0000E+00  0.0000E+00
     -3.022  0.0000E+00  0.0000E+00  0.0000E+00
     -2.936  0.0000E+00  0.0000E+00  0.0000E+00
     -2.850  0.0000E+00  0.0000E+00  0.0000E+00
     -2.764  0.0000E+00  0.0000E+00  0.0000E+00
     -2.678  0.0000E+00  0.0000E+00  0.0000E+00
     -2.592  0.0000E+00  0.0000E+00  0.0000E+00