  96  96   0   0
  0.2080188E+02  0.1257760E-08  0.1245754E-08  0.1274818E-08  0.5000000E-15
  1.000000000000000E-004
  CAR 
 MAPbI3-Cubic                            
     10.64127017    -19.70853477  301      1.58691170      1.00000000
    -19.709  0.0000E+00  0.0000E+00
    -19.607  0.0000E+00  0.0000E+00
    -19.506  0.0000E+00  0.0000E+00
    -19.405  0.0000E+00  0.0000E+00
    -19.304  0.0000E+00  0.0000E+00
    -19.203  0.0000E+00  0.0000E+00
    -19.102  0.0000E+00  0.0000E+00
    -19.000  0.0000E+00  0.0000E+00
    -18.899  0.0000E+00  0.0000E+00
    -18.798  0.0000E+00  0.0000E+00
    -18.697  0.0000E+00  0.0000E+00
    -18.596  0.0000E+00  0.0000E+00
    -18.495  0.0000E+00  0.0000E+00
    -18.393  0.0000E+00  0.0000E+00
    -18.292  0.0000E+00  0.1600E+02
    -18.191  0.0000E+00  0.1600E+02
    -18.090  0.0000E+00  0.1600E+02
    -17.989  0.0000E+00  0.1600E+02
    -17.888  0.0000E+00  0.1600E+02
    -17.786  0.0000E+00  0.1600E+02
    -17.685  0.0000E+00  0.1600E+02
    -17.584  0.0000E+00  0.1600E+02
    -17.483  0.0000E+00  0.1600E+02
    -17.382  0.0000E+00  0.1600E+02
    -17.281  0.0000E+00  0.1600E+02
    -17.179  0.0000E+00  0.1600E+02
    -17.078  0.0000E+00  0.1600E+02
    -16.977  0.0000E+00  0.1600E+02
    -16.876  0.0000E+00  0.1600E+02
    -16.775  0.0000E+00  0.1600E+02
    -16.674  0.0000E+00  0.1600E+02
    -16.572  0.0000E+00  0.1600E+02
    -16.471  0.0000E+00  0.1600E+02
    -16.370  0.0000E+00  0.4800E+02
    -16.269  0.0000E+00  0.4800E+02
    -16.168  0.0000E+00  0.4800E+02
    -16.067  0.0000E+00  0.4800E+02
    -15.965  0.0000E+00  0.4800E+02
    -15.864  0.0000E+00  0.4800E+02
    -15.763  0.0000E+00  0.4800E+02
    -15.662  0.0000E+00  0.4800E+02
    -15.561  0.0000E+00  0.4800E+02
    -15.460  0.0000E+00  0.4800E+02
    -15.358  0.0000E+00  0.4800E+02
    -15.257  0.0000E+00  0.4800E+02
    -15.156  0.0000E+00  0.4800E+02
    -15.055  0.0000E+00  0.4800E+02
    -14.954  0.0000E+00  0.4800E+02
    -14.853  0.0000E+00  0.4800E+02
    -14.751  0.0000E+00  0.4800E+02
    -14.650  0.0000E+00  0.4800E+02
    -14.549  0.0000E+00  0.4800E+02
    -14.448  0.0000E+00  0.4800E+02
    -14.347  0.0000E+00  0.4800E+02
    -14.246  0.0000E+00  0.4800E+02
    -14.144  0.0000E+00  0.4800E+02
    -14.043  0.0000E+00  0.4800E+02
    -13.942  0.0000E+00  0.4800E+02
    -13.841  0.3222E+02  0.8000E+02
    -13.740  0.0000E+00  0.9600E+02
    -13.639  0.0000E+00  0.9600E+02
    -13.537  0.0000E+00  0.9600E+02
    -13.436  0.0000E+00  0.9600E+02
    -13.335  0.0000E+00  0.9600E+02
    -13.234  0.0000E+00  0.9600E+02
    -13.133  0.0000E+00  0.9600E+02
    -13.032  0.0000E+00  0.9600E+02
    -12.930  0.0000E+00  0.9600E+02
    -12.829  0.0000E+00  0.9600E+02
    -12.728  0.0000E+00  0.9600E+02
    -12.627  0.0000E+00  0.9600E+02
    -12.526  0.0000E+00  0.9600E+02
    -12.425  0.0000E+00  0.9600E+02
    -12.323  0.0000E+00  0.9600E+02
    -12.222  0.0000E+00  0.9600E+02
    -12.121  0.0000E+00  0.9600E+02
    -12.020  0.0000E+00  0.9600E+02
    -11.919  0.0000E+00  0.9600E+02
    -11.818  0.0000E+00  0.9600E+02
    -11.716  0.0000E+00  0.9600E+02
    -11.615  0.0000E+00  0.9600E+02
    -11.514  0.0000E+00  0.9600E+02
    -11.413  0.0000E+00  0.9600E+02
    -11.312  0.0000E+00  0.1120E+03
    -11.211  0.0000E+00  0.1120E+03
    -11.109  0.0000E+00  0.1120E+03
    -11.008  0.0000E+00  0.1120E+03
    -10.907  0.0000E+00  0.1120E+03
    -10.806  0.1463E+00  0.1121E+03
    -10.705  0.0000E+00  0.1141E+03
    -10.604  0.5789E+01  0.1192E+03
    -10.502  0.4686E+01  0.1257E+03
    -10.401  0.1464E+01  0.1291E+03
    -10.300  0.2929E+01  0.1360E+03
    -10.199  0.7889E+01  0.1412E+03
    -10.098  0.5048E+00  0.1443E+03
     -9.997  0.3504E+01  0.1547E+03
     -9.895  0.4393E+01  0.1600E+03
     -9.794  0.0000E+00  0.1600E+03
     -9.693  0.0000E+00  0.1600E+03
     -9.592  0.0000E+00  0.1600E+03
     -9.491  0.0000E+00  0.1600E+03
     -9.390  0.0000E+00  0.1600E+03
     -9.288  0.0000E+00  0.1600E+03
     -9.187  0.0000E+00  0.1600E+03
     -9.086  0.0000E+00  0.1600E+03
     -8.985  0.0000E+00  0.1600E+03
     -8.884  0.0000E+00  0.1600E+03
     -8.783  0.0000E+00  0.1600E+03
     -8.681  0.0000E+00  0.1600E+03
     -8.580  0.0000E+00  0.1600E+03
     -8.479  0.0000E+00  0.1600E+03
     -8.378  0.0000E+00  0.1600E+03
     -8.277  0.0000E+00  0.1600E+03
     -8.176  0.0000E+00  0.1600E+03
     -8.074  0.0000E+00  0.1600E+03
     -7.973  0.0000E+00  0.1600E+03
     -7.872  0.0000E+00  0.1600E+03
     -7.771  0.0000E+00  0.1680E+03
     -7.670  0.2036E+02  0.1912E+03
     -7.569  0.0000E+00  0.1920E+03
     -7.467  0.0000E+00  0.1920E+03
     -7.366  0.0000E+00  0.1920E+03
     -7.265  0.0000E+00  0.1920E+03
     -7.164  0.0000E+00  0.1920E+03
     -7.063  0.0000E+00  0.1920E+03
     -6.962  0.0000E+00  0.1920E+03
     -6.860  0.0000E+00  0.1921E+03
     -6.759  0.0000E+00  0.1925E+03
     -6.658  0.0000E+00  0.1934E+03
     -6.557  0.0000E+00  0.1941E+03
     -6.456  0.1608E+01  0.1946E+03
     -6.355  0.0000E+00  0.1964E+03
     -6.253  0.8364E+00  0.1988E+03
     -6.152  0.2380E+01  0.2002E+03
     -6.051  0.1478E+01  0.2019E+03
     -5.950  0.2740E+01  0.2037E+03
     -5.849  0.8875E+01  0.2102E+03
     -5.748  0.6819E-03  0.2216E+03
     -5.646  0.0000E+00  0.2226E+03
     -5.545  0.0000E+00  0.2235E+03
     -5.444  0.8929E-01  0.2236E+03
     -5.343  0.0000E+00  0.2239E+03
     -5.242  0.0000E+00  0.2240E+03
     -5.141  0.0000E+00  0.2240E+03
     -5.039  0.0000E+00  0.2240E+03
     -4.938  0.0000E+00  0.2240E+03
     -4.837  0.0000E+00  0.2240E+03
     -4.736  0.0000E+00  0.2240E+03
     -4.635  0.0000E+00  0.2240E+03
     -4.534  0.0000E+00  0.2240E+03
     -4.432  0.0000E+00  0.2240E+03
     -4.331  0.0000E+00  0.2240E+03
     -4.230  0.0000E+00  0.2240E+03
     -4.129  0.0000E+00  0.2240E+03
     -4.028  0.0000E+00  0.2240E+03
     -3.927  0.0000E+00  0.2240E+03
     -3.825  0.0000E+00  0.2240E+03
     -3.724  0.0000E+00  0.2240E+03
     -3.623  0.7922E+01  0.2253E+03
     -3.522  0.2197E+01  0.2560E+03
     -3.421  0.0000E+00  0.2560E+03
     -3.320  0.0000E+00  0.2560E+03
     -3.218  0.0000E+00  0.2560E+03
     -3.117  0.0000E+00  0.2560E+03
     -3.016  0.0000E+00  0.2560E+03
     -2.915  0.0000E+00  0.2560E+03
     -2.814  0.0000E+00  0.2560E+03
     -2.713  0.0000E+00  0.2560E+03
     -2.611  0.0000E+00  0.2560E+03
     -2.510  0.0000E+00  0.2560E+03
     -2.409  0.0000E+00  0.2560E+03
     -2.308  0.0000E+00  0.2560E+03
     -2.207  0.4226E-06  0.2561E+03
     -2.106  0.2197E+01  0.2584E+03
     -2.004  0.1464E+01  0.2617E+03
     -1.903  0.1848E+01  0.2640E+03
     -1.802  0.0000E+00  0.2666E+03
     -1.701  0.5857E+01  0.2708E+03
     -1.600  0.7322E+00  0.2741E+03
     -1.499  0.1463E+01  0.2781E+03
     -1.397  0.0000E+00  0.2796E+03
     -1.296  0.0000E+00  0.2800E+03
     -1.195  0.2125E+01  0.2825E+03
     -1.094  0.0000E+00  0.2856E+03
     -0.993  0.4097E+01  0.2897E+03
     -0.892  0.3735E+01  0.2953E+03
     -0.790  0.2920E+01  0.2990E+03
     -0.689  0.2197E+01  0.3018E+03
     -0.588  0.2709E+01  0.3051E+03
     -0.487  0.2179E+01  0.3101E+03
     -0.386  0.8752E+01  0.3173E+03
     -0.285  0.2786E+01  0.3207E+03
     -0.183  0.4973E+01  0.3255E+03
     -0.082  0.6738E+01  0.3325E+03
      0.019  0.9674E+01  0.3415E+03
      0.120  0.5931E+01  0.3496E+03
      0.221  0.2929E+01  0.3530E+03
      0.322  0.2422E+01  0.3578E+03
      0.424  0.6882E+01  0.3621E+03
      0.525  0.3574E+01  0.3687E+03
      0.626  0.5732E+01  0.3759E+03
      0.727  0.1080E+02  0.3829E+03
      0.828  0.4663E+01  0.3908E+03
      0.929  0.1464E+01  0.3941E+03
      1.030  0.1464E+01  0.3964E+03
      1.132  0.0000E+00  0.3979E+03
      1.233  0.7322E+00  0.3993E+03
      1.334  0.0000E+00  0.3995E+03
      1.435  0.0000E+00  0.3999E+03
      1.536  0.0000E+00  0.3999E+03
      1.637  0.0000E+00  0.4000E+03
      1.739  0.0000E+00  0.4000E+03
      1.840  0.0000E+00  0.4000E+03
      1.941  0.0000E+00  0.4000E+03
      2.042  0.0000E+00  0.4000E+03
      2.143  0.0000E+00  0.4000E+03
      2.244  0.0000E+00  0.4001E+03
      2.346  0.6455E-02  0.4001E+03
      2.447  0.0000E+00  0.4003E+03
      2.548  0.0000E+00  0.4004E+03
      2.649  0.0000E+00  0.4006E+03
      2.750  0.1464E+01  0.4011E+03
      2.851  0.2661E-01  0.4016E+03
      2.953  0.0000E+00  0.4021E+03
      3.054  0.2927E+01  0.4028E+03
      3.155  0.1464E+01  0.4035E+03
      3.256  0.7313E+00  0.4044E+03
      3.357  0.0000E+00  0.4051E+03
      3.458  0.1464E+01  0.4061E+03
      3.560  0.2909E+01  0.4076E+03
      3.661  0.3661E+01  0.4090E+03
      3.762  0.0000E+00  0.4093E+03
      3.863  0.6470E-05  0.4102E+03
      3.964  0.0000E+00  0.4117E+03
      4.065  0.7137E-02  0.4130E+03
      4.167  0.1800E+00  0.4140E+03
      4.268  0.7322E+00  0.4157E+03
      4.369  0.1174E+01  0.4173E+03
      4.470  0.1227E-04  0.4196E+03
      4.571  0.0000E+00  0.4209E+03
      4.672  0.4372E+00  0.4220E+03
      4.774  0.0000E+00  0.4227E+03
      4.875  0.0000E+00  0.4236E+03
      4.976  0.0000E+00  0.4243E+03
      5.077  0.2950E+00  0.4251E+03
      5.178  0.7322E+00  0.4261E+03
      5.279  0.0000E+00  0.4272E+03
      5.381  0.3656E+01  0.4290E+03
      5.482  0.9758E-06  0.4312E+03
      5.583  0.3516E+01  0.4343E+03
      5.684  0.1466E+01  0.4371E+03
      5.785  0.1070E+01  0.4397E+03
      5.886  0.1233E+01  0.4421E+03
      5.988  0.2197E+01  0.4451E+03
      6.089  0.1773E-06  0.4486E+03
      6.190  0.6631E+01  0.4535E+03
      6.291  0.3796E+01  0.4577E+03
      6.392  0.3932E+01  0.4618E+03
      6.493  0.7388E+01  0.4682E+03
      6.595  0.2563E+01  0.4735E+03
      6.696  0.7328E+00  0.4773E+03
      6.797  0.3316E+01  0.4807E+03
      6.898  0.4392E+01  0.4847E+03
      6.999  0.5700E-03  0.4898E+03
      7.100  0.1738E+01  0.4931E+03
      7.202  0.2198E+01  0.4981E+03
      7.303  0.1443E+01  0.5026E+03
      7.404  0.2926E+01  0.5064E+03
      7.505  0.1642E+01  0.5111E+03
      7.606  0.1461E+01  0.5159E+03
      7.707  0.4133E+01  0.5219E+03
      7.809  0.5228E+01  0.5267E+03
      7.910  0.1496E+01  0.5331E+03
      8.011  0.3831E+01  0.5371E+03
      8.112  0.4380E+01  0.5419E+03
      8.213  0.8383E+01  0.5474E+03
      8.314  0.3526E+01  0.5525E+03
      8.416  0.4405E+01  0.5589E+03
      8.517  0.5858E+01  0.5659E+03
      8.618  0.6687E+01  0.5724E+03
      8.719  0.1098E+01  0.5777E+03
      8.820  0.2779E+01  0.5829E+03
      8.921  0.1831E+01  0.5892E+03
      9.023  0.5922E+01  0.5939E+03
      9.124  0.9759E+00  0.5976E+03
      9.225  0.1205E-04  0.5998E+03
      9.326  0.0000E+00  0.6000E+03
      9.427  0.0000E+00  0.6000E+03
      9.528  0.0000E+00  0.6000E+03
      9.630  0.0000E+00  0.6000E+03
      9.731  0.0000E+00  0.6000E+03
      9.832  0.0000E+00  0.6000E+03
      9.933  0.0000E+00  0.6000E+03
     10.034  0.0000E+00  0.6000E+03
     10.135  0.0000E+00  0.6000E+03
     10.237  0.0000E+00  0.6000E+03
     10.338  0.0000E+00  0.6000E+03
     10.439  0.0000E+00  0.6000E+03
     10.540  0.0000E+00  0.6000E+03
     10.641  0.0000E+00  0.6000E+03
