 vasp.5.4.1 24Jun15 (build Nov 25 2015 16:39:35) complex                        
  
 executed on         CrayXC-Intel date 2016.06.22  00:47:57
 running on  192 total cores
 distrk:  each k-point on  192 cores,    1 groups
 distr:  one band on NCORES_PER_BAND=  24 cores,    8 groups


--------------------------------------------------------------------------------------------------------


 INCAR:
 POTCAR:    PAW_PBE C 08Apr2002                   
 POTCAR:    PAW_PBE N 08Apr2002                   
 POTCAR:    PAW_PBE H 15Jun2001                   
 POTCAR:    PAW_PBE Pb_d 06Sep2000                
 POTCAR:    PAW_PBE I 08Apr2002                   
 POTCAR:    PAW_PBE C 08Apr2002                   
   VRHFIN =C: s2p2                                                              
   LEXCH  = PE                                                                  
   EATOM  =   147.1560 eV,   10.8157 Ry                                         
                                                                                
   TITEL  = PAW_PBE C 08Apr2002                                                 
   LULTRA =        F    use ultrasoft PP ?                                      
   IUNSCR =        1    unscreen: 0-lin 1-nonlin 2-no                           
   RPACOR =    1.200    partial core radius                                     
   POMASS =   12.011; ZVAL   =    4.000    mass and valenz                      
   RCORE  =    1.500    outmost cutoff radius                                   
   RWIGS  =    1.630; RWIGS  =    0.863    wigner-seitz radius (au A)           
   ENMAX  =  400.000; ENMIN  =  300.000 eV                                      
   ICORE  =        2    local potential                                         
   LCOR   =        T    correct aug charges                                     
   LPAW   =        T    paw PP                                                  
   EAUG   =  644.873                                                            
   DEXC   =    0.000                                                            
   RMAX   =    1.529    core radius for proj-oper                               
   RAUG   =    1.300    factor for augmentation sphere                          
   RDEP   =    1.501    radius for radial grids                                 
   RDEPT  =    1.300    core radius for aug-charge                              
                                                                                
   Atomic configuration                                                         
    4 entries                                                                   
     n  l   j            E        occ.                                          
     1  0  0.50      -273.3789   2.0000                                         
     2  0  0.50       -13.7508   2.0000                                         
     2  1  0.50        -5.2854   2.0000                                         
     3  2  1.50        -5.4423   0.0000                                         
   Description                                                                  
     l       E           TYP  RCUT    TYP  RCUT                                 
     0    -13.7508458     23  1.200                                             
     0     -8.2022199     23  1.200                                             
     1     -5.2854383     23  1.500                                             
     1     34.0145650     23  1.500                                             
     2     -5.4423304      7  1.500                                             
  local pseudopotential read in
  partial core-charges read in
  partial kinetic energy density read in
  atomic valenz-charges read in
  non local Contribution for L=           0  read in
    real space projection operators read in
  non local Contribution for L=           0  read in
    real space projection operators read in
  non local Contribution for L=           1  read in
    real space projection operators read in
  non local Contribution for L=           1  read in
    real space projection operators read in
    PAW grid and wavefunctions read in
 
   number of l-projection  operators is LMAX  =           4
   number of lm-projection operators is LMMAX =           8
 
 POTCAR:    PAW_PBE N 08Apr2002                   
   VRHFIN =N: s2p3                                                              
   LEXCH  = PE                                                                  
   EATOM  =   264.5486 eV,   19.4438 Ry                                         
                                                                                
   TITEL  = PAW_PBE N 08Apr2002                                                 
   LULTRA =        F    use ultrasoft PP ?                                      
   IUNSCR =        1    unscreen: 0-lin 1-nonlin 2-no                           
   RPACOR =    1.200    partial core radius                                     
   POMASS =   14.001; ZVAL   =    5.000    mass and valenz                      
   RCORE  =    1.500    outmost cutoff radius                                   
   RWIGS  =    1.400; RWIGS  =    0.741    wigner-seitz radius (au A)           
   ENMAX  =  400.000; ENMIN  =  300.000 eV                                      
   ICORE  =        2    local potential                                         
   LCOR   =        T    correct aug charges                                     
   LPAW   =        T    paw PP                                                  
   EAUG   =  627.112                                                            
   DEXC   =    0.000                                                            
   RMAX   =    1.529    core radius for proj-oper                               
   RAUG   =    1.300    factor for augmentation sphere                          
   RDEP   =    1.514    radius for radial grids                                 
   RDEPT  =    1.338    core radius for aug-charge                              
                                                                                
   Atomic configuration                                                         
    4 entries                                                                   
     n  l   j            E        occ.                                          
     1  0  0.50      -384.7179   2.0000                                         
     2  0  0.50       -18.5828   2.0000                                         
     2  1  0.50        -7.0898   3.0000                                         
     3  2  1.50        -6.8029   0.0000                                         
   Description                                                                  
     l       E           TYP  RCUT    TYP  RCUT                                 
     0    -18.5828119     23  1.200                                             
     0    -13.5018863     23  1.200                                             
     1     -7.0897853     23  1.500                                             
     1      9.5240782     23  1.500                                             
     2     -6.8029130      7  1.500                                             
  local pseudopotential read in
  partial core-charges read in
  partial kinetic energy density read in
  atomic valenz-charges read in
  non local Contribution for L=           0  read in
    real space projection operators read in
  non local Contribution for L=           0  read in
    real space projection operators read in
  non local Contribution for L=           1  read in
    real space projection operators read in
  non local Contribution for L=           1  read in
    real space projection operators read in
    PAW grid and wavefunctions read in
 
   number of l-projection  operators is LMAX  =           4
   number of lm-projection operators is LMMAX =           8
 
 POTCAR:    PAW_PBE H 15Jun2001                   
   VRHFIN =H: ultrasoft test                                                    
   LEXCH  = PE                                                                  
   EATOM  =    12.4884 eV,    0.9179 Ry                                         
                                                                                
   TITEL  = PAW_PBE H 15Jun2001                                                 
   LULTRA =        F    use ultrasoft PP ?                                      
   IUNSCR =        0    unscreen: 0-lin 1-nonlin 2-no                           
   RPACOR =    0.000    partial core radius                                     
   POMASS =    1.000; ZVAL   =    1.000    mass and valenz                      
   RCORE  =    1.100    outmost cutoff radius                                   
   RWIGS  =    0.700; RWIGS  =    0.370    wigner-seitz radius (au A)           
   ENMAX  =  250.000; ENMIN  =  200.000 eV                                      
   RCLOC  =    0.701    cutoff for local pot                                    
   LCOR   =        T    correct aug charges                                     
   LPAW   =        T    paw PP                                                  
   EAUG   =  400.000                                                            
   RMAX   =    1.123    core radius for proj-oper                               
   RAUG   =    1.200    factor for augmentation sphere                          
   RDEP   =    1.112    radius for radial grids                                 
   RDEPT  =    0.926    core radius for aug-charge                              
                                                                                
   Atomic configuration                                                         
    2 entries                                                                   
     n  l   j            E        occ.                                          
     1  0  0.50        -6.4927   1.0000                                         
     2  1  0.50        -3.4015   0.0000                                         
   Description                                                                  
     l       E           TYP  RCUT    TYP  RCUT                                 
     0     -6.4927494     23  1.100                                             
     0      6.8029130     23  1.100                                             
     1     -4.0817478     23  1.100                                             
  local pseudopotential read in
  atomic valenz-charges read in
  non local Contribution for L=           0  read in
    real space projection operators read in
  non local Contribution for L=           0  read in
    real space projection operators read in
  non local Contribution for L=           1  read in
    real space projection operators read in
    PAW grid and wavefunctions read in
 
   number of l-projection  operators is LMAX  =           3
   number of lm-projection operators is LMMAX =           5
 
 POTCAR:    PAW_PBE Pb_d 06Sep2000                
   VRHFIN =Pb:                                                                  
   LEXCH  = PE                                                                  
   EATOM  =  1661.6185 eV,  122.1255 Ry                                         
                                                                                
   TITEL  = PAW_PBE Pb_d 06Sep2000                                              
   LULTRA =        F    use ultrasoft PP ?                                      
   IUNSCR =        1    unscreen: 0-lin 1-nonlin 2-no                           
   RPACOR =    2.200    partial core radius                                     
   POMASS =  207.200; ZVAL   =   14.000    mass and valenz                      
   RCORE  =    2.500    outmost cutoff radius                                   
   RWIGS  =    3.260; RWIGS  =    1.725    wigner-seitz radius (au A)           
   ENMAX  =  237.835; ENMIN  =  178.376 eV                                      
   ICORE  =        3    local potential                                         
   LCOR   =        T    correct aug charges                                     
   LPAW   =        T    paw PP                                                  
   EAUG   =  391.914                                                            
   DEXC   =    0.000                                                            
   RMAX   =    2.565    core radius for proj-oper                               
   RAUG   =    1.300    factor for augmentation sphere                          
   RDEP   =    2.643    radius for radial grids                                 
   RDEPT  =    2.092    core radius for aug-charge                              
                                                                                
   Atomic configuration                                                         
   16 entries                                                                   
     n  l   j            E        occ.                                          
     1  0  0.50    -88091.8466   2.0000                                         
     2  0  0.50    -15753.4197   2.0000                                         
     2  1  1.50    -13508.1797   6.0000                                         
     3  0  0.50     -3781.7194   2.0000                                         
     3  1  1.50     -3138.2529   6.0000                                         
     3  2  2.50     -2483.2977  10.0000                                         
     4  0  0.50      -856.2895   2.0000                                         
     4  1  1.50      -645.4942   6.0000                                         
     4  2  2.50      -401.8768  10.0000                                         
     4  3  3.50      -132.9059  14.0000                                         
     5  0  0.50      -144.0950   2.0000                                         
     5  1  1.50       -85.7879   6.0000                                         
     5  2  2.50       -21.1769  10.0000                                         
     6  0  0.50       -12.0372   2.0000                                         
     6  1  1.50        -3.4971   2.0000                                         
     5  3  2.50        -2.7212   0.0000                                         
   Description                                                                  
     l       E           TYP  RCUT    TYP  RCUT                                 
     2    -21.1768523     23  2.500                                             
     2      1.3605826     23  2.500                                             
     0    -12.0371562     23  2.500                                             
     0     13.6058260     23  2.500                                             
     1     -3.4971339     23  2.500                                             
     1     13.6058260     23  2.500                                             
     3     -1.3605826      7  2.500                                             
  local pseudopotential read in
  partial core-charges read in
  partial kinetic energy density read in
  atomic valenz-charges read in
  non local Contribution for L=           2  read in
    real space projection operators read in
  non local Contribution for L=           2  read in
    real space projection operators read in
  non local Contribution for L=           0  read in
    real space projection operators read in
  non local Contribution for L=           0  read in
    real space projection operators read in
  non local Contribution for L=           1  read in
    real space projection operators read in
  non local Contribution for L=           1  read in
    real space projection operators read in
    PAW grid and wavefunctions read in
 
   number of l-projection  operators is LMAX  =           6
   number of lm-projection operators is LMMAX =          18
 
 POTCAR:    PAW_PBE I 08Apr2002                   
   VRHFIN =I : s2p5                                                             
   LEXCH  = PE                                                                  
   EATOM  =   315.8678 eV,   23.2156 Ry                                         
                                                                                
   TITEL  = PAW_PBE I 08Apr2002                                                 
   LULTRA =        F    use ultrasoft PP ?                                      
   IUNSCR =        1    unscreen: 0-lin 1-nonlin 2-no                           
   RPACOR =    2.200    partial core radius                                     
   POMASS =  126.904; ZVAL   =    7.000    mass and valenz                      
   RCORE  =    2.300    outmost cutoff radius                                   
   RWIGS  =    2.810; RWIGS  =    1.487    wigner-seitz radius (au A)           
   ENMAX  =  175.647; ENMIN  =  131.735 eV                                      
   ICORE  =        3    local potential                                         
   LCOR   =        T    correct aug charges                                     
   LPAW   =        T    paw PP                                                  
   EAUG   =  370.139                                                            
   DEXC   =    0.000                                                            
   RMAX   =    2.359    core radius for proj-oper                               
   RAUG   =    1.300    factor for augmentation sphere                          
   RDEP   =    2.392    radius for radial grids                                 
   RDEPT  =    2.170    core radius for aug-charge                              
                                                                                
   Atomic configuration                                                         
   13 entries                                                                   
     n  l   j            E        occ.                                          
     1  0  0.50    -32976.3739   2.0000                                         
     2  0  0.50     -5094.5933   2.0000                                         
     2  1  1.50     -4572.0131   6.0000                                         
     3  0  0.50     -1028.2813   2.0000                                         
     3  1  1.50      -859.0250   6.0000                                         
     3  2  2.50      -605.7620  10.0000                                         
     4  0  0.50      -180.5540   2.0000                                         
     4  1  1.50      -127.5306   6.0000                                         
     4  2  2.50       -50.2720  10.0000                                         
     5  0  0.50       -17.4058   2.0000                                         
     5  1  0.50        -7.0851   5.0000                                         
     5  2  1.50        -7.0750   0.0000                                         
     4  3  2.50        -7.0750   0.0000                                         
   Description                                                                  
     l       E           TYP  RCUT    TYP  RCUT                                 
     0    -17.4058016     23  2.300                                             
     0    -18.7663842     23  2.300                                             
     1     -7.0850686     23  2.300                                             
     1     -4.2150896     23  2.300                                             
     2     -7.0750295     23  2.300                                             
     3     -1.3605826     23  2.300                                             
  local pseudopotential read in
  partial core-charges read in
  partial kinetic energy density read in
  atomic valenz-charges read in
  non local Contribution for L=           0  read in
    real space projection operators read in
  non local Contribution for L=           0  read in
    real space projection operators read in
  non local Contribution for L=           1  read in
    real space projection operators read in
  non local Contribution for L=           1  read in
    real space projection operators read in
  non local Contribution for L=           2  read in
    real space projection operators read in
    PAW grid and wavefunctions read in
 
   number of l-projection  operators is LMAX  =           5
   number of lm-projection operators is LMMAX =          13
 

 ----------------------------------------------------------------------------- 
|                                                                             |
|  ADVICE TO THIS USER RUNNING 'VASP/VAMP'   (HEAR YOUR MASTER'S VOICE ...):  |
|                                                                             |
|      You have a (more or less) 'large supercell' and for larger cells       |
|      it might be more efficient to use real space projection opertators     |
|      So try LREAL= Auto  in the INCAR   file.                               |
|      Mind: At the moment your POTCAR file does not contain real space       |
|       projectors, and has to be modified,  BUT if you                       |
|      want to do an extremely  accurate calculation you might also keep the  |
|      reciprocal projection scheme          (i.e. LREAL=.FALSE.)             |
|                                                                             |
 ----------------------------------------------------------------------------- 


 ----------------------------------------------------------------------------- 
|                                                                             |
|  ADVICE TO THIS USER RUNNING 'VASP/VAMP'   (HEAR YOUR MASTER'S VOICE ...):  |
|                                                                             |
|      You enforced a specific xc-type in the INCAR file,                     |
|      a different type was found on the POTCAR file                          |
|          I HOPE YOU KNOW, WHAT YOU ARE  DOING                               |
|                                                                             |
 ----------------------------------------------------------------------------- 

  PAW_PBE C 08Apr2002                   :
 energy of atom  1       EATOM= -147.1560
 kinetic energy error for atom=    0.0032 (will be added to EATOM!!)
  PAW_PBE N 08Apr2002                   :
 energy of atom  2       EATOM= -264.5486
 kinetic energy error for atom=    0.0061 (will be added to EATOM!!)
  PAW_PBE H 15Jun2001                   :
 energy of atom  3       EATOM=  -12.4884
 kinetic energy error for atom=    0.0002 (will be added to EATOM!!)
  PAW_PBE Pb_d 06Sep2000                :
 energy of atom  4       EATOM=-1661.6185
 kinetic energy error for atom=    0.0012 (will be added to EATOM!!)
  PAW_PBE I 08Apr2002                   :
 energy of atom  5       EATOM= -315.8678
 kinetic energy error for atom=    0.0003 (will be added to EATOM!!)
 
 
 POSCAR: C N H Pb I                              
  positions in direct lattice
  No initial velocities read in
 exchange correlation table for  LEXCH =       14
   RHO(1)=    0.500       N(1)  =     2000
   RHO(2)=  100.500       N(2)  =     4000
 


--------------------------------------------------------------------------------------------------------


 ion  position               nearest neighbor table
   1  0.198  0.250  0.227-  17 1.10  25 1.10  33 1.10   9 1.48
   2  0.696  0.250  0.231-  18 1.10  26 1.10  34 1.10  10 1.48
   3  0.196  0.750  0.231-  19 1.10  27 1.10  35 1.10  11 1.48
   4  0.698  0.750  0.227-  20 1.10  28 1.10  36 1.10  12 1.48
   5  0.198  0.250  0.727-  21 1.10  29 1.10  37 1.10  13 1.48
   6  0.696  0.250  0.731-  22 1.10  30 1.10  38 1.10  14 1.48
   7  0.196  0.750  0.731-  23 1.10  31 1.10  39 1.10  15 1.48
   8  0.698  0.750  0.727-  24 1.10  32 1.10  40 1.10  16 1.48
   9  0.305  0.250  0.274-  57 1.04  41 1.05  49 1.05   1 1.48
  10  0.804  0.250  0.274-  58 1.04  42 1.05  50 1.05   2 1.48
  11  0.304  0.750  0.274-  59 1.04  43 1.05  51 1.05   3 1.48
  12  0.805  0.750  0.274-  60 1.04  44 1.05  52 1.05   4 1.48
  13  0.305  0.250  0.774-  61 1.04  45 1.05  53 1.05   5 1.48
  14  0.804  0.250  0.774-  62 1.04  46 1.05  54 1.05   6 1.48
  15  0.304  0.750  0.774-  63 1.04  47 1.05  55 1.05   7 1.48
  16  0.805  0.750  0.774-  64 1.04  48 1.05  56 1.05   8 1.48
  17  0.208  0.250  0.141-   1 1.10
  18  0.702  0.250  0.145-   2 1.10
  19  0.202  0.750  0.145-   3 1.10
  20  0.708  0.750  0.141-   4 1.10
  21  0.208  0.250  0.641-   5 1.10
  22  0.702  0.250  0.645-   6 1.10
  23  0.202  0.750  0.645-   7 1.10
  24  0.708  0.750  0.641-   8 1.10
  25  0.155  0.322  0.253-   1 1.10
  26  0.654  0.322  0.258-   2 1.10
  27  0.154  0.822  0.258-   3 1.10
  28  0.655  0.822  0.253-   4 1.10
  29  0.155  0.322  0.753-   5 1.10
  30  0.654  0.322  0.758-   6 1.10
  31  0.154  0.822  0.758-   7 1.10
  32  0.655  0.822  0.753-   8 1.10
  33  0.155  0.177  0.253-   1 1.10
  34  0.654  0.177  0.258-   2 1.10
  35  0.154  0.677  0.258-   3 1.10
  36  0.655  0.677  0.253-   4 1.10
  37  0.155  0.177  0.753-   5 1.10
  38  0.654  0.177  0.758-   6 1.10
  39  0.154  0.677  0.758-   7 1.10
  40  0.655  0.677  0.753-   8 1.10
  41  0.349  0.318  0.252-   9 1.05
  42  0.847  0.318  0.250-  10 1.05
  43  0.347  0.818  0.250-  11 1.05
  44  0.849  0.818  0.252-  12 1.05
  45  0.349  0.318  0.752-  13 1.05
  46  0.847  0.318  0.750-  14 1.05
  47  0.347  0.818  0.750-  15 1.05
  48  0.849  0.818  0.752-  16 1.05
  49  0.349  0.182  0.252-   9 1.05
  50  0.848  0.182  0.250-  10 1.05
  51  0.348  0.682  0.250-  11 1.05
  52  0.849  0.682  0.252-  12 1.05
  53  0.349  0.182  0.752-  13 1.05
  54  0.848  0.182  0.750-  14 1.05
  55  0.348  0.682  0.750-  15 1.05
  56  0.849  0.682  0.752-  16 1.05
  57  0.302  0.250  0.356-   9 1.04
  58  0.804  0.250  0.356-  10 1.04
  59  0.304  0.750  0.356-  11 1.04
  60  0.802  0.750  0.356-  12 1.04
  61  0.302  0.250  0.856-  13 1.04
  62  0.804  0.250  0.856-  14 1.04
  63  0.304  0.750  0.856-  15 1.04
  64  0.802  0.750  0.856-  16 1.04
  65  0.472  0.500  0.489-  90 3.08  85 3.14  87 3.14  77 3.17  73 3.22  89 3.25
  66  0.972  0.500  0.489-  89 3.08  88 3.14  86 3.14  78 3.17  74 3.22  90 3.25
  67  0.472  1.000  0.489-  92 3.08  85 3.14  87 3.14  79 3.17  75 3.22  91 3.25
  68  0.972  0.000  0.489-  91 3.08  88 3.14  86 3.14  80 3.17  76 3.22  92 3.25
  69  0.472  0.500  0.989-  94 3.08  81 3.14  83 3.14  73 3.17  77 3.22  93 3.25
  70  0.972  0.500  0.989-  93 3.08  84 3.14  82 3.14  74 3.17  78 3.22  94 3.25
  71  0.472  1.000  0.989-  96 3.08  81 3.14  83 3.14  75 3.17  79 3.22  95 3.25
  72  0.972  0.000  0.989-  95 3.08  84 3.14  82 3.14  76 3.17  80 3.22  96 3.25
  73  0.455  0.500  0.238-  69 3.17  65 3.22
  74  0.955  0.500  0.238-  70 3.17  66 3.22
  75  0.455  1.000  0.238-  71 3.17  67 3.22
  76  0.955  0.000  0.238-  72 3.17  68 3.22
  77  0.455  0.500  0.738-  65 3.17  69 3.22
  78  0.955  0.500  0.738-  66 3.17  70 3.22
  79  0.455  1.000  0.738-  67 3.17  71 3.22
  80  0.955  0.000  0.738-  68 3.17  72 3.22
  81  0.453  0.250  0.011-  71 3.14  69 3.14
  82  0.946  0.250  0.012-  72 3.14  70 3.14
  83  0.446  0.750  0.012-  69 3.14  71 3.14
  84  0.953  0.750  0.011-  70 3.14  72 3.14
  85  0.453  0.250  0.511-  67 3.14  65 3.14
  86  0.946  0.250  0.512-  68 3.14  66 3.14
  87  0.446  0.750  0.512-  65 3.14  67 3.14
  88  0.953  0.750  0.511-  66 3.14  68 3.14
  89  0.216  0.496  0.461-  66 3.08  65 3.25
  90  0.716  0.504  0.461-  65 3.08  66 3.25
  91  0.216  0.004  0.461-  68 3.08  67 3.25
  92  0.716  0.996  0.461-  67 3.08  68 3.25
  93  0.216  0.496  0.961-  70 3.08  69 3.25
  94  0.716  0.504  0.961-  69 3.08  70 3.25
  95  0.216  0.004  0.961-  72 3.08  71 3.25
  96  0.716  0.996  0.961-  71 3.08  72 3.25
 
  LATTYP: Found a triclinic cell.
 ALAT       =    17.8238589327
 B/A-ratio  =     0.6989248630
 C/A-ratio  =     1.0156975818
 COS(alpha) =     0.0001355172
 COS(beta)  =     0.5146378593
 COS(gamma) =     0.6988877578
  
  Lattice vectors:
  
 A1 = (  -0.1406063366, -12.4576271275, -12.7466742118)
 A2 = (  -0.0011956322, -12.4575380825,   0.0007464135)
 A3 = ( -12.7162481321,  -0.0020049566, -12.8856194186)


Analysis of symmetry for initial positions (statically):
=====================================================================
 Subroutine PRICEL returns following result:
 
  LATTYP: Found a triclinic cell.
 ALAT       =     8.8502626515
 B/A-ratio  =     1.4075896561
 C/A-ratio  =     0.7202149489
 COS(alpha) =     0.0000518785
 COS(beta)  =     0.0156138721
 COS(gamma) =     0.7036188608
  
  Lattice vectors:
  
 A1 = (  -6.2878208978,   6.2278110854,  -0.0694726034)
 A2 = (   0.0011956322,  12.4575380825,  -0.0007464135)
 A3 = (  -0.0697053522,  -0.0000445225,  -6.3737103126)
 
   4 primitive cells build up your supercell.
 

 Routine SETGRP: Setting up the symmetry group for a 
 triclinic supercell.


 Subroutine GETGRP returns: Found  1 space group operations
 (whereof  1 operations were pure point group operations)
 out of a pool of  2 trial point group operations.


The static configuration has the point symmetry C_1 .


Analysis of symmetry for dynamics (positions and initial velocities):
=====================================================================
 Subroutine PRICEL returns following result:
 
  LATTYP: Found a triclinic cell.
 ALAT       =     8.8502626515
 B/A-ratio  =     1.4075896561
 C/A-ratio  =     0.7202149489
 COS(alpha) =     0.0000518785
 COS(beta)  =     0.0156138721
 COS(gamma) =     0.7036188608
  
  Lattice vectors:
  
 A1 = (  -6.2878208978,   6.2278110854,  -0.0694726034)
 A2 = (   0.0011956322,  12.4575380825,  -0.0007464135)
 A3 = (  -0.0697053522,  -0.0000445225,  -6.3737103126)
 
   4 primitive cells build up your supercell.
 

 Routine SETGRP: Setting up the symmetry group for a 
 triclinic supercell.


 Subroutine GETGRP returns: Found  1 space group operations
 (whereof  1 operations were pure point group operations)
 out of a pool of  2 trial point group operations.


The dynamic configuration has the point symmetry C_1 .


Analysis of structural, dynamic, and magnetic symmetry:
=====================================================================
 Subroutine PRICEL returns following result:
 
  LATTYP: Found a triclinic cell.
 ALAT       =     8.8502626515
 B/A-ratio  =     1.4075896561
 C/A-ratio  =     0.7202149489
 COS(alpha) =     0.0000518785
 COS(beta)  =     0.0156138721
 COS(gamma) =     0.7036188608
  
  Lattice vectors:
  
 A1 = (  -6.2878208978,   6.2278110854,  -0.0694726034)
 A2 = (   0.0011956322,  12.4575380825,  -0.0007464135)
 A3 = (  -0.0697053522,  -0.0000445225,  -6.3737103126)
 
   4 primitive cells build up your supercell.
 

 Routine SETGRP: Setting up the symmetry group for a 
 triclinic supercell.


 Subroutine GETGRP returns: Found  1 space group operations
 (whereof  1 operations were pure point group operations)
 out of a pool of  2 trial point group operations.


The (compounded) configuration has the point symmetry C_1 .


 Subroutine INISYM returns: Found  1 space group operations
 (whereof  1 operations are pure point group operations),
 and found     4 'primitive' translations

 
 
 KPOINTS: Automatic 3x3x3                         

Automatic generation of k-mesh.
Space group operators:
 irot       det(A)        alpha          n_x          n_y          n_z        tau_x        tau_y        tau_z
    1     1.000000     0.000000     1.000000     0.000000     0.000000     0.000000     0.000000     0.000000
 
 Subroutine IBZKPT returns following result:
 ===========================================
 
 Found     27 irreducible k-points:
 
 Following reciprocal coordinates:
            Coordinates               Weight
  0.000000  0.000000  0.000000      1.000000
  0.333333 -0.000000 -0.000000      1.000000
 -0.333333  0.000000  0.000000      1.000000
  0.000000  0.333333 -0.000000      1.000000
  0.333333  0.333333  0.000000      1.000000
 -0.333333  0.333333  0.000000      1.000000
 -0.000000 -0.333333  0.000000      1.000000
  0.333333 -0.333333 -0.000000      1.000000
 -0.333333 -0.333333 -0.000000      1.000000
  0.000000  0.000000  0.333333      1.000000
  0.333333  0.000000  0.333333      1.000000
 -0.333333  0.000000  0.333333      1.000000
  0.000000  0.333333  0.333333      1.000000
  0.333333  0.333333  0.333333      1.000000
 -0.333333  0.333333  0.333333      1.000000
  0.000000 -0.333333  0.333333      1.000000
  0.333333 -0.333333  0.333333      1.000000
 -0.333333 -0.333333  0.333333      1.000000
  0.000000  0.000000 -0.333333      1.000000
  0.333333 -0.000000 -0.333333      1.000000
 -0.333333 -0.000000 -0.333333      1.000000
 -0.000000  0.333333 -0.333333      1.000000
  0.333333  0.333333 -0.333333      1.000000
 -0.333333  0.333333 -0.333333      1.000000
 -0.000000 -0.333333 -0.333333      1.000000
  0.333333 -0.333333 -0.333333      1.000000
 -0.333333 -0.333333 -0.333333      1.000000
 
 Following cartesian coordinates:
            Coordinates               Weight
  0.000000  0.000000  0.000000      1.000000
  0.026507 -0.000003 -0.000290      1.000000
 -0.026507  0.000003  0.000290      1.000000
 -0.000004  0.026758 -0.000000      1.000000
  0.026503  0.026755 -0.000290      1.000000
 -0.026511  0.026760  0.000290      1.000000
  0.000004 -0.026758  0.000000      1.000000
  0.026511 -0.026760 -0.000290      1.000000
 -0.026503 -0.026755  0.000290      1.000000
 -0.000287  0.000002  0.026152      1.000000
  0.026220 -0.000001  0.025862      1.000000
 -0.026794  0.000004  0.026442      1.000000
 -0.000291  0.026759  0.026152      1.000000
  0.026215  0.026757  0.025862      1.000000
 -0.026798  0.026762  0.026442      1.000000
 -0.000283 -0.026756  0.026152      1.000000
  0.026224 -0.026759  0.025862      1.000000
 -0.026790 -0.026753  0.026442      1.000000
  0.000287 -0.000002 -0.026152      1.000000
  0.026794 -0.000004 -0.026442      1.000000
 -0.026220  0.000001 -0.025862      1.000000
  0.000283  0.026756 -0.026152      1.000000
  0.026790  0.026753 -0.026442      1.000000
 -0.026224  0.026759 -0.025862      1.000000
  0.000291 -0.026759 -0.026152      1.000000
  0.026798 -0.026762 -0.026442      1.000000
 -0.026215 -0.026757 -0.025862      1.000000
 


--------------------------------------------------------------------------------------------------------




 Dimension of arrays:
   k-points           NKPTS =     27   k-points in BZ     NKDIM =     27   number of bands    NBANDS=    600
   number of dos      NEDOS =    301   number of ions     NIONS =     96
   non local maximal  LDIM  =      6   non local SUM 2l+1 LMDIM =     18
   total plane-waves  NPLWV = ******
   max r-space proj   IRMAX =      1   max aug-charges    IRDMAX= 314103
   dimension x,y,z NGX =   112 NGY =  108 NGZ =  112
   dimension x,y,z NGXF=   224 NGYF=  216 NGZF=  224
   support grid    NGXF=   448 NGYF=  432 NGZF=  448
   ions per type =               8   8  48   8  24
 NGX,Y,Z   is equivalent  to a cutoff of  14.80, 14.41, 14.61 a.u.
 NGXF,Y,Z  is equivalent  to a cutoff of  29.61, 28.83, 29.21 a.u.


 I would recommend the setting:
   dimension x,y,z NGX =   109 NGY =  107 NGZ =  110
 SYSTEM =  MAPbI3-Cubic                            
 POSCAR =  C N H Pb I                              

 Startparameter for this run:
   NWRITE =      2    write-flag & timer
   PREC   = accura    normal or accurate (medium, high low for compatibility)
   ISTART =      0    job   : 0-new  1-cont  2-samecut
   ICHARG =      2    charge: 1-file 2-atom 10-const
   ISPIN  =      1    spin polarized calculation?
   LNONCOLLINEAR =      T non collinear calculations
   LSORBIT =      T    spin-orbit coupling
   INIWAV =      1    electr: 0-lowe 1-rand  2-diag
   LASPH  =      F    aspherical Exc in radial PAW
   METAGGA=      F    non-selfconsistent MetaGGA calc.

 Electronic Relaxation 1
   ENCUT  =  700.0 eV  51.45 Ry    7.17 a.u.  27.13 26.87 27.50*2*pi/ulx,y,z
   ENINI  =  700.0     initial cutoff
   ENAUG  =  644.9 eV  augmentation charge cutoff
   NELM   =     60;   NELMIN=  2; NELMDL= -5     # of ELM steps 
   EDIFF  = 0.1E-07   stopping-criterion for ELM
   LREAL  =      F    real-space projection
   NLSPLINE    = F    spline interpolate recip. space projectors
   LCOMPAT=      F    compatible to vasp.4.4
   GGA_COMPAT  = T    GGA compatible to vasp.4.4-vasp.4.6
   LMAXPAW     = -100 max onsite density
   LMAXMIX     =    2 max onsite mixed and CHGCAR
   VOSKOWN=      0    Vosko Wilk Nusair interpolation
   ROPT   =    0.00000   0.00000   0.00000   0.00000
   ROPT   =    0.00000
 Ionic relaxation
   EDIFFG = 0.1E-06   stopping-criterion for IOM
   NSW    =      0    number of steps for IOM
   NBLOCK =      1;   KBLOCK =      1    inner block; outer block 
   IBRION =     -1    ionic relax: 0-MD 1-quasi-New 2-CG
   NFREE  =      0    steps in history (QN), initial steepest desc. (CG)
   ISIF   =      2    stress and relaxation
   IWAVPR =     10    prediction:  0-non 1-charg 2-wave 3-comb
   ISYM   =      2    0-nonsym 1-usesym 2-fastsym
   LCORR  =      T    Harris-Foulkes like correction to forces

   POTIM  = 0.5000    time-step for ionic-motion
   TEIN   =    0.0    initial temperature
   TEBEG  =    0.0;   TEEND  =   0.0 temperature during run
   SMASS  =  -3.00    Nose mass-parameter (am)
   estimated Nose-frequenzy (Omega)   =  0.10E-29 period in steps =****** mass=  -0.362E-26a.u.
   SCALEE = 1.0000    scale energy and forces
   NPACO  =    256;   APACO  = 16.0  distance and # of slots for P.C.
   PSTRESS=    0.0 pullay stress

  Mass of Ions in am
   POMASS =  12.01 14.00  1.00207.20126.90
  Ionic Valenz
   ZVAL   =   4.00  5.00  1.00 14.00  7.00
  Atomic Wigner-Seitz radii
   RWIGS  =  -1.00 -1.00 -1.00 -1.00 -1.00
  virtual crystal weights 
   VCA    =   1.00  1.00  1.00  1.00  1.00
   NELECT =     400.0000    total number of electrons
   NUPDOWN=      -1.0000    fix difference up-down

 DOS related values:
   EMIN   =  10.00;   EMAX   =-10.00  energy-range for DOS
   EFERMI =   0.00
   ISMEAR =     0;   SIGMA  =   0.00  broadening in eV -4-tet -1-fermi 0-gaus

 Electronic relaxation 2 (details)
   IALGO  =     38    algorithm
   LDIAG  =      T    sub-space diagonalisation (order eigenvalues)
   LSUBROT=      F    optimize rotation matrix (better conditioning)
   TURBO    =      0    0=normal 1=particle mesh
   IRESTART =      0    0=no restart 2=restart with 2 vectors
   NREBOOT  =      0    no. of reboots
   NMIN     =      0    reboot dimension
   EREF     =   0.00    reference energy to select bands
   IMIX   =      4    mixing-type and parameters
     AMIX     =   0.40;   BMIX     =  1.00
     AMIX_MAG =   1.60;   BMIX_MAG =  1.00
     AMIN     =   0.10
     WC   =   100.;   INIMIX=   1;  MIXPRE=   1;  MAXMIX= -45

 Intra band minimization:
   WEIMIN = 0.0000     energy-eigenvalue tresh-hold
   EBREAK =  0.42E-11  absolut break condition
   DEPER  =   0.30     relativ break condition  

   TIME   =   0.40     timestep for ELM

  volume/ion in A,a.u.               =      20.80       140.38
  Fermi-wavevector in a.u.,A,eV,Ry     =   0.957863  1.810099 12.483376  0.917502
  Thomas-Fermi vector in A             =   2.086919
 
 Write flags
   LWAVE  =      F    write WAVECAR
   LCHARG =      F    write CHGCAR
   LVTOT  =      F    write LOCPOT, total local potential
   LVHAR  =      F    write LOCPOT, Hartree potential only
   LELF   =      F    write electronic localiz. function (ELF)
   LORBIT =      0    0 simple, 1 ext, 2 COOP (PROOUT)


 Dipole corrections
   LMONO  =      F    monopole corrections only (constant potential shift)
   LDIPOL =      F    correct potential (dipole corrections)
   IDIPOL =      0    1-x, 2-y, 3-z, 4-all directions 
   EPSILON=  1.0000000 bulk dielectric constant

 Core level calculations are selected ICORELEVEL =  1
 Exchange correlation treatment:
   GGA     =    PS    GGA type
   LEXCH   =    14    internal setting for exchange type
   VOSKOWN=      0    Vosko Wilk Nusair interpolation
   LHFCALC =     F    Hartree Fock is set to
   LHFONE  =     F    Hartree Fock one center treatment
   AEXX    =    0.0000 exact exchange contribution

 Linear response parameters
   LEPSILON=     F    determine dielectric tensor
   LRPA    =     F    only Hartree local field effects (RPA)
   LNABLA  =     F    use nabla operator in PAW spheres
   LVEL    =     F    velocity operator in full k-point grid
   LINTERFAST=   F  fast interpolation
   KINTER  =     0    interpolate to denser k-point grid
   CSHIFT  =0.1000    complex shift for real part using Kramers Kronig
   OMEGAMAX=  -1.0    maximum frequency
   DEG_THRESHOLD= 0.2000000E-02 threshold for treating states as degnerate
   RTIME   =    0.100 relaxation time in fs

 Orbital magnetization related:
   ORBITALMAG=     F  switch on orbital magnetization
   LCHIMAG   =     F  perturbation theory with respect to B field
   DQ        =  0.001000  dq finite difference perturbation B field



--------------------------------------------------------------------------------------------------------


 Static calculation
 charge density and potential will be updated during run
 non collinear spin polarized calculation
 Variant of blocked Davidson
 Davidson routine will perform the subspace rotation
 perform sub-space diagonalisation
    after iterative eigenvector-optimisation
 modified Broyden-mixing scheme, WC =      100.0
 initial mixing is a Kerker type mixing with AMIX =  0.4000 and BMIX =      1.0000
 Hartree-type preconditioning will be used
 using additional bands          400
 reciprocal scheme for non local part
 use partial core corrections
 calculate Harris-corrections to forces 
   (improved forces if not selfconsistent)
 use gradient corrections 
 use of overlap-Matrix (Vanderbilt PP)
 Gauss-broadening in eV      SIGMA  =   0.00


--------------------------------------------------------------------------------------------------------


  energy-cutoff  :      700.00
  volume of cell :     1996.98
      direct lattice vectors                 reciprocal lattice vectors
    12.576837428  0.001915912  0.138198793     0.079520802 -0.000007684 -0.000869670
     0.001195632 12.457538083 -0.000746413    -0.000012224  0.080272684 -0.000000427
     0.139410704  0.000089045 12.747420625    -0.000862111  0.000004784  0.078456671

  length of vectors
    12.577596840 12.457538162 12.748182927     0.079525558  0.080272685  0.078461408


 
 k-points in units of 2pi/SCALE and weight: Automatic 3x3x3                         
   0.00000000  0.00000000  0.00000000       0.037
   0.02650693 -0.00000256 -0.00028989       0.037
  -0.02650693  0.00000256  0.00028989       0.037
  -0.00000407  0.02675756 -0.00000014       0.037
   0.02650286  0.02675500 -0.00029003       0.037
  -0.02651101  0.02676012  0.00028975       0.037
   0.00000407 -0.02675756  0.00000014       0.037
   0.02651101 -0.02676012 -0.00028975       0.037
  -0.02650286 -0.02675500  0.00029003       0.037
  -0.00028737  0.00000159  0.02615222       0.037
   0.02621956 -0.00000097  0.02586233       0.037
  -0.02679430  0.00000416  0.02644211       0.037
  -0.00029144  0.02675916  0.02615208       0.037
   0.02621549  0.02675659  0.02586219       0.037
  -0.02679838  0.02676172  0.02644197       0.037
  -0.00028330 -0.02675597  0.02615237       0.037
   0.02622364 -0.02675853  0.02586248       0.037
  -0.02679023 -0.02675341  0.02644226       0.037
   0.00028737 -0.00000159 -0.02615222       0.037
   0.02679430 -0.00000416 -0.02644211       0.037
  -0.02621956  0.00000097 -0.02586233       0.037
   0.00028330  0.02675597 -0.02615237       0.037
   0.02679023  0.02675341 -0.02644226       0.037
  -0.02622364  0.02675853 -0.02586248       0.037
   0.00029144 -0.02675916 -0.02615208       0.037
   0.02679838 -0.02676172 -0.02644197       0.037
  -0.02621549 -0.02675659 -0.02586219       0.037
 
 k-points in reciprocal lattice and weights: Automatic 3x3x3                         
   0.00000000  0.00000000  0.00000000       0.037
   0.33333333 -0.00000000 -0.00000000       0.037
  -0.33333333  0.00000000  0.00000000       0.037
   0.00000000  0.33333333 -0.00000000       0.037
   0.33333333  0.33333333  0.00000000       0.037
  -0.33333333  0.33333333  0.00000000       0.037
  -0.00000000 -0.33333333  0.00000000       0.037
   0.33333333 -0.33333333 -0.00000000       0.037
  -0.33333333 -0.33333333 -0.00000000       0.037
   0.00000000  0.00000000  0.33333333       0.037
   0.33333333  0.00000000  0.33333333       0.037
  -0.33333333  0.00000000  0.33333333       0.037
   0.00000000  0.33333333  0.33333333       0.037
   0.33333333  0.33333333  0.33333333       0.037
  -0.33333333  0.33333333  0.33333333       0.037
   0.00000000 -0.33333333  0.33333333       0.037
   0.33333333 -0.33333333  0.33333333       0.037
  -0.33333333 -0.33333333  0.33333333       0.037
   0.00000000  0.00000000 -0.33333333       0.037
   0.33333333 -0.00000000 -0.33333333       0.037
  -0.33333333 -0.00000000 -0.33333333       0.037
  -0.00000000  0.33333333 -0.33333333       0.037
   0.33333333  0.33333333 -0.33333333       0.037
  -0.33333333  0.33333333 -0.33333333       0.037
  -0.00000000 -0.33333333 -0.33333333       0.037
   0.33333333 -0.33333333 -0.33333333       0.037
  -0.33333333 -0.33333333 -0.33333333       0.037
 
 position of ions in fractional coordinates (direct lattice) 
   0.19810925  0.24991292  0.22717858
   0.69587901  0.24990363  0.23065213
   0.19587901  0.74990363  0.23065213
   0.69810925  0.74991292  0.22717858
   0.19810925  0.24991292  0.72717858
   0.69587901  0.24990363  0.73065213
   0.19587901  0.74990363  0.73065213
   0.69810925  0.74991292  0.72717858
   0.30484409  0.25000717  0.27398253
   0.80423035  0.25000011  0.27378606
   0.30423035  0.75000011  0.27378606
   0.80484409  0.75000717  0.27398253
   0.30484409  0.25000717  0.77398253
   0.80423035  0.25000011  0.77378606
   0.30423035  0.75000011  0.77378606
   0.80484409  0.75000717  0.77398253
   0.20769904  0.24982095  0.14125737
   0.70245129  0.24982124  0.14451989
   0.20245129  0.74982124  0.14451989
   0.70769904  0.74982095  0.14125737
   0.20769904  0.24982095  0.64125737
   0.70245129  0.24982124  0.64451989
   0.20245129  0.74982124  0.64451989
   0.70769904  0.74982095  0.64125737
   0.15503480  0.32236953  0.25308191
   0.65364082  0.32233484  0.25794873
   0.15364082  0.82233484  0.25794873
   0.65503480  0.82236953  0.25308191
   0.15503480  0.32236953  0.75308191
   0.65364082  0.32233484  0.75794873
   0.15364082  0.82233484  0.75794873
   0.65503480  0.82236953  0.75308191
   0.15513274  0.17747341  0.25322552
   0.65375292  0.17747874  0.25807590
   0.15375292  0.67747874  0.25807590
   0.65513274  0.67747341  0.25322552
   0.15513274  0.17747341  0.75322552
   0.65375292  0.17747874  0.75807590
   0.15375292  0.67747874  0.75807590
   0.65513274  0.67747341  0.75322552
   0.34879453  0.31791147  0.25158561
   0.84747462  0.31783709  0.24992737
   0.34747462  0.81783709  0.24992737
   0.84879453  0.81791147  0.25158561
   0.34879453  0.31791147  0.75158561
   0.84747462  0.31783709  0.74992737
   0.34747462  0.81783709  0.74992737
   0.84879453  0.81791147  0.75158561
   0.34885838  0.18206930  0.25172860
   0.84755222  0.18214048  0.25005320
   0.34755222  0.68214048  0.25005320
   0.84885838  0.68206930  0.25172860
   0.34885838  0.18206930  0.75172860
   0.84755222  0.18214048  0.75005320
   0.34755222  0.68214048  0.75005320
   0.84885838  0.68206930  0.75172860
   0.30191780  0.25010316  0.35565893
   0.80442235  0.25008388  0.35555956
   0.30442235  0.75008388  0.35555956
   0.80191780  0.75010316  0.35565893
   0.30191780  0.25010316  0.85565893
   0.80442235  0.25008388  0.85555956
   0.30442235  0.75008388  0.85555956
   0.80191780  0.75010316  0.85565893
   0.47244275  0.50017163  0.48881120
   0.97244080  0.49980796  0.48881169
   0.47244080  0.99980796  0.48881169
   0.97244275  0.00017163  0.48881120
   0.47244275  0.50017163  0.98881120
   0.97244080  0.49980796  0.98881169
   0.47244080  0.99980796  0.98881169
   0.97244275  0.00017163  0.98881120
   0.45474638  0.50008787  0.23757217
   0.95474096  0.49989423  0.23757332
   0.45474096  0.99989423  0.23757332
   0.95474638  0.00008787  0.23757217
   0.45474638  0.50008787  0.73757217
   0.95474096  0.49989423  0.73757332
   0.45474096  0.99989423  0.73757332
   0.95474638  0.00008787  0.73757217
   0.45313824  0.24997832  0.01117396
   0.94613264  0.24997970  0.01249048
   0.44613264  0.74997970  0.01249048
   0.95313824  0.74997832  0.01117396
   0.45313824  0.24997832  0.51117396
   0.94613264  0.24997970  0.51249048
   0.44613264  0.74997970  0.51249048
   0.95313824  0.74997832  0.51117396
   0.21617228  0.49581661  0.46123970
   0.71617059  0.50417827  0.46123970
   0.21617059  0.00417827  0.46123970
   0.71617228  0.99581661  0.46123970
   0.21617228  0.49581661  0.96123970
   0.71617059  0.50417827  0.96123970
   0.21617059  0.00417827  0.96123970
   0.71617228  0.99581661  0.96123970
 
 position of ions in cartesian coordinates  (Angst):
   2.52355780  3.11369957  2.92313284
   8.78441136  3.11453771  3.03620281
   2.49659047  9.34234880  2.96673020
   8.81257433  9.34342657  2.99185903
   2.59326315  3.11374409  9.29684315
   8.85411672  3.11458223  9.40991312
   2.56629582  9.34239332  9.34044052
   8.88227968  9.34347109  9.36556934
   3.87246957  3.11508227  3.53451308
  10.15314196  3.11595114  3.60102311
   3.86532106  9.34376223  3.53155051
  10.16148610  9.34480927  3.60323927
   3.94217493  3.11512679  9.90822340
  10.22284731  3.11599566  9.97473343
   3.93502641  9.34380675  9.90526082
  10.23119146  9.34485379  9.97694959
   2.63218859  3.11256449  1.82918435
   8.85506200  3.11351637  1.93914723
   2.56724110  9.34132745  1.86967462
   8.92120512  9.34229149  1.89791054
   2.70189394  3.11260901  8.20289466
   8.92476735  3.11356089  8.31285754
   2.63694645  9.34137197  8.24338494
   8.99091047  9.34233601  8.27162085
   1.98551518  4.01625032  3.24732653
   8.25708051  4.01677382  3.37827275
   1.96925962 10.24458491  3.30880015
   8.27453171 10.24597731  3.31605272
   2.05522053  4.01629484  9.62103684
   8.32678587  4.01681835  9.75198306
   2.03896497 10.24462943  9.68251046
   8.34423706 10.24602184  9.68976303
   1.98659383  2.21120153  3.24927887
   8.25833499  2.21222364  3.38001740
   1.97051409  8.44003472  3.31054479
   8.27561036  8.44092853  3.31800506
   2.05629918  2.21124606  9.62298918
   8.32804034  2.21226816  9.75372771
   2.04021944  8.44007924  9.68425510
   8.34531571  8.44097305  9.69171537
   4.42218597  3.96108494  3.25503333
  10.69377311  3.96111363  3.30281202
   4.40595221 10.18892472  3.23333942
  10.71120250 10.19081194  3.32375952
   4.49189132  3.96112946  9.62874364
  10.76347846  3.96115815  9.67652233
   4.47565756 10.18896924  9.60704973
  10.78090785 10.19085646  9.69746983
   4.42284649  2.26882599  3.25696623
  10.69460435  2.27066805  3.30452808
   4.40678345  8.49847913  3.23505548
  10.71186302  8.49855299  3.32569242
   4.49255184  2.26887052  9.63067654
  10.76430970  2.27071257  9.67823839
   4.47648880  8.49852365  9.60876579
  10.78156837  8.49859751  9.69940273
   3.84705279  3.11627978  4.57527193
  10.16695688  3.11700235  4.64345084
   3.87913598  9.34481343  4.57397824
  10.13606932  9.34600677  4.64399812
   3.91675814  3.11632430 10.94898224
  10.23666223  3.11704687 11.01716115
   3.94884133  9.34485795 10.94768855
  10.20577467  9.34605130 11.01770843
   6.01057924  6.23185586  6.29599972
  12.29897300  6.22828328  6.36510529
   6.01115210 12.45609436  6.29563269
  12.29840014  0.00404478  6.36547232
   6.08028459  6.23190039 12.66971003
  12.36867835  6.22832780 12.73881561
   6.08085745 12.45613889 12.66934300
  12.36810549  0.00408930 12.73918263
   5.75298937  6.23075612  3.09090445
  12.04133985  6.22930172  3.16001794
   5.75351895 12.45711281  3.09054533
  12.04081026  0.00294504  3.16037706
   5.82269472  6.23080064  9.46461477
  12.11104520  6.22934624  9.53372825
   5.82322431 12.45715733  9.46425565
  12.11051562  0.00298956  9.53408737
   5.70090268  3.11498359  0.20487574
  11.90139653  3.11594548  0.28978915
   5.61357563  9.34375657  0.22031655
  11.98991921  9.34471059  0.27360193
   5.77060803  3.11502811  6.57858605
  11.97110188  3.11599000  6.66349946
   5.68328098  9.34380109  6.59402686
  12.05962456  9.34475511  6.64731224
   2.78365824  6.17710948  5.90912115
   9.07206568  6.28223316  5.97821408
   2.78304915  0.05250616  5.90948789
   9.07267477 12.40683648  5.97784734
   2.85336359  6.17715400 12.28283146
   9.14177103  6.28227768 12.35192440
   2.85275450  0.05255068 12.28319821
   9.14238012 12.40688100 12.35155765
 
 Euler angles ALPHA=     0.0000000  BETA=     0.0000000

 transformation matrix from SAXIS to cartesian coordinates
 ---------------------------------------------------------
     1.0000000 m_x     0.0000000 m_y     0.0000000 m_z
     0.0000000 m_x     1.0000000 m_y     0.0000000 m_z
     0.0000000 m_x     0.0000000 m_y     1.0000000 m_z

 transformation matrix from cartesian coordinates to SAXIS
 ---------------------------------------------------------
     1.0000000 m_x     0.0000000 m_y     0.0000000 m_z
     0.0000000 m_x     1.0000000 m_y     0.0000000 m_z
     0.0000000 m_x     0.0000000 m_y     1.0000000 m_z




--------------------------------------------------------------------------------------------------------


 k-point  1 :   0.0000 0.0000 0.0000  plane waves:  168014
 k-point  2 :   0.3333-0.0000-0.0000  plane waves:  168006
 k-point  3 :  -0.3333 0.0000 0.0000  plane waves:  168006
 k-point  4 :   0.0000 0.3333-0.0000  plane waves:  167990
 k-point  5 :   0.3333 0.3333 0.0000  plane waves:  168036
 k-point  6 :  -0.3333 0.3333 0.0000  plane waves:  168038
 k-point  7 :  -0.0000-0.3333 0.0000  plane waves:  167990
 k-point  8 :   0.3333-0.3333-0.0000  plane waves:  168038
 k-point  9 :  -0.3333-0.3333-0.0000  plane waves:  168036
 k-point 10 :   0.0000 0.0000 0.3333  plane waves:  167920
 k-point 11 :   0.3333 0.0000 0.3333  plane waves:  167874
 k-point 12 :  -0.3333 0.0000 0.3333  plane waves:  167964
 k-point 13 :   0.0000 0.3333 0.3333  plane waves:  167968
 k-point 14 :   0.3333 0.3333 0.3333  plane waves:  168024
 k-point 15 :  -0.3333 0.3333 0.3333  plane waves:  167940
 k-point 16 :   0.0000-0.3333 0.3333  plane waves:  167954
 k-point 17 :   0.3333-0.3333 0.3333  plane waves:  168026
 k-point 18 :  -0.3333-0.3333 0.3333  plane waves:  167946
 k-point 19 :   0.0000 0.0000-0.3333  plane waves:  167920
 k-point 20 :   0.3333-0.0000-0.3333  plane waves:  167964
 k-point 21 :  -0.3333-0.0000-0.3333  plane waves:  167874
 k-point 22 :  -0.0000 0.3333-0.3333  plane waves:  167954
 k-point 23 :   0.3333 0.3333-0.3333  plane waves:  167946
 k-point 24 :  -0.3333 0.3333-0.3333  plane waves:  168026
 k-point 25 :  -0.0000-0.3333-0.3333  plane waves:  167968
 k-point 26 :   0.3333-0.3333-0.3333  plane waves:  167940
 k-point 27 :  -0.3333-0.3333-0.3333  plane waves:  168024

 maximum and minimum number of plane-waves per node :      7122     6820

 maximum number of plane-waves:    168038
 maximum index in each direction: 
   IXMAX=   27   IYMAX=   27   IZMAX=   27
   IXMIN=  -27   IYMIN=  -27   IZMIN=  -27

 NGX is ok and might be reduce to 110
 WARNING: aliasing errors must be expected set NGY to 110 to avoid them
 NGZ is ok and might be reduce to 110
 aliasing errors are usually negligible using standard VASP settings
 and one can safely disregard these warnings

 parallel 3D FFT for wavefunctions:
    minimum data exchange during FFTs selected (reduces bandwidth)
 parallel 3D FFT for charge:
    minimum data exchange during FFTs selected (reduces bandwidth)


 total amount of memory used by VASP on root node   392927. kBytes
========================================================================

   base      :      30000. kBytes
   nonl-proj :      73667. kBytes
   fftplans  :      22714. kBytes
   grid      :      35610. kBytes
   one-center:        248. kBytes
   wavefun   :     230688. kBytes
 
     INWAV:  cpu time    0.0000: real time    0.0000
 Broyden mixing: mesh for mixing (old mesh)
   NGX = 55   NGY = 53   NGZ = 55
  (NGX  =224   NGY  =216   NGZ  =224)
  gives a total of 160325 points

 initial charge density was supplied:
 charge density of overlapping atoms calculated
 number of electron     400.0000000 magnetization      96.0000000     96.0000000     96.0000000
 keeping initial charge density in first step


--------------------------------------------------------------------------------------------------------


 Maximum index for augmentation-charges         5207 (set IRDMAX)


--------------------------------------------------------------------------------------------------------


 First call to EWALD:  gamma=   0.141
 Maximum number of real-space cells 3x 3x 3
 Maximum number of reciprocal cells 3x 3x 3

 FEWALD executed in parallel
    FEWALD:  cpu time    0.0040: real time    0.0058


----------------------------------------- Iteration    1(   1)  ---------------------------------------


    POTLOK:  cpu time    0.5840: real time    0.5835
    SETDIJ:  cpu time    2.1441: real time    2.1449
     EDDAV:  cpu time  237.4468: real time  237.6014
       DOS:  cpu time    0.0040: real time    0.0066
    --------------------------------------------
      LOOP:  cpu time  240.1830: real time  240.3624

 eigenvalue-minimisations  : 32544
 total energy-change (2. order) : 0.4234082E+04  (-0.1930913E+05)
 number of electron     400.0000000 magnetization      96.0000000     96.0000000     96.0000000
 augmentation part      400.0000000 magnetization      96.0000000     96.0000000     96.0000000

 Free energy of the ion-electron system (eV)
  ---------------------------------------------------
  alpha Z        PSCENC =       370.05370877
  Ewald energy   TEWEN  =    -15505.55135322
  -Hartree energ DENC   =     -8138.87333221
  -exchange      EXHF   =         0.00000000
  -V(xc)+E(xc)   XCENC  =       674.27946009
  PAW double counting   =     20172.90621935   -19413.33347658
  entropy T*S    EENTRO =        -0.00000427
  eigenvalues    EBANDS =      1325.59416959
  atomic energy  EATOM  =     24749.00668030
  Solvation  Ediel_sol  =         0.00000000
  ---------------------------------------------------
  free energy    TOTEN  =      4234.08207182 eV

  energy without entropy =     4234.08207609  energy(sigma->0) =     4234.08207395


--------------------------------------------------------------------------------------------------------




----------------------------------------- Iteration    1(   2)  ---------------------------------------


     EDDAV:  cpu time  253.7959: real time  253.9647
       DOS:  cpu time    0.0080: real time    0.0066
    --------------------------------------------
      LOOP:  cpu time  253.8079: real time  253.9824

 eigenvalue-minimisations  : 35632
 total energy-change (2. order) :-0.3388453E+04  (-0.3138101E+04)
 number of electron     400.0000000 magnetization      96.0000000     96.0000000     96.0000000
 augmentation part      400.0000000 magnetization      96.0000000     96.0000000     96.0000000

 Free energy of the ion-electron system (eV)
  ---------------------------------------------------
  alpha Z        PSCENC =       370.05370877
  Ewald energy   TEWEN  =    -15505.55135322
  -Hartree energ DENC   =     -8138.87333221
  -exchange      EXHF   =         0.00000000
  -V(xc)+E(xc)   XCENC  =       674.27946009
  PAW double counting   =     20172.90621935   -19413.33347658
  entropy T*S    EENTRO =        -0.00000011
  eigenvalues    EBANDS =     -2062.85878545
  atomic energy  EATOM  =     24749.00668030
  Solvation  Ediel_sol  =         0.00000000
  ---------------------------------------------------
  free energy    TOTEN  =       845.62912094 eV

  energy without entropy =      845.62912105  energy(sigma->0) =      845.62912099


--------------------------------------------------------------------------------------------------------




----------------------------------------- Iteration    1(   3)  ---------------------------------------


     EDDAV:  cpu time  298.3066: real time  298.5041
       DOS:  cpu time    0.0080: real time    0.0070
    --------------------------------------------
      LOOP:  cpu time  298.3186: real time  298.5846

 eigenvalue-minimisations  : 43944
 total energy-change (2. order) :-0.6100059E+03  (-0.5897103E+03)
 number of electron     400.0000000 magnetization      96.0000000     96.0000000     96.0000000
 augmentation part      400.0000000 magnetization      96.0000000     96.0000000     96.0000000

 Free energy of the ion-electron system (eV)
  ---------------------------------------------------
  alpha Z        PSCENC =       370.05370877
  Ewald energy   TEWEN  =    -15505.55135322
  -Hartree energ DENC   =     -8138.87333221
  -exchange      EXHF   =         0.00000000
  -V(xc)+E(xc)   XCENC  =       674.27946009
  PAW double counting   =     20172.90621935   -19413.33347658
  entropy T*S    EENTRO =        -0.00002134
  eigenvalues    EBANDS =     -2672.86464018
  atomic energy  EATOM  =     24749.00668030
  Solvation  Ediel_sol  =         0.00000000
  ---------------------------------------------------
  free energy    TOTEN  =       235.62324498 eV

  energy without entropy =      235.62326632  energy(sigma->0) =      235.62325565


--------------------------------------------------------------------------------------------------------




----------------------------------------- Iteration    1(   4)  ---------------------------------------


     EDDAV:  cpu time  299.1747: real time  299.3716
       DOS:  cpu time    0.0080: real time    0.0078
    --------------------------------------------
      LOOP:  cpu time  299.1867: real time  299.3910

 eigenvalue-minimisations  : 44056
 total energy-change (2. order) :-0.4583909E+02  (-0.4477974E+02)
 number of electron     400.0000000 magnetization      96.0000000     96.0000000     96.0000000
 augmentation part      400.0000000 magnetization      96.0000000     96.0000000     96.0000000

 Free energy of the ion-electron system (eV)
  ---------------------------------------------------
  alpha Z        PSCENC =       370.05370877
  Ewald energy   TEWEN  =    -15505.55135322
  -Hartree energ DENC   =     -8138.87333221
  -exchange      EXHF   =         0.00000000
  -V(xc)+E(xc)   XCENC  =       674.27946009
  PAW double counting   =     20172.90621935   -19413.33347658
  entropy T*S    EENTRO =        -0.00020091
  eigenvalues    EBANDS =     -2718.70355501
  atomic energy  EATOM  =     24749.00668030
  Solvation  Ediel_sol  =         0.00000000
  ---------------------------------------------------
  free energy    TOTEN  =       189.78415057 eV

  energy without entropy =      189.78435149  energy(sigma->0) =      189.78425103


--------------------------------------------------------------------------------------------------------




----------------------------------------- Iteration    1(   5)  ---------------------------------------


     EDDAV:  cpu time  332.5888: real time  332.8035
       DOS:  cpu time    0.0080: real time    0.0085
    CHARGE:  cpu time   11.6407: real time   11.6447
    MIXING:  cpu time    0.0120: real time    0.0156
    --------------------------------------------
      LOOP:  cpu time  344.2495: real time  344.5994

 eigenvalue-minimisations  : 50216
 total energy-change (2. order) :-0.2320001E+01  (-0.2307664E+01)
 number of electron     399.9999999 magnetization      67.0924418     67.0896639     67.0895009
 augmentation part        7.0104069 magnetization      63.4694429     63.4761909     63.4758880

 Broyden mixing:
  rms(total) = 0.98285E+01    rms(broyden)= 0.98283E+01
  rms(prec ) = 0.10330E+02
  weight for this iteration     100.00

 Free energy of the ion-electron system (eV)
  ---------------------------------------------------
  alpha Z        PSCENC =       370.05370877
  Ewald energy   TEWEN  =    -15505.55135322
  -Hartree energ DENC   =     -8138.87333221
  -exchange      EXHF   =         0.00000000
  -V(xc)+E(xc)   XCENC  =       674.27946009
  PAW double counting   =     20172.90621935   -19413.33347658
  entropy T*S    EENTRO =        -0.00021666
  eigenvalues    EBANDS =     -2721.02354007
  atomic energy  EATOM  =     24749.00668030
  Solvation  Ediel_sol  =         0.00000000
  ---------------------------------------------------
  free energy    TOTEN  =       187.46414977 eV

  energy without entropy =      187.46436643  energy(sigma->0) =      187.46425810


--------------------------------------------------------------------------------------------------------




----------------------------------------- Iteration    1(   6)  ---------------------------------------


    POTLOK:  cpu time    0.5840: real time    0.5843
    SETDIJ:  cpu time    2.1521: real time    2.1514
     EDDAV:  cpu time  260.8923: real time  261.0705
       DOS:  cpu time    0.0080: real time    0.0050
    CHARGE:  cpu time   11.9047: real time   11.9135
    MIXING:  cpu time    0.0160: real time    0.0162
    --------------------------------------------
      LOOP:  cpu time  275.5612: real time  275.7799

 eigenvalue-minimisations  : 36952
 total energy-change (2. order) :-0.1320287E+03  (-0.1541075E+03)
 number of electron     399.9999999 magnetization      50.2275710     50.2234922     50.2260868
 augmentation part        5.9416955 magnetization      51.0041640     51.0091217     51.0001782

 Broyden mixing:
  rms(total) = 0.48514E+01    rms(broyden)= 0.48513E+01
  rms(prec ) = 0.50339E+01
  weight for this iteration     100.00

 eigenvalues of (default mixing * dielectric matrix)
  average eigenvalue GAMMA=   0.7596
  0.7596

 Free energy of the ion-electron system (eV)
  ---------------------------------------------------
  alpha Z        PSCENC =       370.05370877
  Ewald energy   TEWEN  =    -15505.55135322
  -Hartree energ DENC   =     -8499.01735574
  -exchange      EXHF   =         0.00000000
  -V(xc)+E(xc)   XCENC  =       691.99729872
  PAW double counting   =     24217.89176131   -23481.03295481
  entropy T*S    EENTRO =        -0.00000000
  eigenvalues    EBANDS =     -2487.91230010
  atomic energy  EATOM  =     24749.00668030
  Solvation  Ediel_sol  =         0.00000000
  ---------------------------------------------------
  free energy    TOTEN  =        55.43548522 eV

  energy without entropy =       55.43548522  energy(sigma->0) =       55.43548522


--------------------------------------------------------------------------------------------------------




----------------------------------------- Iteration    1(   7)  ---------------------------------------


    POTLOK:  cpu time    0.5720: real time    0.5754
    SETDIJ:  cpu time    2.1841: real time    2.1846
     EDDAV:  cpu time  273.1931: real time  273.3761
       DOS:  cpu time    0.0080: real time    0.0073
    CHARGE:  cpu time   11.8727: real time   11.8800
    MIXING:  cpu time    0.0160: real time    0.0157
    --------------------------------------------
      LOOP:  cpu time  287.8500: real time  288.8928

 eigenvalue-minimisations  : 39248
 total energy-change (2. order) :-0.1498114E+03  (-0.1593495E+02)
 number of electron     399.9999999 magnetization      34.1321995     34.1255225     34.1351346
 augmentation part        5.6287195 magnetization      35.1612201     35.1682070     35.1488495

 Broyden mixing:
  rms(total) = 0.28274E+01    rms(broyden)= 0.28274E+01
  rms(prec ) = 0.29806E+01
  weight for this iteration     100.00

 eigenvalues of (default mixing * dielectric matrix)
  average eigenvalue GAMMA=   0.8447
  0.8447  0.8447

 Free energy of the ion-electron system (eV)
  ---------------------------------------------------
  alpha Z        PSCENC =       370.05370877
  Ewald energy   TEWEN  =    -15505.55135322
  -Hartree energ DENC   =     -8548.08196247
  -exchange      EXHF   =         0.00000000
  -V(xc)+E(xc)   XCENC  =       592.85780637
  PAW double counting   =     26675.12826596   -25938.46551347
  entropy T*S    EENTRO =        -0.00001964
  eigenvalues    EBANDS =     -2489.32349020
  atomic energy  EATOM  =     24749.00668030
  Solvation  Ediel_sol  =         0.00000000
  ---------------------------------------------------
  free energy    TOTEN  =       -94.37587760 eV

  energy without entropy =      -94.37585796  energy(sigma->0) =      -94.37586778


--------------------------------------------------------------------------------------------------------




----------------------------------------- Iteration    1(   8)  ---------------------------------------


    POTLOK:  cpu time    0.5920: real time    0.5934
    SETDIJ:  cpu time    2.1481: real time    2.1547
     EDDAV:  cpu time  262.5764: real time  262.7472
       DOS:  cpu time    0.0040: real time    0.0044
    CHARGE:  cpu time   11.8407: real time   11.8481
    MIXING:  cpu time    0.0160: real time    0.0165
    --------------------------------------------
      LOOP:  cpu time  277.1813: real time  277.4102

 eigenvalue-minimisations  : 37216
 total energy-change (2. order) :-0.1087568E+03  (-0.6433338E+01)
 number of electron     399.9999999 magnetization      15.5183999     15.5068212     15.5215492
 augmentation part        6.6867559 magnetization      16.6768538     16.6838063     16.6794373

 Broyden mixing:
  rms(total) = 0.18245E+01    rms(broyden)= 0.18245E+01
  rms(prec ) = 0.18789E+01
  weight for this iteration     100.00

 eigenvalues of (default mixing * dielectric matrix)
  average eigenvalue GAMMA=   1.0153
  1.4431  0.9693  0.6334

 Free energy of the ion-electron system (eV)
  ---------------------------------------------------
  alpha Z        PSCENC =       370.05370877
  Ewald energy   TEWEN  =    -15505.55135322
  -Hartree energ DENC   =     -8582.15588551
  -exchange      EXHF   =         0.00000000
  -V(xc)+E(xc)   XCENC  =       529.22504220
  PAW double counting   =     28713.66130357   -27979.09219902
  entropy T*S    EENTRO =        -0.00000000
  eigenvalues    EBANDS =     -2498.27995534
  atomic energy  EATOM  =     24749.00668030
  Solvation  Ediel_sol  =         0.00000000
  ---------------------------------------------------
  free energy    TOTEN  =      -203.13265825 eV

  energy without entropy =     -203.13265825  energy(sigma->0) =     -203.13265825


--------------------------------------------------------------------------------------------------------




----------------------------------------- Iteration    1(   9)  ---------------------------------------


    POTLOK:  cpu time    0.5760: real time    0.5782
    SETDIJ:  cpu time    2.1241: real time    2.1237
     EDDAV:  cpu time  260.3323: real time  260.5067
       DOS:  cpu time    0.0040: real time    0.0041
    CHARGE:  cpu time   11.8447: real time   11.8547
    MIXING:  cpu time    0.0160: real time    0.0160
    --------------------------------------------
      LOOP:  cpu time  274.9052: real time  275.1628

 eigenvalue-minimisations  : 36832
 total energy-change (2. order) :-0.1325426E+03  (-0.1244463E+02)
 number of electron     400.0000000 magnetization      10.2024305     10.1890106     10.2020518
 augmentation part        7.9483890 magnetization      11.0063895     11.0138414     11.0195991

 Broyden mixing:
  rms(total) = 0.90297E+00    rms(broyden)= 0.90296E+00
  rms(prec ) = 0.95527E+00
  weight for this iteration     100.00

 eigenvalues of (default mixing * dielectric matrix)
  average eigenvalue GAMMA=   1.0835
  1.8356  1.1017  0.6983  0.6983

 Free energy of the ion-electron system (eV)
  ---------------------------------------------------
  alpha Z        PSCENC =       370.05370877
  Ewald energy   TEWEN  =    -15505.55135322
  -Hartree energ DENC   =     -8614.04451693
  -exchange      EXHF   =         0.00000000
  -V(xc)+E(xc)   XCENC  =       463.11835038
  PAW double counting   =     30831.74997334   -30098.32852830
  entropy T*S    EENTRO =         0.00000000
  eigenvalues    EBANDS =     -2531.67953339
  atomic energy  EATOM  =     24749.00668030
  Solvation  Ediel_sol  =         0.00000000
  ---------------------------------------------------
  free energy    TOTEN  =      -335.67521905 eV

  energy without entropy =     -335.67521905  energy(sigma->0) =     -335.67521905


--------------------------------------------------------------------------------------------------------




----------------------------------------- Iteration    1(  10)  ---------------------------------------


    POTLOK:  cpu time    0.5720: real time    0.5744
    SETDIJ:  cpu time    2.1801: real time    2.1796
     EDDAV:  cpu time  263.4485: real time  263.6259
       DOS:  cpu time    0.0040: real time    0.0043
    CHARGE:  cpu time   11.8927: real time   11.9017
    MIXING:  cpu time    0.0160: real time    0.0168
    --------------------------------------------
      LOOP:  cpu time  278.1214: real time  278.3276

 eigenvalue-minimisations  : 37272
 total energy-change (2. order) :-0.4767421E+02  (-0.5111238E+01)
 number of electron     400.0000000 magnetization       6.5182161      6.5079048      6.5158952
 augmentation part        8.2619961 magnetization       7.0335184      7.0312072      7.0363563

 Broyden mixing:
  rms(total) = 0.66956E+00    rms(broyden)= 0.66956E+00
  rms(prec ) = 0.74803E+00
  weight for this iteration     100.00

 eigenvalues of (default mixing * dielectric matrix)
  average eigenvalue GAMMA=   1.1348
  1.6999  1.6999  0.8300  0.8300  0.6139

 Free energy of the ion-electron system (eV)
  ---------------------------------------------------
  alpha Z        PSCENC =       370.05370877
  Ewald energy   TEWEN  =    -15505.55135322
  -Hartree energ DENC   =     -8599.96740267
  -exchange      EXHF   =         0.00000000
  -V(xc)+E(xc)   XCENC  =       443.02049734
  PAW double counting   =     31163.36619067   -30428.38930597
  entropy T*S    EENTRO =         0.00000000
  eigenvalues    EBANDS =     -2574.88843932
  atomic energy  EATOM  =     24749.00668030
  Solvation  Ediel_sol  =         0.00000000
  ---------------------------------------------------
  free energy    TOTEN  =      -383.34942410 eV

  energy without entropy =     -383.34942410  energy(sigma->0) =     -383.34942410


--------------------------------------------------------------------------------------------------------




----------------------------------------- Iteration    1(  11)  ---------------------------------------


    POTLOK:  cpu time    0.6400: real time    0.6395
    SETDIJ:  cpu time    2.1881: real time    2.1899
     EDDAV:  cpu time  266.5767: real time  266.7528
       DOS:  cpu time    0.0040: real time    0.0042
    CHARGE:  cpu time   11.8607: real time   11.8707
    MIXING:  cpu time    0.0200: real time    0.0168
    --------------------------------------------
      LOOP:  cpu time  281.2936: real time  281.5372

 eigenvalue-minimisations  : 37968
 total energy-change (2. order) :-0.2576621E+02  (-0.3381722E+01)
 number of electron     400.0000000 magnetization       3.1188379      3.1122916      3.1165521
 augmentation part        8.1015869 magnetization       3.3506856      3.3465807      3.3489492

 Broyden mixing:
  rms(total) = 0.38533E+00    rms(broyden)= 0.38533E+00
  rms(prec ) = 0.43723E+00
  weight for this iteration     100.00

 eigenvalues of (default mixing * dielectric matrix)
  average eigenvalue GAMMA=   1.2034
  2.0390  2.0390  0.9519  0.9519  0.6610  0.5773

 Free energy of the ion-electron system (eV)
  ---------------------------------------------------
  alpha Z        PSCENC =       370.05370877
  Ewald energy   TEWEN  =    -15505.55135322
  -Hartree energ DENC   =     -8547.76547501
  -exchange      EXHF   =         0.00000000
  -V(xc)+E(xc)   XCENC  =       429.44735373
  PAW double counting   =     31079.27672645   -30340.97050910
  entropy T*S    EENTRO =         0.00000000
  eigenvalues    EBANDS =     -2642.61276386
  atomic energy  EATOM  =     24749.00668030
  Solvation  Ediel_sol  =         0.00000000
  ---------------------------------------------------
  free energy    TOTEN  =      -409.11563194 eV

  energy without entropy =     -409.11563194  energy(sigma->0) =     -409.11563194


--------------------------------------------------------------------------------------------------------




----------------------------------------- Iteration    1(  12)  ---------------------------------------


    POTLOK:  cpu time    0.5880: real time    0.5863
    SETDIJ:  cpu time    2.1401: real time    2.1410
     EDDAV:  cpu time  279.7895: real time  279.9760
       DOS:  cpu time    0.0040: real time    0.0041
    CHARGE:  cpu time   11.8727: real time   11.8788
    MIXING:  cpu time    0.0200: real time    0.0166
    --------------------------------------------
      LOOP:  cpu time  294.4144: real time  294.6223

 eigenvalue-minimisations  : 40288
 total energy-change (2. order) :-0.1206760E+02  (-0.1876978E+01)
 number of electron     400.0000000 magnetization       2.5515821      2.5463304      2.5499752
 augmentation part        7.9127767 magnetization       2.6146732      2.6087675      2.6117005

 Broyden mixing:
  rms(total) = 0.25757E+00    rms(broyden)= 0.25757E+00
  rms(prec ) = 0.29668E+00
  weight for this iteration     100.00

 eigenvalues of (default mixing * dielectric matrix)
  average eigenvalue GAMMA=   1.1540
  2.0789  2.0789  0.9869  0.9869  0.6740  0.6740  0.5986

 Free energy of the ion-electron system (eV)
  ---------------------------------------------------
  alpha Z        PSCENC =       370.05370877
  Ewald energy   TEWEN  =    -15505.55135322
  -Hartree energ DENC   =     -8499.98015953
  -exchange      EXHF   =         0.00000000
  -V(xc)+E(xc)   XCENC  =       422.75970662
  PAW double counting   =     30945.47827270   -30204.38796288
  entropy T*S    EENTRO =         0.00000000
  eigenvalues    EBANDS =     -2698.56212081
  atomic energy  EATOM  =     24749.00668030
  Solvation  Ediel_sol  =         0.00000000
  ---------------------------------------------------
  free energy    TOTEN  =      -421.18322805 eV

  energy without entropy =     -421.18322805  energy(sigma->0) =     -421.18322805


--------------------------------------------------------------------------------------------------------




----------------------------------------- Iteration    1(  13)  ---------------------------------------


    POTLOK:  cpu time    0.5920: real time    0.5934
    SETDIJ:  cpu time    2.2201: real time    2.2239
     EDDAV:  cpu time  280.8936: real time  281.0762
       DOS:  cpu time    0.0040: real time    0.0043
    CHARGE:  cpu time   11.8607: real time   11.8696
    MIXING:  cpu time    0.0200: real time    0.0173
    --------------------------------------------
      LOOP:  cpu time  295.5905: real time  295.8406

 eigenvalue-minimisations  : 40640
 total energy-change (2. order) :-0.1530235E+01  (-0.2335750E+00)
 number of electron     400.0000000 magnetization       1.7266399      1.7236321      1.7258303
 augmentation part        7.9092870 magnetization       1.7774317      1.7756142      1.7771266

 Broyden mixing:
  rms(total) = 0.20862E+00    rms(broyden)= 0.20862E+00
  rms(prec ) = 0.24487E+00
  weight for this iteration     100.00

 eigenvalues of (default mixing * dielectric matrix)
  average eigenvalue GAMMA=   1.1762
  2.1972  2.1972  1.0344  1.0344  0.8748  0.8748  0.6234  0.5730

 Free energy of the ion-electron system (eV)
  ---------------------------------------------------
  alpha Z        PSCENC =       370.05370877
  Ewald energy   TEWEN  =    -15505.55135322
  -Hartree energ DENC   =     -8488.46886102
[...]
     0.0000000     0.0000000     0.0000000     0.0000000     0.0000000     0.0000000     0.0000000
     0.0000000     0.0000000     0.0000000     0.0000000     0.0000000     0.0000000     0.0000000
     0.0000000     0.0000000     0.0000000     0.0000000     0.0000000     0.0000000     0.0000000
     0.0000000     0.0000000     0.0000000     0.0000000     0.0000000     0.0000000     0.0000000

 Ion:   82  E_soc:     -0.2794148
 l=   1
     0.0000000    -0.0482720    -0.0484644
    -0.0482720     0.0000000    -0.0429933
    -0.0484644    -0.0429933     0.0000000
 l=   2
     0.0000000    -0.0000102     0.0000000    -0.0000032     0.0000241
    -0.0000102     0.0000000     0.0000053    -0.0000025     0.0000133
     0.0000000     0.0000053     0.0000000    -0.0000033     0.0000000
    -0.0000032    -0.0000025    -0.0000033     0.0000000    -0.0000012
     0.0000241     0.0000133     0.0000000    -0.0000012     0.0000000
 l=   3
     0.0000000     0.0000000     0.0000000     0.0000000     0.0000000     0.0000000     0.0000000
     0.0000000     0.0000000     0.0000000     0.0000000     0.0000000     0.0000000     0.0000000
     0.0000000     0.0000000     0.0000000     0.0000000     0.0000000     0.0000000     0.0000000
     0.0000000     0.0000000     0.0000000     0.0000000     0.0000000     0.0000000     0.0000000
     0.0000000     0.0000000     0.0000000     0.0000000     0.0000000     0.0000000     0.0000000
     0.0000000     0.0000000     0.0000000     0.0000000     0.0000000     0.0000000     0.0000000
     0.0000000     0.0000000     0.0000000     0.0000000     0.0000000     0.0000000     0.0000000

 Ion:   83  E_soc:     -0.2794148
 l=   1
     0.0000000    -0.0482720    -0.0484644
    -0.0482720     0.0000000    -0.0429933
    -0.0484644    -0.0429933     0.0000000
 l=   2
     0.0000000    -0.0000102     0.0000000    -0.0000032     0.0000241
    -0.0000102     0.0000000     0.0000053    -0.0000025     0.0000133
     0.0000000     0.0000053     0.0000000    -0.0000033     0.0000000
    -0.0000032    -0.0000025    -0.0000033     0.0000000    -0.0000012
     0.0000241     0.0000133     0.0000000    -0.0000012     0.0000000
 l=   3
     0.0000000     0.0000000     0.0000000     0.0000000     0.0000000     0.0000000     0.0000000
     0.0000000     0.0000000     0.0000000     0.0000000     0.0000000     0.0000000     0.0000000
     0.0000000     0.0000000     0.0000000     0.0000000     0.0000000     0.0000000     0.0000000
     0.0000000     0.0000000     0.0000000     0.0000000     0.0000000     0.0000000     0.0000000
     0.0000000     0.0000000     0.0000000     0.0000000     0.0000000     0.0000000     0.0000000
     0.0000000     0.0000000     0.0000000     0.0000000     0.0000000     0.0000000     0.0000000
     0.0000000     0.0000000     0.0000000     0.0000000     0.0000000     0.0000000     0.0000000

 Ion:   84  E_soc:     -0.2800104
 l=   1
     0.0000000    -0.0484800    -0.0485769
    -0.0484800     0.0000000    -0.0429720
    -0.0485769    -0.0429720     0.0000000
 l=   2
     0.0000000    -0.0000106     0.0000000    -0.0000032     0.0000247
    -0.0000106     0.0000000     0.0000056    -0.0000024     0.0000139
     0.0000000     0.0000056     0.0000000    -0.0000032     0.0000000
    -0.0000032    -0.0000024    -0.0000032     0.0000000    -0.0000010
     0.0000247     0.0000139     0.0000000    -0.0000010     0.0000000
 l=   3
     0.0000000     0.0000000     0.0000000     0.0000000     0.0000000     0.0000000     0.0000000
     0.0000000     0.0000000     0.0000000     0.0000000     0.0000000     0.0000000     0.0000000
     0.0000000     0.0000000     0.0000000     0.0000000     0.0000000     0.0000000     0.0000000
     0.0000000     0.0000000     0.0000000     0.0000000     0.0000000     0.0000000     0.0000000
     0.0000000     0.0000000     0.0000000     0.0000000     0.0000000     0.0000000     0.0000000
     0.0000000     0.0000000     0.0000000     0.0000000     0.0000000     0.0000000     0.0000000
     0.0000000     0.0000000     0.0000000     0.0000000     0.0000000     0.0000000     0.0000000

 Ion:   85  E_soc:     -0.2800104
 l=   1
     0.0000000    -0.0484800    -0.0485769
    -0.0484800     0.0000000    -0.0429720
    -0.0485769    -0.0429720     0.0000000
 l=   2
     0.0000000    -0.0000106     0.0000000    -0.0000032     0.0000247
    -0.0000106     0.0000000     0.0000056    -0.0000024     0.0000139
     0.0000000     0.0000056     0.0000000    -0.0000032     0.0000000
    -0.0000032    -0.0000024    -0.0000032     0.0000000    -0.0000010
     0.0000247     0.0000139     0.0000000    -0.0000010     0.0000000
 l=   3
     0.0000000     0.0000000     0.0000000     0.0000000     0.0000000     0.0000000     0.0000000
     0.0000000     0.0000000     0.0000000     0.0000000     0.0000000     0.0000000     0.0000000
     0.0000000     0.0000000     0.0000000     0.0000000     0.0000000     0.0000000     0.0000000
     0.0000000     0.0000000     0.0000000     0.0000000     0.0000000     0.0000000     0.0000000
     0.0000000     0.0000000     0.0000000     0.0000000     0.0000000     0.0000000     0.0000000
     0.0000000     0.0000000     0.0000000     0.0000000     0.0000000     0.0000000     0.0000000
     0.0000000     0.0000000     0.0000000     0.0000000     0.0000000     0.0000000     0.0000000

 Ion:   86  E_soc:     -0.2794148
 l=   1
     0.0000000    -0.0482720    -0.0484644
    -0.0482720     0.0000000    -0.0429933
    -0.0484644    -0.0429933     0.0000000
 l=   2
     0.0000000    -0.0000102     0.0000000    -0.0000032     0.0000241
    -0.0000102     0.0000000     0.0000053    -0.0000025     0.0000133
     0.0000000     0.0000053     0.0000000    -0.0000033     0.0000000
    -0.0000032    -0.0000025    -0.0000033     0.0000000    -0.0000012
     0.0000241     0.0000133     0.0000000    -0.0000012     0.0000000
 l=   3
     0.0000000     0.0000000     0.0000000     0.0000000     0.0000000     0.0000000     0.0000000
     0.0000000     0.0000000     0.0000000     0.0000000     0.0000000     0.0000000     0.0000000
     0.0000000     0.0000000     0.0000000     0.0000000     0.0000000     0.0000000     0.0000000
     0.0000000     0.0000000     0.0000000     0.0000000     0.0000000     0.0000000     0.0000000
     0.0000000     0.0000000     0.0000000     0.0000000     0.0000000     0.0000000     0.0000000
     0.0000000     0.0000000     0.0000000     0.0000000     0.0000000     0.0000000     0.0000000
     0.0000000     0.0000000     0.0000000     0.0000000     0.0000000     0.0000000     0.0000000

 Ion:   87  E_soc:     -0.2794148
 l=   1
     0.0000000    -0.0482720    -0.0484644
    -0.0482720     0.0000000    -0.0429933
    -0.0484644    -0.0429933     0.0000000
 l=   2
     0.0000000    -0.0000102     0.0000000    -0.0000032     0.0000241
    -0.0000102     0.0000000     0.0000053    -0.0000025     0.0000133
     0.0000000     0.0000053     0.0000000    -0.0000033     0.0000000
    -0.0000032    -0.0000025    -0.0000033     0.0000000    -0.0000012
     0.0000241     0.0000133     0.0000000    -0.0000012     0.0000000
 l=   3
     0.0000000     0.0000000     0.0000000     0.0000000     0.0000000     0.0000000     0.0000000
     0.0000000     0.0000000     0.0000000     0.0000000     0.0000000     0.0000000     0.0000000
     0.0000000     0.0000000     0.0000000     0.0000000     0.0000000     0.0000000     0.0000000
     0.0000000     0.0000000     0.0000000     0.0000000     0.0000000     0.0000000     0.0000000
     0.0000000     0.0000000     0.0000000     0.0000000     0.0000000     0.0000000     0.0000000
     0.0000000     0.0000000     0.0000000     0.0000000     0.0000000     0.0000000     0.0000000
     0.0000000     0.0000000     0.0000000     0.0000000     0.0000000     0.0000000     0.0000000

 Ion:   88  E_soc:     -0.2800104
 l=   1
     0.0000000    -0.0484800    -0.0485769
    -0.0484800     0.0000000    -0.0429720
    -0.0485769    -0.0429720     0.0000000
 l=   2
     0.0000000    -0.0000106     0.0000000    -0.0000032     0.0000247
    -0.0000106     0.0000000     0.0000056    -0.0000024     0.0000139
     0.0000000     0.0000056     0.0000000    -0.0000032     0.0000000
    -0.0000032    -0.0000024    -0.0000032     0.0000000    -0.0000010
     0.0000247     0.0000139     0.0000000    -0.0000010     0.0000000
 l=   3
     0.0000000     0.0000000     0.0000000     0.0000000     0.0000000     0.0000000     0.0000000
     0.0000000     0.0000000     0.0000000     0.0000000     0.0000000     0.0000000     0.0000000
     0.0000000     0.0000000     0.0000000     0.0000000     0.0000000     0.0000000     0.0000000
     0.0000000     0.0000000     0.0000000     0.0000000     0.0000000     0.0000000     0.0000000
     0.0000000     0.0000000     0.0000000     0.0000000     0.0000000     0.0000000     0.0000000
     0.0000000     0.0000000     0.0000000     0.0000000     0.0000000     0.0000000     0.0000000
     0.0000000     0.0000000     0.0000000     0.0000000     0.0000000     0.0000000     0.0000000

 Ion:   89  E_soc:     -0.2859811
 l=   1
     0.0000000    -0.0429563    -0.0495461
    -0.0429563     0.0000000    -0.0505113
    -0.0495461    -0.0505113     0.0000000
 l=   2
     0.0000000    -0.0000023     0.0000000    -0.0000086     0.0000209
    -0.0000023     0.0000000    -0.0000024    -0.0000025    -0.0000014
     0.0000000    -0.0000024     0.0000000     0.0000055     0.0000000
    -0.0000086    -0.0000025     0.0000055     0.0000000     0.0000138
     0.0000209    -0.0000014     0.0000000     0.0000138     0.0000000
 l=   3
     0.0000000     0.0000000     0.0000000     0.0000000     0.0000000     0.0000000     0.0000000
     0.0000000     0.0000000     0.0000000     0.0000000     0.0000000     0.0000000     0.0000000
     0.0000000     0.0000000     0.0000000     0.0000000     0.0000000     0.0000000     0.0000000
     0.0000000     0.0000000     0.0000000     0.0000000     0.0000000     0.0000000     0.0000000
     0.0000000     0.0000000     0.0000000     0.0000000     0.0000000     0.0000000     0.0000000
     0.0000000     0.0000000     0.0000000     0.0000000     0.0000000     0.0000000     0.0000000
     0.0000000     0.0000000     0.0000000     0.0000000     0.0000000     0.0000000     0.0000000

 Ion:   90  E_soc:     -0.2859829
 l=   1
     0.0000000    -0.0429563    -0.0495467
    -0.0429563     0.0000000    -0.0505116
    -0.0495467    -0.0505116     0.0000000
 l=   2
     0.0000000    -0.0000023     0.0000000    -0.0000086     0.0000209
    -0.0000023     0.0000000    -0.0000024    -0.0000025    -0.0000014
     0.0000000    -0.0000024     0.0000000     0.0000055     0.0000000
    -0.0000086    -0.0000025     0.0000055     0.0000000     0.0000138
     0.0000209    -0.0000014     0.0000000     0.0000138     0.0000000
 l=   3
     0.0000000     0.0000000     0.0000000     0.0000000     0.0000000     0.0000000     0.0000000
     0.0000000     0.0000000     0.0000000     0.0000000     0.0000000     0.0000000     0.0000000
     0.0000000     0.0000000     0.0000000     0.0000000     0.0000000     0.0000000     0.0000000
     0.0000000     0.0000000     0.0000000     0.0000000     0.0000000     0.0000000     0.0000000
     0.0000000     0.0000000     0.0000000     0.0000000     0.0000000     0.0000000     0.0000000
     0.0000000     0.0000000     0.0000000     0.0000000     0.0000000     0.0000000     0.0000000
     0.0000000     0.0000000     0.0000000     0.0000000     0.0000000     0.0000000     0.0000000

 Ion:   91  E_soc:     -0.2859829
 l=   1
     0.0000000    -0.0429563    -0.0495467
    -0.0429563     0.0000000    -0.0505116
    -0.0495467    -0.0505116     0.0000000
 l=   2
     0.0000000    -0.0000023     0.0000000    -0.0000086     0.0000209
    -0.0000023     0.0000000    -0.0000024    -0.0000025    -0.0000014
     0.0000000    -0.0000024     0.0000000     0.0000055     0.0000000
    -0.0000086    -0.0000025     0.0000055     0.0000000     0.0000138
     0.0000209    -0.0000014     0.0000000     0.0000138     0.0000000
 l=   3
     0.0000000     0.0000000     0.0000000     0.0000000     0.0000000     0.0000000     0.0000000
     0.0000000     0.0000000     0.0000000     0.0000000     0.0000000     0.0000000     0.0000000
     0.0000000     0.0000000     0.0000000     0.0000000     0.0000000     0.0000000     0.0000000
     0.0000000     0.0000000     0.0000000     0.0000000     0.0000000     0.0000000     0.0000000
     0.0000000     0.0000000     0.0000000     0.0000000     0.0000000     0.0000000     0.0000000
     0.0000000     0.0000000     0.0000000     0.0000000     0.0000000     0.0000000     0.0000000
     0.0000000     0.0000000     0.0000000     0.0000000     0.0000000     0.0000000     0.0000000

 Ion:   92  E_soc:     -0.2859811
 l=   1
     0.0000000    -0.0429563    -0.0495461
    -0.0429563     0.0000000    -0.0505113
    -0.0495461    -0.0505113     0.0000000
 l=   2
     0.0000000    -0.0000023     0.0000000    -0.0000086     0.0000209
    -0.0000023     0.0000000    -0.0000024    -0.0000025    -0.0000014
     0.0000000    -0.0000024     0.0000000     0.0000055     0.0000000
    -0.0000086    -0.0000025     0.0000055     0.0000000     0.0000138
     0.0000209    -0.0000014     0.0000000     0.0000138     0.0000000
 l=   3
     0.0000000     0.0000000     0.0000000     0.0000000     0.0000000     0.0000000     0.0000000
     0.0000000     0.0000000     0.0000000     0.0000000     0.0000000     0.0000000     0.0000000
     0.0000000     0.0000000     0.0000000     0.0000000     0.0000000     0.0000000     0.0000000
     0.0000000     0.0000000     0.0000000     0.0000000     0.0000000     0.0000000     0.0000000
     0.0000000     0.0000000     0.0000000     0.0000000     0.0000000     0.0000000     0.0000000
     0.0000000     0.0000000     0.0000000     0.0000000     0.0000000     0.0000000     0.0000000
     0.0000000     0.0000000     0.0000000     0.0000000     0.0000000     0.0000000     0.0000000

 Ion:   93  E_soc:     -0.2859811
 l=   1
     0.0000000    -0.0429563    -0.0495461
    -0.0429563     0.0000000    -0.0505113
    -0.0495461    -0.0505113     0.0000000
 l=   2
     0.0000000    -0.0000023     0.0000000    -0.0000086     0.0000209
    -0.0000023     0.0000000    -0.0000024    -0.0000025    -0.0000014
     0.0000000    -0.0000024     0.0000000     0.0000055     0.0000000
    -0.0000086    -0.0000025     0.0000055     0.0000000     0.0000138
     0.0000209    -0.0000014     0.0000000     0.0000138     0.0000000
 l=   3
     0.0000000     0.0000000     0.0000000     0.0000000     0.0000000     0.0000000     0.0000000
     0.0000000     0.0000000     0.0000000     0.0000000     0.0000000     0.0000000     0.0000000
     0.0000000     0.0000000     0.0000000     0.0000000     0.0000000     0.0000000     0.0000000
     0.0000000     0.0000000     0.0000000     0.0000000     0.0000000     0.0000000     0.0000000
     0.0000000     0.0000000     0.0000000     0.0000000     0.0000000     0.0000000     0.0000000
     0.0000000     0.0000000     0.0000000     0.0000000     0.0000000     0.0000000     0.0000000
     0.0000000     0.0000000     0.0000000     0.0000000     0.0000000     0.0000000     0.0000000

 Ion:   94  E_soc:     -0.2859829
 l=   1
     0.0000000    -0.0429563    -0.0495467
    -0.0429563     0.0000000    -0.0505116
    -0.0495467    -0.0505116     0.0000000
 l=   2
     0.0000000    -0.0000023     0.0000000    -0.0000086     0.0000209
    -0.0000023     0.0000000    -0.0000024    -0.0000025    -0.0000014
     0.0000000    -0.0000024     0.0000000     0.0000055     0.0000000
    -0.0000086    -0.0000025     0.0000055     0.0000000     0.0000138
     0.0000209    -0.0000014     0.0000000     0.0000138     0.0000000
 l=   3
     0.0000000     0.0000000     0.0000000     0.0000000     0.0000000     0.0000000     0.0000000
     0.0000000     0.0000000     0.0000000     0.0000000     0.0000000     0.0000000     0.0000000
     0.0000000     0.0000000     0.0000000     0.0000000     0.0000000     0.0000000     0.0000000
     0.0000000     0.0000000     0.0000000     0.0000000     0.0000000     0.0000000     0.0000000
     0.0000000     0.0000000     0.0000000     0.0000000     0.0000000     0.0000000     0.0000000
     0.0000000     0.0000000     0.0000000     0.0000000     0.0000000     0.0000000     0.0000000
     0.0000000     0.0000000     0.0000000     0.0000000     0.0000000     0.0000000     0.0000000

 Ion:   95  E_soc:     -0.2859829
 l=   1
     0.0000000    -0.0429563    -0.0495467
    -0.0429563     0.0000000    -0.0505116
    -0.0495467    -0.0505116     0.0000000
 l=   2
     0.0000000    -0.0000023     0.0000000    -0.0000086     0.0000209
    -0.0000023     0.0000000    -0.0000024    -0.0000025    -0.0000014
     0.0000000    -0.0000024     0.0000000     0.0000055     0.0000000
    -0.0000086    -0.0000025     0.0000055     0.0000000     0.0000138
     0.0000209    -0.0000014     0.0000000     0.0000138     0.0000000
 l=   3
     0.0000000     0.0000000     0.0000000     0.0000000     0.0000000     0.0000000     0.0000000
     0.0000000     0.0000000     0.0000000     0.0000000     0.0000000     0.0000000     0.0000000
     0.0000000     0.0000000     0.0000000     0.0000000     0.0000000     0.0000000     0.0000000
     0.0000000     0.0000000     0.0000000     0.0000000     0.0000000     0.0000000     0.0000000
     0.0000000     0.0000000     0.0000000     0.0000000     0.0000000     0.0000000     0.0000000
     0.0000000     0.0000000     0.0000000     0.0000000     0.0000000     0.0000000     0.0000000
     0.0000000     0.0000000     0.0000000     0.0000000     0.0000000     0.0000000     0.0000000

 Ion:   96  E_soc:     -0.2859811
 l=   1
     0.0000000    -0.0429563    -0.0495461
    -0.0429563     0.0000000    -0.0505113
    -0.0495461    -0.0505113     0.0000000
 l=   2
     0.0000000    -0.0000023     0.0000000    -0.0000086     0.0000209
    -0.0000023     0.0000000    -0.0000024    -0.0000025    -0.0000014
     0.0000000    -0.0000024     0.0000000     0.0000055     0.0000000
    -0.0000086    -0.0000025     0.0000055     0.0000000     0.0000138
     0.0000209    -0.0000014     0.0000000     0.0000138     0.0000000
 l=   3
     0.0000000     0.0000000     0.0000000     0.0000000     0.0000000     0.0000000     0.0000000
     0.0000000     0.0000000     0.0000000     0.0000000     0.0000000     0.0000000     0.0000000
     0.0000000     0.0000000     0.0000000     0.0000000     0.0000000     0.0000000     0.0000000
     0.0000000     0.0000000     0.0000000     0.0000000     0.0000000     0.0000000     0.0000000
     0.0000000     0.0000000     0.0000000     0.0000000     0.0000000     0.0000000     0.0000000
     0.0000000     0.0000000     0.0000000     0.0000000     0.0000000     0.0000000     0.0000000
     0.0000000     0.0000000     0.0000000     0.0000000     0.0000000     0.0000000     0.0000000

 total amount of memory used by VASP on root node   392927. kBytes
========================================================================

   base      :      30000. kBytes
   nonl-proj :      73667. kBytes
   fftplans  :      22714. kBytes
   grid      :      35610. kBytes
   one-center:        248. kBytes
   wavefun   :     230688. kBytes
 
  
  
 General timing and accounting informations for this job:
 ========================================================
  
                  Total CPU time used (sec):     8707.132
                            User time (sec):     8692.607
                          System time (sec):       14.525
                         Elapsed time (sec):     8725.978
  
                   Maximum memory used (kb):      412600.
                   Average memory used (kb):           0.
  
                          Minor page faults:       593626
                          Major page faults:            0
                 Voluntary context switches:        13993
