 running on  192 total cores
 distrk:  each k-point on  192 cores,    1 groups
 distr:  one band on   24 cores,    8 groups
 using from now: INCAR     
 vasp.5.4.1 24Jun15 (build Nov 25 2015 16:39:35) complex                        
  
 POSCAR found type information on POSCAR  C  N  H  Pb I 
 POSCAR found :  5 types and      96 ions
 scaLAPACK will be used

 ----------------------------------------------------------------------------- 
|                                                                             |
|  ADVICE TO THIS USER RUNNING 'VASP/VAMP'   (HEAR YOUR MASTER'S VOICE ...):  |
|                                                                             |
|      You have a (more or less) 'large supercell' and for larger cells       |
|      it might be more efficient to use real space projection opertators     |
|      So try LREAL= Auto  in the INCAR   file.                               |
|      Mind: At the moment your POTCAR file does not contain real space       |
|       projectors, and has to be modified,  BUT if you                       |
|      want to do an extremely  accurate calculation you might also keep the  |
|      reciprocal projection scheme          (i.e. LREAL=.FALSE.)             |
|                                                                             |
 ----------------------------------------------------------------------------- 


 ----------------------------------------------------------------------------- 
|                                                                             |
|  ADVICE TO THIS USER RUNNING 'VASP/VAMP'   (HEAR YOUR MASTER'S VOICE ...):  |
|                                                                             |
|      You enforced a specific xc-type in the INCAR file,                     |
|      a different type was found on the POTCAR file                          |
|          I HOPE YOU KNOW, WHAT YOU ARE  DOING                               |
|                                                                             |
 ----------------------------------------------------------------------------- 

 LDA part: xc-table for Pade appr. of Perdew
 POSCAR, INCAR and KPOINTS ok, starting setup
 WARNING: small aliasing (wrap around) errors must be expected
 FFT: planning ...
 WAVECAR not read
 entering main loop
       N       E                     dE             d eps       ncg     rms          rms(c)
DAV:   1     0.423408207182E+04    0.42341E+04   -0.19309E+05 32544   0.146E+03
DAV:   2     0.845629120937E+03   -0.33885E+04   -0.31381E+04 35632   0.322E+02
DAV:   3     0.235623244979E+03   -0.61001E+03   -0.58971E+03 43944   0.157E+02
DAV:   4     0.189784150573E+03   -0.45839E+02   -0.44780E+02 44056   0.438E+01
DAV:   5     0.187464149766E+03   -0.23200E+01   -0.23077E+01 50216   0.101E+01    0.983E+01
DAV:   6     0.554354852233E+02   -0.13203E+03   -0.15411E+03 36952   0.503E+01    0.485E+01
DAV:   7    -0.943758775987E+02   -0.14981E+03   -0.15935E+02 39248   0.216E+01    0.283E+01
DAV:   8    -0.203132658249E+03   -0.10876E+03   -0.64333E+01 37216   0.130E+01    0.182E+01
DAV:   9    -0.335675219050E+03   -0.13254E+03   -0.12445E+02 36832   0.162E+01    0.903E+00
DAV:  10    -0.383349424102E+03   -0.47674E+02   -0.51112E+01 37272   0.102E+01    0.670E+00
DAV:  11    -0.409115631943E+03   -0.25766E+02   -0.33817E+01 37968   0.794E+00    0.385E+00
DAV:  12    -0.421183228048E+03   -0.12068E+02   -0.18770E+01 40288   0.552E+00    0.258E+00
DAV:  13    -0.422713463512E+03   -0.15302E+01   -0.23358E+00 40640   0.259E+00    0.209E+00
DAV:  14    -0.423458037447E+03   -0.74457E+00   -0.97838E-01 38160   0.137E+00    0.121E+00
DAV:  15    -0.423519130017E+03   -0.61093E-01   -0.18719E-01 42568   0.726E-01    0.613E-01
DAV:  16    -0.423526816656E+03   -0.76866E-02   -0.34754E-02 40616   0.331E-01    0.377E-01
DAV:  17    -0.423529982994E+03   -0.31663E-02   -0.10258E-02 39328   0.172E-01    0.223E-01
DAV:  18    -0.423531897629E+03   -0.19146E-02   -0.23637E-03 39624   0.894E-02    0.841E-02
DAV:  19    -0.423532303233E+03   -0.40560E-03   -0.56291E-04 42224   0.472E-02    0.469E-02
DAV:  20    -0.423532540371E+03   -0.23714E-03   -0.23147E-04 38304   0.267E-02    0.287E-02
DAV:  21    -0.423532680347E+03   -0.13998E-03   -0.13589E-04 38704   0.191E-02    0.139E-02
DAV:  22    -0.423532691855E+03   -0.11508E-04   -0.16031E-05 43256   0.767E-03    0.958E-03
DAV:  23    -0.423532693269E+03   -0.14140E-05   -0.61956E-06 37632   0.379E-03    0.403E-03
DAV:  24    -0.423532695927E+03   -0.26582E-05   -0.25806E-06 35272   0.295E-03    0.223E-03
DAV:  25    -0.423532696109E+03   -0.18155E-06   -0.65603E-07 41368   0.139E-03    0.123E-03
DAV:  26    -0.423532696042E+03    0.67212E-07   -0.10933E-07 43648   0.670E-04    0.994E-04
DAV:  27    -0.423532695959E+03    0.82782E-07   -0.32038E-08 33976   0.397E-04    0.321E-04
DAV:  28    -0.423532695890E+03    0.68550E-07   -0.21905E-08 30416   0.290E-04    0.226E-04
DAV:  29    -0.423532695881E+03    0.90658E-08   -0.31986E-09 29056   0.149E-04
   1 F= -.42353270E+03 E0= -.42353270E+03  d E =0.000000E+00  mag=     0.0000     0.0000     0.0000
Application 22254245 resources: utime ~1670790s, stime ~2606s, Rss ~416024, inblocks ~2665583, outblocks ~3873808
