    2    2    1    1
  0.2002393E+02  0.3840297E-09  0.3840297E-09  0.3840297E-09  0.5000000E-15
  1.000000000000000E-004
  CAR 
 Name                                    
      8    730      8
 
  0.0000000E+00  0.0000000E+00  0.0000000E+00  0.4901961E-02
    1       -6.181781   1.000000
    2        5.776692   1.000000
    3        5.776692   1.000000
    4        5.776692   1.000000
    5        8.296693   0.000000
    6        8.296693   0.000000
    7        8.296693   0.000000
    8        8.983474   0.000000
 
  0.1666667E+00  0.0000000E+00  0.0000000E+00  0.3921569E-01
    1       -5.820430   1.000000
    2        3.379793   1.000000
    3        5.325482   1.000000
    4        5.325482   1.000000
    5        8.034505   0.000000
    6        8.943160   0.000000
    7        8.943160   0.000000
    8       11.092704   0.000000
 
  0.3333333E+00  0.0000000E+00  0.0000000E+00  0.3921569E-01
    1       -4.803316   1.000000
    2        0.424724   1.000000
    3        4.777655   1.000000
    4        4.777655   1.000000
    5        7.430393   0.000000
    6        9.233449   0.000000
    7        9.233449   0.000000
    8       13.449996   0.000000
 
  0.5000000E+00  0.0000000E+00  0.0000000E+00  0.1960784E-01
    1       -3.842898   1.000000
    2       -1.215787   1.000000
    3        4.580873   1.000000
    4        4.580873   1.000000
    5        7.202297   0.000000
    6        9.063763   0.000000
    7        9.063763   0.000000
    8       13.283848   0.000000
 
  0.1666667E+00  0.1666667E+00  0.0000000E+00  0.2941176E-01
    1       -5.697537   1.000000
    2        3.724355   1.000000
    3        4.579709   1.000000
    4        4.579709   1.000000
    5        7.403583   0.000000
    6        9.965692   0.000000
    7       10.073982   0.000000
    8       10.073983   0.000000
 
  0.3333333E+00  0.1666667E+00  0.0000000E+00  0.1176471E+00
    1       -4.881615   1.000000
    2        1.328899   1.000000
    3        3.767853   1.000000
    4        4.027906   1.000000
    5        7.657179   0.000000
    6        9.750742   0.000000
    7       10.222048   0.000000
    8       10.799006   0.000000
 
  0.5000000E+00  0.1666667E+00  0.0000000E+00  0.1176471E+00
    1       -3.685753   1.000000
    2       -0.844678   1.000000
    3        2.980171   1.000000
    4        3.999838   1.000000
    5        7.725253   0.000000
    6        9.804639   0.000000
    7       10.345441   0.000000
    8       12.101718   0.000000
 
 -0.3333333E+00  0.1666667E+00  0.0000000E+00  0.1176471E+00
    1       -4.072771   1.000000
    2       -0.243252   1.000000
    3        2.707655   1.000000
    4        4.480611   1.000000
    5        8.139622   0.000000
    6        9.807179   0.000000
    7        9.953570   0.000000
    8       12.962467   0.000000
 
 -0.1666667E+00  0.1666667E+00  0.0000000E+00  0.5882353E-01
    1       -5.231765   1.000000
    2        2.048432   1.000000
    3        3.343083   1.000000
    4        5.214066   1.000000
    5        8.740725   0.000000
    6        9.287243   0.000000
    7        9.540844   0.000000
    8       11.323564   0.000000
 
  0.3333333E+00  0.3333333E+00  0.0000000E+00  0.2941176E-01
    1       -4.277213   1.000000
    2        0.762224   1.000000
    3        3.356039   1.000000
    4        3.356039   1.000000
    5        6.401847   0.000000
    6        7.659218   0.000000
    7       12.965727   0.000000
    8       12.965730   0.000000
 
  0.5000000E+00  0.3333333E+00  0.0000000E+00  0.1176471E+00
    1       -3.112010   1.000000
    2       -0.788093   1.000000
    3        2.119516   1.000000
    4        3.220351   1.000000
    5        6.733686   0.000000
    6        8.400006   0.000000
    7       13.154740   0.000000
    8       13.159625   0.000000
 
 -0.3333333E+00  0.3333333E+00  0.0000000E+00  0.5882353E-01
    1       -2.912294   1.000000
    2       -0.995297   1.000000
    3        1.328780   1.000000
    4        3.663740   1.000000
    5        7.241221   0.000000
    6       11.481027   0.000000
    7       12.188036   0.000000
    8       12.753045   0.000000
 
  0.5000000E+00  0.5000000E+00  0.0000000E+00  0.1470588E-01
    1       -2.038015   1.000000
    2       -2.038015   1.000000
    3        2.922032   1.000000
    4        2.922032   1.000000
    5        6.375227   0.000000
    6        6.375227   0.000000
    7       15.751262   0.000000
    8       15.751766   0.000000
 
  0.5000000E+00  0.3333333E+00  0.1666667E+00  0.1176471E+00
    1       -3.890546   1.000000
    2        0.130271   1.000000
    3        2.180692   1.000000
    4        3.469288   1.000000
    5        8.548697   0.000000
    6        9.393330   0.000000
    7        9.933890   0.000000
    8       12.765268   0.000000
 
 -0.3333333E+00  0.3333333E+00  0.1666667E+00  0.1176471E+00
    1       -2.901876   1.000000
    2       -1.070962   1.000000
    3        1.737903   1.000000
    4        2.998084   1.000000
    5        9.041705   0.000000
    6        9.251513   0.000000
    7       11.784033   0.000000
    8       12.206036   0.000000
 
  0.0000000E+00  0.0000000E+00  0.4230000E+00  0.0000000E+00
    1       -4.137531   1.000000
    2       -0.774957   1.000000
    3        4.623061   1.000000
    4        4.623061   1.000000
    5        7.251570   0.000000
    6        9.111354   0.000000
    7        9.111354   0.000000
    8       13.357916   0.000000
 
  0.2473680E-02  0.0000000E+00  0.4230000E+00  0.0000000E+00
    1       -4.142907   1.000000
    2       -0.766329   1.000000
    3        4.620045   1.000000
    4        4.627051   1.000000
    5        7.253293   0.000000
    6        9.108333   0.000000
    7        9.116435   0.000000
    8       13.359584   0.000000
 
  0.4947370E-02  0.0000000E+00  0.4230000E+00  0.0000000E+00
    1       -4.148171   1.000000
    2       -0.757565   1.000000
    3        4.616702   1.000000
    4        4.629703   1.000000
    5        7.256358   0.000000
    6        9.104974   0.000000
    7        9.122149   0.000000
    8       13.361624   0.000000
 
  0.7421050E-02  0.0000000E+00  0.4230000E+00  0.0000000E+00
    1       -4.153321   1.000000
    2       -0.748665   1.000000
    3        4.613033   1.000000
    4        4.631019   1.000000
    5        7.260758   0.000000
    6        9.101284   0.000000
    7        9.128493   0.000000
    8       13.363978   0.000000
 
  0.9894740E-02  0.0000000E+00  0.4230000E+00  0.0000000E+00
    1       -4.158357   1.000000
    2       -0.739630   1.000000
    3        4.609043   1.000000
    4        4.631007   1.000000
    5        7.266481   0.000000
    6        9.097273   0.000000
    7        9.135463   0.000000
    8       13.366573   0.000000
 
  0.1236842E-01  0.0000000E+00  0.4230000E+00  0.0000000E+00
    1       -4.163276   1.000000
    2       -0.730462   1.000000
    3        4.604737   1.000000
    4        4.629678   1.000000
    5        7.273512   0.000000
    6        9.092954   0.000000
    7        9.143057   0.000000
    8       13.369333   0.000000
 
  0.1484211E-01  0.0000000E+00  0.4230000E+00  0.0000000E+00
    1       -4.168082   1.000000
    2       -0.721162   1.000000
    3        4.600116   1.000000
    4        4.627048   1.000000
    5        7.281825   0.000000
    6        9.088338   0.000000
    7        9.151266   0.000000
    8       13.372159   0.000000
 
  0.1731579E-01  0.0000000E+00  0.4230000E+00  0.0000000E+00
    1       -4.172773   1.000000
    2       -0.711731   1.000000
    3        4.595185   1.000000
    4        4.623136   1.000000
    5        7.291392   0.000000
    6        9.083443   0.000000
    7        9.160089   0.000000
    8       13.374945   0.000000
 
  0.1978947E-01  0.0000000E+00  0.4230000E+00  0.0000000E+00
    1       -4.177345   1.000000
    2       -0.702170   1.000000
    3        4.589951   1.000000
    4        4.617966   1.000000
    5        7.302181   0.000000
    6        9.078287   0.000000
    7        9.169524   0.000000
    8       13.377575   0.000000
 
  0.2226316E-01  0.0000000E+00  0.4230000E+00  0.0000000E+00
    1       -4.181802   1.000000
    2       -0.692481   1.000000
    3        4.584415   1.000000
    4        4.611567   1.000000
    5        7.314151   0.000000
    6        9.072888   0.000000
    7        9.179561   0.000000
    8       13.379864   0.000000
 
  0.2473684E-01  0.0000000E+00  0.4230000E+00  0.0000000E+00
    1       -4.186142   1.000000
    2       -0.682666   1.000000
    3        4.578582   1.000000
    4        4.603965   1.000000
    5        7.327259   0.000000
    6        9.067268   0.000000
    7        9.190196   0.000000
    8       13.381673   0.000000
 
  0.2721053E-01  0.0000000E+00  0.4230000E+00  0.0000000E+00
    1       -4.190365   1.000000
    2       -0.672728   1.000000
    3        4.572458   1.000000
    4        4.595201   1.000000
    5        7.341457   0.000000
    6        9.061452   0.000000
    7        9.201424   0.000000
    8       13.382791   0.000000
 
  0.2968421E-01  0.0000000E+00  0.4230000E+00  0.0000000E+00
    1       -4.194467   1.000000
    2       -0.662664   1.000000
    3        4.566050   1.000000
    4        4.585307   1.000000
    5        7.356693   0.000000
    6        9.055467   0.000000
    7        9.213242   0.000000
    8       13.383002   0.000000
 
  0.3215790E-01  0.0000000E+00  0.4230000E+00  0.0000000E+00
    1       -4.198451   1.000000
    2       -0.652476   1.000000
    3        4.559362   1.000000
    4        4.574324   1.000000
    5        7.372910   0.000000
    6        9.049343   0.000000
    7        9.225642   0.000000
    8       13.382039   0.000000
 
  0.3463158E-01  0.0000000E+00  0.4230000E+00  0.0000000E+00
    1       -4.202315   1.000000
    2       -0.642169   1.000000
    3        4.552398   1.000000
    4        4.562289   1.000000
    5        7.390048   0.000000
    6        9.043108   0.000000
    7        9.238620   0.000000
    8       13.379628   0.000000
 
  0.3710527E-01  0.0000000E+00  0.4230000E+00  0.0000000E+00
    1       -4.206060   1.000000
    2       -0.631742   1.000000
    3        4.545166   1.000000
    4        4.549244   1.000000
    5        7.408042   0.000000
    6        9.036798   0.000000
    7        9.252170   0.000000
    8       13.375447   0.000000
 
  0.3957895E-01  0.0000000E+00  0.4230000E+00  0.0000000E+00
    1       -4.209684   1.000000
    2       -0.621198   1.000000
    3        4.535230   1.000000
    4        4.537672   1.000000
    5        7.426826   0.000000
    6        9.030451   0.000000
    7        9.266284   0.000000
    8       13.369183   0.000000
 
  0.4205263E-01  0.0000000E+00  0.4230000E+00  0.0000000E+00
    1       -4.213187   1.000000
    2       -0.610538   1.000000
    3        4.520291   1.000000
    4        4.529920   1.000000
    5        7.446330   0.000000
    6        9.024106   0.000000
    7        9.280958   0.000000
    8       13.360446   0.000000
 
  0.4452632E-01  0.0000000E+00  0.4230000E+00  0.0000000E+00
    1       -4.216568   1.000000
    2       -0.599765   1.000000
    3        4.504468   1.000000
    4        4.521917   1.000000
    5        7.466480   0.000000
    6        9.017808   0.000000
    7        9.296184   0.000000
    8       13.348968   0.000000
 
  0.4700000E-01  0.0000000E+00  0.4230000E+00  0.0000000E+00
    1       -4.219827   1.000000
    2       -0.588880   1.000000
    3        4.487804   1.000000
    4        4.513669   1.000000
    5        7.487198   0.000000
    6        9.011603   0.000000
    7        9.311957   0.000000
    8       13.334468   0.000000
 
  0.4947368E-01  0.0000000E+00  0.4230000E+00  0.0000000E+00
    1       -4.222964   1.000000
    2       -0.577886   1.000000
    3        4.470340   1.000000
    4        4.505183   1.000000
    5        7.508403   0.000000
    6        9.005544   0.000000
    7        9.328270   0.000000
    8       13.316603   0.000000
 
  0.5194737E-01  0.0000000E+00  0.4230000E+00  0.0000000E+00
    1       -4.225978   1.000000
    2       -0.566784   1.000000
    3        4.452121   1.000000
    4        4.496465   1.000000
    5        7.530017   0.000000
    6        8.999684   0.000000
    7        9.345117   0.000000
    8       13.295263   0.000000
 
  0.5442106E-01  0.0000000E+00  0.4230000E+00  0.0000000E+00
    1       -4.228868   1.000000
    2       -0.555577   1.000000
    3        4.433183   1.000000
    4        4.487520   1.000000
    5        7.551944   0.000000
    6        8.994084   0.000000
    7        9.362490   0.000000
    8       13.270397   0.000000
 
  0.5689474E-01  0.0000000E+00  0.4230000E+00  0.0000000E+00
    1       -4.231635   1.000000
    2       -0.544267   1.000000
    3        4.413570   1.000000
    4        4.478356   1.000000
    5        7.574097   0.000000
    6        8.988807   0.000000
    7        9.380383   0.000000
    8       13.241994   0.000000
 
  0.5936843E-01  0.0000000E+00  0.4230000E+00  0.0000000E+00
    1       -4.234278   1.000000
    2       -0.532855   1.000000
    3        4.393319   1.000000
    4        4.468979   1.000000
    5        7.596383   0.000000
    6        8.983924   0.000000
    7        9.398790   0.000000
    8       13.210161   0.000000
 
  0.6184211E-01  0.0000000E+00  0.4230000E+00  0.0000000E+00
    1       -4.236794   1.000000
    2       -0.521344   1.000000
    3        4.372469   1.000000
    4        4.459395   1.000000
    5        7.618701   0.000000
    6        8.979507   0.000000
    7        9.417704   0.000000
    8       13.175089   0.000000
 
  0.6431580E-01  0.0000000E+00  0.4230000E+00  0.0000000E+00
    1       -4.239187   1.000000
    2       -0.509738   1.000000
    3        4.351056   1.000000
    4        4.449610   1.000000
    5        7.640951   0.000000
    6        8.975636   0.000000
    7        9.437117   0.000000
    8       13.136999   0.000000
 
  0.6678948E-01  0.0000000E+00  0.4230000E+00  0.0000000E+00
    1       -4.241454   1.000000
    2       -0.498038   1.000000
    3        4.329117   1.000000
    4        4.439632   1.000000
    5        7.663025   0.000000
    6        8.972394   0.000000
    7        9.457024   0.000000
    8       13.096171   0.000000
 
  0.6926316E-01  0.0000000E+00  0.4230000E+00  0.0000000E+00
    1       -4.243594   1.000000
    2       -0.486246   1.000000
    3        4.306686   1.000000
    4        4.429467   1.000000
    5        7.684815   0.000000
    6        8.969872   0.000000
    7        9.477417   0.000000
    8       13.052884   0.000000
 
  0.7173685E-01  0.0000000E+00  0.4230000E+00  0.0000000E+00
    1       -4.245608   1.000000
    2       -0.474363   1.000000
    3        4.283795   1.000000
    4        4.419122   1.000000
    5        7.706210   0.000000
    6        8.968161   0.000000
    7        9.498290   0.000000
    8       13.007429   0.000000
 
  0.7421053E-01  0.0000000E+00  0.4230000E+00  0.0000000E+00
    1       -4.247496   1.000000
    2       -0.462398   1.000000
    3        4.260477   1.000000
    4        4.408601   1.000000
    5        7.727089   0.000000
    6        8.967360   0.000000
    7        9.519635   0.000000
    8       12.960027   0.000000
 
  0.7668422E-01  0.0000000E+00  0.4230000E+00  0.0000000E+00
    1       -4.249256   1.000000
    2       -0.450350   1.000000
    3        4.236762   1.000000
    4        4.397911   1.000000
    5        7.747337   0.000000
    6        8.967568   0.000000
    7        9.541447   0.000000
    8       12.910948   0.000000
 
  0.7915790E-01  0.0000000E+00  0.4230000E+00  0.0000000E+00
    1       -4.250889   1.000000
    2       -0.438222   1.000000
    3        4.212681   1.000000
    4        4.387061   1.000000
    5        7.766835   0.000000
    6        8.968888   0.000000
    7        9.563718   0.000000
    8       12.860419   0.000000
 
  0.8163158E-01  0.0000000E+00  0.4230000E+00  0.0000000E+00
    1       -4.252393   1.000000
    2       -0.426018   1.000000
    3        4.188261   1.000000
    4        4.376054   1.000000
    5        7.785466   0.000000
    6        8.971424   0.000000
    7        9.586443   0.000000
    8       12.808625   0.000000
 
  0.8410527E-01  0.0000000E+00  0.4230000E+00  0.0000000E+00
    1       -4.253769   1.000000
    2       -0.413740   1.000000
    3        4.163531   1.000000
    4        4.364898   1.000000
    5        7.803115   0.000000
    6        8.975275   0.000000
    7        9.609614   0.000000
    8       12.755737   0.000000
 
  0.8657895E-01  0.0000000E+00  0.4230000E+00  0.0000000E+00
    1       -4.255016   1.000000
    2       -0.401392   1.000000
    3        4.138515   1.000000
    4        4.353600   1.000000
    5        7.819672   0.000000
    6        8.980540   0.000000
    7        9.633225   0.000000
    8       12.701923   0.000000
 
  0.8905264E-01  0.0000000E+00  0.4230000E+00  0.0000000E+00
    1       -4.256133   1.000000
    2       -0.388977   1.000000
    3        4.113240   1.000000
    4        4.342164   1.000000
    5        7.835032   0.000000
    6        8.987309   0.000000
    7        9.657269   0.000000
    8       12.647265   0.000000
 
  0.9152632E-01  0.0000000E+00  0.4230000E+00  0.0000000E+00
    1       -4.257119   1.000000
    2       -0.376500   1.000000
    3        4.087730   1.000000
    4        4.330597   1.000000
    5        7.849107   0.000000
    6        8.995666   0.000000
    7        9.681740   0.000000
    8       12.591947   0.000000
 
  0.9400000E-01  0.0000000E+00  0.4230000E+00  0.0000000E+00
    1       -4.257978   1.000000
    2       -0.363963   1.000000
    3        4.062007   1.000000
    4        4.318906   1.000000
    5        7.861805   0.000000
    6        9.005682   0.000000
    7        9.706631   0.000000
    8       12.535991   0.000000
 
  0.9647369E-01  0.0000000E+00  0.4230000E+00  0.0000000E+00
    1       -4.258706   1.000000
    2       -0.351371   1.000000
    3        4.036094   1.000000
    4        4.307095   1.000000
    5        7.873064   0.000000
    6        9.017416   0.000000
    7        9.731937   0.000000
    8       12.479537   0.000000
 
  0.9894737E-01  0.0000000E+00  0.4230000E+00  0.0000000E+00
    1       -4.259301   1.000000
    2       -0.338729   1.000000
    3        4.010009   1.000000
    4        4.295172   1.000000
    5        7.882831   0.000000
    6        9.030912   0.000000
    7        9.757651   0.000000
    8       12.422645   0.000000
 
  0.1014211E+00  0.0000000E+00  0.4230000E+00  0.0000000E+00
    1       -4.259767   1.000000
    2       -0.326038   1.000000
    3        3.983779   1.000000
    4        4.283141   1.000000
    5        7.891070   0.000000
    6        9.046196   0.000000
    7        9.783766   0.000000
    8       12.365406   0.000000
 
  0.1038947E+00  0.0000000E+00  0.4230000E+00  0.0000000E+00
    1       -4.260102   1.000000
    2       -0.313304   1.000000
    3        3.957419   1.000000
    4        4.271008   1.000000
    5        7.897763   0.000000
    6        9.063279   0.000000
    7        9.810276   0.000000
    8       12.307793   0.000000
 
  0.1063684E+00  0.0000000E+00  0.4230000E+00  0.0000000E+00
    1       -4.260307   1.000000
    2       -0.300532   1.000000
    3        3.930948   1.000000
    4        4.258778   1.000000
    5        7.902911   0.000000
    6        9.082155   0.000000
    7        9.837176   0.000000
    8       12.249941   0.000000
 
  0.1088421E+00  0.0000000E+00  0.4230000E+00  0.0000000E+00
    1       -4.260379   1.000000
    2       -0.287725   1.000000
    3        3.904389   1.000000
    4        4.246458   1.000000
    5        7.906528   0.000000
    6        9.102802   0.000000
    7        9.864460   0.000000
    8       12.191864   0.000000
 
  0.1113158E+00  0.0000000E+00  0.4230000E+00  0.0000000E+00
    1       -4.260319   1.000000
    2       -0.274888   1.000000
    3        3.877758   1.000000
    4        4.234053   1.000000
    5        7.908646   0.000000
    6        9.125184   0.000000
    7        9.892121   0.000000
    8       12.133604   0.000000
 
  0.1137895E+00  0.0000000E+00  0.4230000E+00  0.0000000E+00
    1       -4.260126   1.000000
    2       -0.262027   1.000000
    3        3.851072   1.000000
    4        4.221567   1.000000
    5        7.909308   0.000000
    6        9.149251   0.000000
    7        9.920154   0.000000
    8       12.075189   0.000000
 
  0.1162632E+00  0.0000000E+00  0.4230000E+00  0.0000000E+00
    1       -4.259800   1.000000
    2       -0.249146   1.000000
    3        3.824347   1.000000
    4        4.209007   1.000000
    5        7.908568   0.000000
    6        9.174946   0.000000
    7        9.948554   0.000000
    8       12.016655   0.000000
 
  0.1187369E+00  0.0000000E+00  0.4230000E+00  0.0000000E+00
    1       -4.259340   1.000000
    2       -0.236250   1.000000
    3        3.797599   1.000000
    4        4.196378   1.000000
    5        7.906488   0.000000
    6        9.202199   0.000000
    7        9.977314   0.000000
    8       11.958027   0.000000
 
  0.1212105E+00  0.0000000E+00  0.4230000E+00  0.0000000E+00
    1       -4.258748   1.000000
    2       -0.223347   1.000000
    3        3.770847   1.000000
    4        4.183683   1.000000
    5        7.903137   0.000000
    6        9.230941   0.000000
    7       10.006428   0.000000
    8       11.899330   0.000000
 
  0.1236842E+00  0.0000000E+00  0.4230000E+00  0.0000000E+00
    1       -4.258022   1.000000
    2       -0.210440   1.000000
    3        3.744104   1.000000
    4        4.170929   1.000000
    5        7.898587   0.000000
    6        9.261095   0.000000
    7       10.035892   0.000000
    8       11.840585   0.000000
 
  0.1261579E+00  0.0000000E+00  0.4230000E+00  0.0000000E+00
    1       -4.257161   1.000000
    2       -0.197531   1.000000
    3        3.717388   1.000000
    4        4.158120   1.000000
    5        7.892912   0.000000
    6        9.292584   0.000000
    7       10.065701   0.000000
    8       11.781814   0.000000
 
  0.1286316E+00  0.0000000E+00  0.4230000E+00  0.0000000E+00
    1       -4.256168   1.000000
    2       -0.184636   1.000000
    3        3.690709   1.000000
    4        4.145259   1.000000
    5        7.886185   0.000000
    6        9.325328   0.000000
    7       10.095847   0.000000
    8       11.723028   0.000000
 
  0.1311053E+00  0.0000000E+00  0.4230000E+00  0.0000000E+00
    1       -4.255040   1.000000
    2       -0.171757   1.000000
    3        3.664085   1.000000
    4        4.132354   1.000000
    5        7.878480   0.000000
    6        9.359255   0.000000
    7       10.126328   0.000000
    8       11.664249   0.000000
 
  0.1335790E+00  0.0000000E+00  0.4230000E+00  0.0000000E+00
    1       -4.253776   1.000000
    2       -0.158896   1.000000
    3        3.637532   1.000000
    4        4.119408   1.000000
    5        7.869872   0.000000
    6        9.394288   0.000000
    7       10.157137   0.000000
    8       11.605492   0.000000
 
  0.1360526E+00  0.0000000E+00  0.4230000E+00  0.0000000E+00
    1       -4.252378   1.000000
    2       -0.146067   1.000000
    3        3.611060   1.000000
    4        4.106425   1.000000
    5        7.860423   0.000000
    6        9.430357   0.000000
    7       10.188269   0.000000
    8       11.546769   0.000000
 
  0.1385263E+00  0.0000000E+00  0.4230000E+00  0.0000000E+00
    1       -4.250845   1.000000
    2       -0.133272   1.000000
    3        3.584685   1.000000
    4        4.093410   1.000000
    5        7.850201   0.000000
    6        9.467395   0.000000
    7       10.219719   0.000000
    8       11.488094   0.000000
 
  0.1410000E+00  0.0000000E+00  0.4230000E+00  0.0000000E+00
    1       -4.249176   1.000000
    2       -0.120521   1.000000
    3        3.558420   1.000000
    4        4.080367   1.000000
    5        7.839268   0.000000
    6        9.505337   0.000000
    7       10.251482   0.000000
    8       11.429476   0.000000
 
  0.1434737E+00  0.0000000E+00  0.4230000E+00  0.0000000E+00
    1       -4.247372   1.000000
    2       -0.107819   1.000000
    3        3.532280   1.000000
    4        4.067301   1.000000
    5        7.827681   0.000000
    6        9.544124   0.000000
    7       10.283555   0.000000
    8       11.370928   0.000000
 
  0.1459474E+00  0.0000000E+00  0.4230000E+00  0.0000000E+00
    1       -4.245433   1.000000
    2       -0.095176   1.000000
    3        3.506278   1.000000
    4        4.054215   1.000000
    5        7.815494   0.000000
    6        9.583699   0.000000
    7       10.315930   0.000000
    8       11.312460   0.000000
 
  0.1484211E+00  0.0000000E+00  0.4230000E+00  0.0000000E+00
    1       -4.243357   1.000000
    2       -0.082600   1.000000
    3        3.480422   1.000000
    4        4.041113   1.000000
    5        7.802759   0.000000
    6        9.624009   0.000000
    7       10.348603   0.000000
    8       11.254082   0.000000
 
  0.1508947E+00  0.0000000E+00  0.4230000E+00  0.0000000E+00
    1       -4.241145   1.000000
    2       -0.070097   1.000000
    3        3.454736   1.000000
    4        4.028000   1.000000
    5        7.789521   0.000000
    6        9.665006   0.000000
    7       10.381572   0.000000
    8       11.195802   0.000000
 
  0.1533684E+00  0.0000000E+00  0.4230000E+00  0.0000000E+00
    1       -4.238796   1.000000
    2       -0.057677   1.000000
    3        3.429229   1.000000
    4        4.014879   1.000000
    5        7.775823   0.000000
    6        9.706645   0.000000
    7       10.414830   0.000000
    8       11.137630   0.000000
 
  0.1558421E+00  0.0000000E+00  0.4230000E+00  0.0000000E+00
    1       -4.236310   1.000000
    2       -0.045349   1.000000
    3        3.403913   1.000000
    4        4.001755   1.000000
    5        7.761707   0.000000
    6        9.748884   0.000000
    7       10.448376   0.000000
    8       11.079575   0.000000
 
  0.1583158E+00  0.0000000E+00  0.4230000E+00  0.0000000E+00
    1       -4.233688   1.000000
    2       -0.033123   1.000000
    3        3.378803   1.000000
    4        3.988629   1.000000
    5        7.747209   0.000000
    6        9.791678   0.000000
    7       10.482200   0.000000
    8       11.021644   0.000000
 
  0.1607895E+00  0.0000000E+00  0.4230000E+00  0.0000000E+00
    1       -4.230929   1.000000
    2       -0.021007   1.000000
    3        3.353911   1.000000
    4        3.975507   1.000000
    5        7.732363   0.000000
    6        9.834993   0.000000
    7       10.516302   0.000000
    8       10.963846   0.000000
 
  0.1632632E+00  0.0000000E+00  0.4230000E+00  0.0000000E+00
    1       -4.228035   1.000000
    2       -0.009013   1.000000
    3        3.329251   1.000000
    4        3.962391   1.000000
    5        7.717200   0.000000
    6        9.878794   0.000000
    7       10.550675   0.000000
    8       10.906190   0.000000
 
  0.1657368E+00  0.0000000E+00  0.4230000E+00  0.0000000E+00
    1       -4.225001   1.000000
    2        0.002851   1.000000
    3        3.304836   1.000000
    4        3.949286   1.000000
    5        7.701750   0.000000
    6        9.923048   0.000000
    7       10.585316   0.000000
    8       10.848687   0.000000
 
  0.1682105E+00  0.0000000E+00  0.4230000E+00  0.0000000E+00
    1       -4.221830   1.000000
    2        0.014574   1.000000
    3        3.280681   1.000000
    4        3.936193   1.000000
    5        7.686041   0.000000
    6        9.967720   0.000000
    7       10.620221   0.000000
    8       10.791347   0.000000
 
  0.1706842E+00  0.0000000E+00  0.4230000E+00  0.0000000E+00
    1       -4.218522   1.000000
    2        0.026144   1.000000
    3        3.256799   1.000000
    4        3.923117   1.000000
    5        7.670095   0.000000
    6       10.012776   0.000000
    7       10.655385   0.000000
    8       10.734185   0.000000
 
  0.1731579E+00  0.0000000E+00  0.4230000E+00  0.0000000E+00
    1       -4.215075   1.000000
    2        0.037551   1.000000
    3        3.233204   1.000000
    4        3.910061   1.000000
    5        7.653937   0.000000
    6       10.058175   0.000000
    7       10.677222   0.000000
    8       10.690805   0.000000
 
  0.1756316E+00  0.0000000E+00  0.4230000E+00  0.0000000E+00
    1       -4.211491   1.000000
    2        0.048783   1.000000
    3        3.209910   1.000000
    4        3.897028   1.000000
    5        7.637588   0.000000
    6       10.103871   0.000000
    7       10.620489   0.000000
    8       10.726476   0.000000
 
  0.1781053E+00  0.0000000E+00  0.4230000E+00  0.0000000E+00
    1       -4.207769   1.000000
    2        0.059829   1.000000
    3        3.186930   1.000000
    4        3.884020   1.000000
    5        7.621067   0.000000
    6       10.149789   0.000000
    7       10.564042   0.000000
    8       10.762394   0.000000
 
  0.1805790E+00  0.0000000E+00  0.4230000E+00  0.0000000E+00
    1       -4.203908   1.000000
    2        0.070676   1.000000
    3        3.164280   1.000000
    4        3.871041   1.000000
    5        7.604392   0.000000
    6       10.195789   0.000000
    7       10.508010   0.000000
    8       10.798556   0.000000
 
  0.1830526E+00  0.0000000E+00  0.4230000E+00  0.0000000E+00
    1       -4.199909   1.000000
    2        0.081312   1.000000
    3        3.141972   1.000000
    4        3.858094   1.000000
    5        7.587581   0.000000
    6       10.241500   0.000000
    7       10.452749   0.000000
    8       10.834957   0.000000
 
  0.1855263E+00  0.0000000E+00  0.4230000E+00  0.0000000E+00
    1       -4.195772   1.000000
    2        0.091723   1.000000
    3        3.120023   1.000000
    4        3.845180   1.000000
    5        7.570648   0.000000
    6       10.285298   0.000000
    7       10.399871   0.000000
    8       10.871593   0.000000
 