 vasp.5.4.1 24Jun15 (build Nov 25 2015 16:01:35) complex                        
  
 executed on         CrayXC-Intel date 2016.09.06  22:19:59
 running on   96 total cores
 distrk:  each k-point on   24 cores,    4 groups
 distr:  one band on NCORES_PER_BAND=   6 cores,    4 groups


--------------------------------------------------------------------------------------------------------


 INCAR:
 POTCAR:   PAW Si 02Apr1999                       

 ----------------------------------------------------------------------------- 
|                                                                             |
|           W    W    AA    RRRRR   N    N  II  N    N   GGGG   !!!           |
|           W    W   A  A   R    R  NN   N  II  NN   N  G    G  !!!           |
|           W    W  A    A  R    R  N N  N  II  N N  N  G       !!!           |
|           W WW W  AAAAAA  RRRRR   N  N N  II  N  N N  G  GGG   !            |
|           WW  WW  A    A  R   R   N   NN  II  N   NN  G    G                |
|           W    W  A    A  R    R  N    N  II  N    N   GGGG   !!!           |
|                                                                             |
|      You have enabled k-point parallelism (KPAR>1).                         |
|      This developmental code was originally  written by Paul Kent at ORNL,  |
|      and carefully double checked in Vienna.                                |
|      GW as well as linear response parallelism added by Martijn Marsman     |
|      and Georg Kresse.                                                      |
|      Carefully verify results versus KPAR=1.                                |
|      Report problems to Paul Kent and Vienna.                               |
|                                                                             |
 ----------------------------------------------------------------------------- 

 POTCAR:   PAW Si 02Apr1999                       
   VRHFIN =Si: s2p2                                                             
   LEXCH  = CA                                                                  
   EATOM  =   103.4338 eV,    7.6022 Ry                                         
                                                                                
   TITEL  = PAW Si 02Apr1999                                                    
   LULTRA =        F    use ultrasoft PP ?                                      
   IUNSCR =        1    unscreen: 0-lin 1-nonlin 2-no                           
   RPACOR =    1.500    partial core radius                                     
   POMASS =   28.085; ZVAL   =    4.000    mass and valenz                      
   RCORE  =    1.900    outmost cutoff radius                                   
   RWIGS  =    2.480; RWIGS  =    1.312    wigner-seitz radius (au A)           
   ENMAX  =  245.704; ENMIN  =  184.278 eV                                      
   ICORE  =        2    local potential                                         
   LCOR   =        T    correct aug charges                                     
   LPAW   =        T    paw PP                                                  
   EAUG   =  322.069                                                            
   DEXC   =    -.006                                                            
   RMAX   =    2.941    core radius for proj-oper                               
   RAUG   =    1.300    factor for augmentation sphere                          
   RDEP   =    1.993    core radius for depl-charge                             
   QCUT   =   -4.250; QGAM   =    8.499    optimization parameters              
                                                                                
   Description                                                                  
     l     E      TYP  RCUT    TYP  RCUT                                        
     0   .000     23  1.900                                                     
     0   .000     23  1.900                                                     
     1   .000     23  1.900                                                     
     1   .000     23  1.900                                                     
     2   .000      7  1.900                                                     
  local pseudopotential read in
  partial core-charges read in
  atomic valenz-charges read in
  non local Contribution for L=           0  read in
    real space projection operators read in
  non local Contribution for L=           0  read in
    real space projection operators read in
  non local Contribution for L=           1  read in
    real space projection operators read in
  non local Contribution for L=           1  read in
    real space projection operators read in
    PAW grid and wavefunctions read in
 
   number of l-projection  operators is LMAX  =           4
   number of lm-projection operators is LMMAX =           8
 
 PAW Si 02Apr1999                       :
 energy of atom  1       EATOM= -103.4338
 kinetic energy error for atom=    0.0006 (will be added to EATOM!!)
 
 
 POSCAR: Si (Madelung Handbook, 295.7K)          
  positions in direct lattice
  velocities in cartesian coordinates
 exchange correlation table for  LEXCH =        2
   RHO(1)=    0.500       N(1)  =     2000
   RHO(2)=  100.500       N(2)  =     4000
 


--------------------------------------------------------------------------------------------------------


 ion  position               nearest neighbor table
   1  0.000  0.000  0.000-   2 2.35   2 2.35   2 2.35   2 2.35
   2  0.250  0.250  0.250-   1 2.35   1 2.35   1 2.35   1 2.35
 
  LATTYP: Found a face centered cubic cell.
 ALAT       =     5.4310000000
  
  Lattice vectors:
  
 A1 = (   2.7155000000,   2.7155000000,   0.0000000000)
 A2 = (   2.7155000000,   0.0000000000,  -2.7155000000)
 A3 = (   0.0000000000,   2.7155000000,  -2.7155000000)


Analysis of symmetry for initial positions (statically):
=====================================================================
 Subroutine PRICEL returns:
 Original cell was already a primitive cell.
 

 Routine SETGRP: Setting up the symmetry group for a 
 face centered cubic supercell.


 Subroutine GETGRP returns: Found 48 space group operations
 (whereof 24 operations were pure point group operations)
 out of a pool of 48 trial point group operations.


The static configuration has the point symmetry T_d .
 The point group associated with its full space group is O_h .


Analysis of symmetry for dynamics (positions and initial velocities):
=====================================================================
 Subroutine PRICEL returns:
 Original cell was already a primitive cell.
 

 Routine SETGRP: Setting up the symmetry group for a 
 face centered cubic supercell.


 Subroutine GETGRP returns: Found 48 space group operations
 (whereof 24 operations were pure point group operations)
 out of a pool of 48 trial point group operations.


The dynamic configuration has the point symmetry T_d .
 The point group associated with its full space group is O_h .


 Subroutine INISYM returns: Found 48 space group operations
 (whereof 24 operations are pure point group operations),
 and found     1 'primitive' translations

 
 
 KPOINTS: Automatically generated mesh: SCF=15,715
  k-points in reciprocal lattice
Space group operators:
 irot       det(A)        alpha          n_x          n_y          n_z        tau_x        tau_y        tau_z
    1     1.000000     0.000001     1.000000     0.000000     0.000000     0.000000     0.000000     0.000000
    2     1.000000   120.000000    -0.577350    -0.577350     0.577350     0.000000     0.000000     0.000000
    3     1.000000   120.000000     0.577350     0.577350    -0.577350     0.000000     0.000000     0.000000
    4    -1.000000    90.000000    -1.000000     0.000000     0.000000     0.000000     0.000000     0.000000
    5    -1.000000   180.000000     0.707107     0.707107     0.000000     0.000000     0.000000     0.000000
    6    -1.000000    90.000000     0.000000     1.000000     0.000000     0.000000     0.000000     0.000000
    7     1.000000   180.000000     1.000000     0.000000     0.000000     0.000000     0.000000     0.000000
    8     1.000000   120.000000     0.577350     0.577350     0.577350     0.000000     0.000000     0.000000
    9     1.000000   120.000000    -0.577350     0.577350     0.577350     0.000000     0.000000     0.000000
   10    -1.000000    90.000000     1.000000     0.000000     0.000000     0.000000     0.000000     0.000000
   11    -1.000000    90.000000     0.000000     0.000000     1.000000     0.000000     0.000000     0.000000
   12    -1.000000   180.000000     0.707107     0.000000    -0.707107     0.000000     0.000000     0.000000
   13     1.000000   120.000000     0.577350    -0.577350    -0.577350     0.000000     0.000000     0.000000
   14     1.000000   120.000000     0.577350    -0.577350     0.577350     0.000000     0.000000     0.000000
   15     1.000000   180.000000     0.000000     0.000000     1.000000     0.000000     0.000000     0.000000
   16    -1.000000    90.000000     0.000000    -1.000000     0.000000     0.000000     0.000000     0.000000
   17    -1.000000   180.000000     0.000000    -0.707107     0.707107     0.000000     0.000000     0.000000
   18    -1.000000    90.000000     0.000000     0.000000    -1.000000     0.000000     0.000000     0.000000
   19     1.000000   120.000000    -0.577350    -0.577350    -0.577350     0.000000     0.000000     0.000000
   20     1.000000   180.000000     0.000000     1.000000     0.000000     0.000000     0.000000     0.000000
   21     1.000000   120.000000    -0.577350     0.577350    -0.577350     0.000000     0.000000     0.000000
   22    -1.000000   180.000000     0.707107    -0.707107     0.000000     0.000000     0.000000     0.000000
   23    -1.000000   180.000000     0.000000     0.707107     0.707107     0.000000     0.000000     0.000000
   24    -1.000000   180.000000     0.707107     0.000000     0.707107     0.000000     0.000000     0.000000
   25    -1.000000     0.000001     1.000000     0.000000     0.000000     0.250000     0.250000     0.250000
   26    -1.000000   120.000000    -0.577350    -0.577350     0.577350     0.250000     0.250000     0.250000
   27    -1.000000   120.000000     0.577350     0.577350    -0.577350     0.250000     0.250000     0.250000
   28     1.000000    90.000000    -1.000000     0.000000     0.000000     0.250000     0.250000     0.250000
   29     1.000000   180.000000     0.707107     0.707107     0.000000     0.250000     0.250000     0.250000
   30     1.000000    90.000000     0.000000     1.000000     0.000000     0.250000     0.250000     0.250000
   31    -1.000000   180.000000     1.000000     0.000000     0.000000     0.250000     0.250000     0.250000
   32    -1.000000   120.000000     0.577350     0.577350     0.577350     0.250000     0.250000     0.250000
   33    -1.000000   120.000000    -0.577350     0.577350     0.577350     0.250000     0.250000     0.250000
   34     1.000000    90.000000     1.000000     0.000000     0.000000     0.250000     0.250000     0.250000
   35     1.000000    90.000000     0.000000     0.000000     1.000000     0.250000     0.250000     0.250000
   36     1.000000   180.000000     0.707107     0.000000    -0.707107     0.250000     0.250000     0.250000
   37    -1.000000   120.000000     0.577350    -0.577350    -0.577350     0.250000     0.250000     0.250000
   38    -1.000000   120.000000     0.577350    -0.577350     0.577350     0.250000     0.250000     0.250000
   39    -1.000000   180.000000     0.000000     0.000000     1.000000     0.250000     0.250000     0.250000
   40     1.000000    90.000000     0.000000    -1.000000     0.000000     0.250000     0.250000     0.250000
   41     1.000000   180.000000     0.000000    -0.707107     0.707107     0.250000     0.250000     0.250000
   42     1.000000    90.000000     0.000000     0.000000    -1.000000     0.250000     0.250000     0.250000
   43    -1.000000   120.000000    -0.577350    -0.577350    -0.577350     0.250000     0.250000     0.250000
   44    -1.000000   180.000000     0.000000     1.000000     0.000000     0.250000     0.250000     0.250000
   45    -1.000000   120.000000    -0.577350     0.577350    -0.577350     0.250000     0.250000     0.250000
   46     1.000000   180.000000     0.707107    -0.707107     0.000000     0.250000     0.250000     0.250000
   47     1.000000   180.000000     0.000000     0.707107     0.707107     0.250000     0.250000     0.250000
   48     1.000000   180.000000     0.707107     0.000000     0.707107     0.250000     0.250000     0.250000


--------------------------------------------------------------------------------------------------------




 Dimension of arrays:
   k-points           NKPTS =    730   k-points in BZ     NKDIM =    730   number of bands    NBANDS=      8
   number of dos      NEDOS =    301   number of ions     NIONS =      2
   non local maximal  LDIM  =      4   non local SUM 2l+1 LMDIM =      8
   total plane-waves  NPLWV =  21952
   max r-space proj   IRMAX =      1   max aug-charges    IRDMAX=  18525
   dimension x,y,z NGX =    28 NGY =   28 NGZ =   28
   dimension x,y,z NGXF=    56 NGYF=   56 NGZF=   56
   support grid    NGXF=    56 NGYF=   56 NGZF=   56
   ions per type =               2
 NGX,Y,Z   is equivalent  to a cutoff of  12.12, 12.12, 12.12 a.u.
 NGXF,Y,Z  is equivalent  to a cutoff of  24.24, 24.24, 24.24 a.u.


 I would recommend the setting:
   dimension x,y,z NGX =    28 NGY =   28 NGZ =   28
 SYSTEM =  Name                                    
 POSCAR =  Si (Madelung Handbook, 295.7K)          

 Startparameter for this run:
   NWRITE =      2    write-flag & timer
   PREC   = accura    normal or accurate (medium, high low for compatibility)
   ISTART =      0    job   : 0-new  1-cont  2-samecut
   ICHARG =     11    charge: 1-file 2-atom 10-const
   ISPIN  =      1    spin polarized calculation?
   LNONCOLLINEAR =      F non collinear calculations
   LSORBIT =      F    spin-orbit coupling
   INIWAV =      1    electr: 0-lowe 1-rand  2-diag
   LASPH  =      F    aspherical Exc in radial PAW
   METAGGA=      F    non-selfconsistent MetaGGA calc.

 Electronic Relaxation 1
   ENCUT  =  500.0 eV  36.75 Ry    6.06 a.u.   7.00  7.00  7.00*2*pi/ulx,y,z
   ENINI  =  500.0     initial cutoff
   ENAUG  =  322.1 eV  augmentation charge cutoff
   NELM   =     60;   NELMIN=  2; NELMDL=  0     # of ELM steps 
   EDIFF  = 0.1E-05   stopping-criterion for ELM
   LREAL  =      F    real-space projection
   NLSPLINE    = F    spline interpolate recip. space projectors
   LCOMPAT=      F    compatible to vasp.4.4
   GGA_COMPAT  = T    GGA compatible to vasp.4.4-vasp.4.6
   LMAXPAW     = -100 max onsite density
   LMAXMIX     =    2 max onsite mixed and CHGCAR
   VOSKOWN=      0    Vosko Wilk Nusair interpolation
   ROPT   =    0.00000
 Ionic relaxation
   EDIFFG = -.5E-02   stopping-criterion for IOM
   NSW    =      1    number of steps for IOM
   NBLOCK =      1;   KBLOCK =      1    inner block; outer block 
   IBRION =      2    ionic relax: 0-MD 1-quasi-New 2-CG
   NFREE  =      1    steps in history (QN), initial steepest desc. (CG)
   ISIF   =      3    stress and relaxation
   IWAVPR =     11    prediction:  0-non 1-charg 2-wave 3-comb
   ISYM   =      2    0-nonsym 1-usesym 2-fastsym
   LCORR  =      T    Harris-Foulkes like correction to forces

   POTIM  = 0.5000    time-step for ionic-motion
   TEIN   =    0.0    initial temperature
   TEBEG  =    0.0;   TEEND  =   0.0 temperature during run
   SMASS  =  -3.00    Nose mass-parameter (am)
   estimated Nose-frequenzy (Omega)   =  0.10E-29 period in steps =****** mass=  -0.337E-27a.u.
   SCALEE = 1.0000    scale energy and forces
   NPACO  =    256;   APACO  = 16.0  distance and # of slots for P.C.
   PSTRESS=    0.0 pullay stress

  Mass of Ions in am
   POMASS =  28.09
  Ionic Valenz
   ZVAL   =   4.00
  Atomic Wigner-Seitz radii
   RWIGS  =  -1.00
  virtual crystal weights 
   VCA    =   1.00
   NELECT =       8.0000    total number of electrons
   NUPDOWN=      -1.0000    fix difference up-down

 DOS related values:
   EMIN   =  10.00;   EMAX   =-10.00  energy-range for DOS
   EFERMI =   0.00
   ISMEAR =     0;   SIGMA  =   0.01  broadening in eV -4-tet -1-fermi 0-gaus

 Electronic relaxation 2 (details)
   IALGO  =     38    algorithm
   LDIAG  =      T    sub-space diagonalisation (order eigenvalues)
   LSUBROT=      F    optimize rotation matrix (better conditioning)
   TURBO    =      0    0=normal 1=particle mesh
   IRESTART =      0    0=no restart 2=restart with 2 vectors
   NREBOOT  =      0    no. of reboots
   NMIN     =      0    reboot dimension
   EREF     =   0.00    reference energy to select bands
   IMIX   =      4    mixing-type and parameters
     AMIX     =   0.40;   BMIX     =  1.00
     AMIX_MAG =   1.60;   BMIX_MAG =  1.00
     AMIN     =   0.01
     WC   =   100.;   INIMIX=   1;  MIXPRE=   1;  MAXMIX= -45

 Intra band minimization:
   WEIMIN = 0.0010     energy-eigenvalue tresh-hold
   EBREAK =  0.31E-07  absolut break condition
   DEPER  =   0.30     relativ break condition  

   TIME   =   0.40     timestep for ELM

  volume/ion in A,a.u.               =      20.02       135.13
  Fermi-wavevector in a.u.,A,eV,Ry     =   0.956999  1.808467 12.460868  0.915848
  Thomas-Fermi vector in A             =   2.085978
 
 Write flags
   LWAVE  =      T    write WAVECAR
   LCHARG =      T    write CHGCAR
   LVTOT  =      F    write LOCPOT, total local potential
   LVHAR  =      F    write LOCPOT, Hartree potential only
   LELF   =      F    write electronic localiz. function (ELF)
   LORBIT =     10    0 simple, 1 ext, 2 COOP (PROOUT)


 Dipole corrections
   LMONO  =      F    monopole corrections only (constant potential shift)
   LDIPOL =      F    correct potential (dipole corrections)
   IDIPOL =      0    1-x, 2-y, 3-z, 4-all directions 
   EPSILON=  1.0000000 bulk dielectric constant

 Core level calculations are selected ICORELEVEL =  1
 Exchange correlation treatment:
   GGA     =    --    GGA type
   LEXCH   =     2    internal setting for exchange type
   VOSKOWN=      0    Vosko Wilk Nusair interpolation
   LHFCALC =     F    Hartree Fock is set to
   LHFONE  =     F    Hartree Fock one center treatment
   AEXX    =    0.0000 exact exchange contribution

 Linear response parameters
   LEPSILON=     F    determine dielectric tensor
   LRPA    =     F    only Hartree local field effects (RPA)
   LNABLA  =     F    use nabla operator in PAW spheres
   LVEL    =     F    velocity operator in full k-point grid
   LINTERFAST=   F  fast interpolation
   KINTER  =     0    interpolate to denser k-point grid
   CSHIFT  =0.1000    complex shift for real part using Kramers Kronig
   OMEGAMAX=  -1.0    maximum frequency
   DEG_THRESHOLD= 0.2000000E-02 threshold for treating states as degnerate
   RTIME   =    0.100 relaxation time in fs

 Orbital magnetization related:
   ORBITALMAG=     F  switch on orbital magnetization
   LCHIMAG   =     F  perturbation theory with respect to B field
   DQ        =  0.001000  dq finite difference perturbation B field



--------------------------------------------------------------------------------------------------------


 conjugate gradient relaxation of ions
 charge density and potential remain constant during run
 non-spin polarized calculation
 Variant of blocked Davidson
 Davidson routine will perform the subspace rotation
 perform sub-space diagonalisation
    after iterative eigenvector-optimisation
 no mixing
 using additional bands            4
 reciprocal scheme for non local part
 use partial core corrections
 calculate Harris-corrections to forces 
   (improved forces if not selfconsistent)
 use of overlap-Matrix (Vanderbilt PP)
 Gauss-broadening in eV      SIGMA  =   0.01


--------------------------------------------------------------------------------------------------------


  energy-cutoff  :      500.00
  volume of cell :       40.05
      direct lattice vectors                 reciprocal lattice vectors
     2.715500000  2.715500000  0.000000000     0.184128153  0.184128153  0.184128153
     2.715500000  0.000000000 -2.715500000     0.184128153 -0.184128153 -0.184128153
     0.000000000  2.715500000 -2.715500000    -0.184128153  0.184128153 -0.184128153

  length of vectors
     3.840296929  3.840296929  3.840296929     0.318919316  0.318919316  0.318919316


 
 k-points in units of 2pi/SCALE and weight: Automatically generated mesh: SCF=15,715
   0.00000000  0.00000000  0.00000000       0.005
   0.16666667  0.16666667  0.16666667       0.039
   0.33333333  0.33333333  0.33333333       0.039
   0.50000000  0.50000000  0.50000000       0.020
   0.33333333  0.00000000  0.00000000       0.029
   0.50000000  0.16666667  0.16666667       0.118
   0.66666667  0.33333333  0.33333333       0.118
  -0.16666667 -0.50000000 -0.50000000       0.118
   0.00000000 -0.33333333 -0.33333333       0.059
   0.66666667  0.00000000  0.00000000       0.029
   0.83333333  0.16666667  0.16666667       0.118
   0.00000000 -0.66666667 -0.66666667       0.059
   1.00000000  0.00000000  0.00000000       0.015
   0.66666667  0.33333333  0.00000000       0.118
  -0.16666667 -0.50000000 -0.83333333       0.118
  -0.42300000  0.42300000 -0.42300000       0.000
  -0.42052633  0.42547369 -0.42052633       0.000
  -0.41805264  0.42794738 -0.41805264       0.000
  -0.41557896  0.43042106 -0.41557896       0.000
  -0.41310527  0.43289475 -0.41310527       0.000
  -0.41063159  0.43536843 -0.41063159       0.000
  -0.40815790  0.43784212 -0.40815790       0.000
  -0.40568422  0.44031580 -0.40568422       0.000
  -0.40321054  0.44278948 -0.40321054       0.000
  -0.40073685  0.44526317 -0.40073685       0.000
  -0.39826317  0.44773685 -0.39826317       0.000
  -0.39578948  0.45021054 -0.39578948       0.000
  -0.39331580  0.45268422 -0.39331580       0.000
  -0.39084211  0.45515791 -0.39084211       0.000
  -0.38836843  0.45763159 -0.38836843       0.000
  -0.38589474  0.46010528 -0.38589474       0.000
  -0.38342106  0.46257896 -0.38342106       0.000
  -0.38094738  0.46505264 -0.38094738       0.000
  -0.37847369  0.46752633 -0.37847369       0.000
  -0.37600001  0.47000001 -0.37600001       0.000
  -0.37352633  0.47247369 -0.37352633       0.000
  -0.37105264  0.47494738 -0.37105264       0.000
  -0.36857895  0.47742107 -0.36857895       0.000
  -0.36610527  0.47989475 -0.36610527       0.000
  -0.36363158  0.48236844 -0.36363158       0.000
  -0.36115790  0.48484212 -0.36115790       0.000
  -0.35868421  0.48731581 -0.35868421       0.000
  -0.35621053  0.48978949 -0.35621053       0.000
  -0.35373685  0.49226317 -0.35373685       0.000
  -0.35126316  0.49473686 -0.35126316       0.000
  -0.34878948  0.49721054 -0.34878948       0.000
  -0.34631579  0.49968423 -0.34631579       0.000
  -0.34384211  0.50215791 -0.34384211       0.000
  -0.34136843  0.50463159 -0.34136843       0.000
  -0.33889474  0.50710528 -0.33889474       0.000
  -0.33642106  0.50957896 -0.33642106       0.000
  -0.33394737  0.51205265 -0.33394737       0.000
  -0.33147369  0.51452633 -0.33147369       0.000
  -0.32900001  0.51700001 -0.32900001       0.000
  -0.32652632  0.51947370 -0.32652632       0.000
  -0.32405264  0.52194738 -0.32405264       0.000
  -0.32157895  0.52442107 -0.32157895       0.000
  -0.31910527  0.52689475 -0.31910527       0.000
  -0.31663159  0.52936843 -0.31663159       0.000
  -0.31415790  0.53184212 -0.31415790       0.000
  -0.31168422  0.53431580 -0.31168422       0.000
  -0.30921053  0.53678949 -0.30921053       0.000
  -0.30673684  0.53926318 -0.30673684       0.000
  -0.30426315  0.54173687 -0.30426315       0.000
  -0.30178947  0.54421055 -0.30178947       0.000
  -0.29931580  0.54668422 -0.29931580       0.000
  -0.29684210  0.54915792 -0.29684210       0.000
  -0.29436842  0.55163160 -0.29436842       0.000
  -0.29189474  0.55410528 -0.29189474       0.000
  -0.28942105  0.55657897 -0.28942105       0.000
  -0.28694737  0.55905265 -0.28694737       0.000
  -0.28447369  0.56152633 -0.28447369       0.000
  -0.28200001  0.56400001 -0.28200001       0.000
  -0.27952631  0.56647371 -0.27952631       0.000
  -0.27705263  0.56894739 -0.27705263       0.000
  -0.27457895  0.57142107 -0.27457895       0.000
  -0.27210526  0.57389476 -0.27210526       0.000
  -0.26963157  0.57636845 -0.26963157       0.000
  -0.26715788  0.57884214 -0.26715788       0.000
  -0.26468422  0.58131580 -0.26468422       0.000
  -0.26221054  0.58378948 -0.26221054       0.000
  -0.25973685  0.58626317 -0.25973685       0.000
  -0.25726316  0.58873686 -0.25726316       0.000
  -0.25478947  0.59121055 -0.25478947       0.000
  -0.25231579  0.59368423 -0.25231579       0.000
  -0.24984211  0.59615791 -0.24984211       0.000
  -0.24736843  0.59863159 -0.24736843       0.000
  -0.24489473  0.60110529 -0.24489473       0.000
  -0.24242105  0.60357897 -0.24242105       0.000
  -0.23994737  0.60605265 -0.23994737       0.000
  -0.23747368  0.60852634 -0.23747368       0.000
  -0.23500000  0.61100002 -0.23500000       0.000
  -0.23252630  0.61347372 -0.23252630       0.000
  -0.23005262  0.61594740 -0.23005262       0.000
  -0.22757894  0.61842108 -0.22757894       0.000
  -0.22510527  0.62089475 -0.22510527       0.000
  -0.22263159  0.62336843 -0.22263159       0.000
  -0.22015789  0.62584213 -0.22015789       0.000
  -0.21768421  0.62831581 -0.21768421       0.000
  -0.21521053  0.63078949 -0.21521053       0.000
  -0.21273685  0.63326317 -0.21273685       0.000
  -0.21026316  0.63573686 -0.21026316       0.000
  -0.20778947  0.63821055 -0.20778947       0.000
  -0.20531579  0.64068423 -0.20531579       0.000
  -0.20284210  0.64315792 -0.20284210       0.000
  -0.20036842  0.64563160 -0.20036842       0.000
  -0.19789474  0.64810528 -0.19789474       0.000
  -0.19542104  0.65057898 -0.19542104       0.000
  -0.19294736  0.65305266 -0.19294736       0.000
  -0.19047368  0.65552634 -0.19047368       0.000
  -0.18800000  0.65800002 -0.18800000       0.000
  -0.18552630  0.66047372 -0.18552630       0.000
  -0.18305262  0.66294740 -0.18305262       0.000
  -0.18057893  0.66542109 -0.18057893       0.000
  -0.17810527  0.66789475 -0.17810527       0.000
  -0.17563158  0.67036844 -0.17563158       0.000
  -0.17315789  0.67284213 -0.17315789       0.000
  -0.17068419  0.67531583 -0.17068419       0.000
  -0.16821051  0.67778951 -0.16821051       0.000
  -0.16573683  0.68026319 -0.16573683       0.000
  -0.16326314  0.68273688 -0.16326314       0.000
  -0.16078946  0.68521056 -0.16078946       0.000
  -0.15831578  0.68768424 -0.15831578       0.000
  -0.15584210  0.69015792 -0.15584210       0.000
  -0.15336842  0.69263160 -0.15336842       0.000
  -0.15089473  0.69510529 -0.15089473       0.000
  -0.14842105  0.69757897 -0.14842105       0.000
  -0.14594737  0.70005265 -0.14594737       0.000
  -0.14347369  0.70252633 -0.14347369       0.000
  -0.14100000  0.70500002 -0.14100000       0.000
  -0.13852632  0.70747370 -0.13852632       0.000
  -0.13605261  0.70994741 -0.13605261       0.000
  -0.13357893  0.71242109 -0.13357893       0.000
  -0.13110525  0.71489477 -0.13110525       0.000
  -0.12863156  0.71736846 -0.12863156       0.000
  -0.12615788  0.71984214 -0.12615788       0.000
  -0.12368420  0.72231582 -0.12368420       0.000
  -0.12121052  0.72478950 -0.12121052       0.000
  -0.11873684  0.72726318 -0.11873684       0.000
  -0.11626312  0.72973690 -0.11626312       0.000
  -0.11378947  0.73221055 -0.11378947       0.000
  -0.11131576  0.73468426 -0.11131576       0.000
  -0.10884211  0.73715791 -0.10884211       0.000
  -0.10636842  0.73963160 -0.10636842       0.000
  -0.10389471  0.74210531 -0.10389471       0.000
  -0.10142106  0.74457896 -0.10142106       0.000
  -0.09894735  0.74705267 -0.09894735       0.000
  -0.09647370  0.74952632 -0.09647370       0.000
  -0.09399998  0.75200004 -0.09399998       0.000
  -0.09152630  0.75447372 -0.09152630       0.000
  -0.08905262  0.75694740 -0.08905262       0.000
  -0.08657894  0.75942108 -0.08657894       0.000
  -0.08410526  0.76189476 -0.08410526       0.000
  -0.08163157  0.76436845 -0.08163157       0.000
  -0.07915786  0.76684216 -0.07915786       0.000
  -0.07668421  0.76931581 -0.07668421       0.000
  -0.07421050  0.77178952 -0.07421050       0.000
  -0.07173684  0.77426318 -0.07173684       0.000
  -0.06926316  0.77673686 -0.06926316       0.000
  -0.06678945  0.77921057 -0.06678945       0.000
  -0.06431580  0.78168422 -0.06431580       0.000
  -0.06184209  0.78415793 -0.06184209       0.000
  -0.05936843  0.78663159 -0.05936843       0.000
  -0.05689472  0.78910530 -0.05689472       0.000
  -0.05442104  0.79157898 -0.05442104       0.000
  -0.05194736  0.79405266 -0.05194736       0.000
  -0.04947368  0.79652634 -0.04947368       0.000
  -0.04699999  0.79900003 -0.04699999       0.000
  -0.04452631  0.80147371 -0.04452631       0.000
  -0.04205260  0.80394742 -0.04205260       0.000
  -0.03957895  0.80642107 -0.03957895       0.000
  -0.03710523  0.80889479 -0.03710523       0.000
  -0.03463158  0.81136844 -0.03463158       0.000
  -0.03215787  0.81384215 -0.03215787       0.000
  -0.02968419  0.81631583 -0.02968419       0.000
  -0.02721054  0.81878948 -0.02721054       0.000
  -0.02473682  0.82126320 -0.02473682       0.000
  -0.02226317  0.82373685 -0.02226317       0.000
  -0.01978946  0.82621056 -0.01978946       0.000
  -0.01731578  0.82868424 -0.01731578       0.000
  -0.01484210  0.83115792 -0.01484210       0.000
  -0.01236841  0.83363161 -0.01236841       0.000
  -0.00989473  0.83610529 -0.00989473       0.000
  -0.00742105  0.83857897 -0.00742105       0.000
  -0.00494734  0.84105268 -0.00494734       0.000
  -0.00247368  0.84352634 -0.00247368       0.000
   0.00000003  0.84600005  0.00000003       0.000
   0.00247368  0.84352634  0.00247368       0.000
   0.00494737  0.84105265  0.00494737       0.000
   0.00742105  0.83857897  0.00742105       0.000
   0.00989476  0.83610526  0.00989476       0.000
   0.01236844  0.83363158  0.01236844       0.000
   0.01484212  0.83115790  0.01484212       0.000
   0.01731581  0.82868421  0.01731581       0.000
   0.01978949  0.82621053  0.01978949       0.000
   0.02226317  0.82373685  0.02226317       0.000
   0.02473685  0.82126317  0.02473685       0.000
   0.02721054  0.81878948  0.02721054       0.000
   0.02968422  0.81631580  0.02968422       0.000
   0.03215790  0.81384212  0.03215790       0.000
   0.03463158  0.81136844  0.03463158       0.000
   0.03710526  0.80889476  0.03710526       0.000
   0.03957895  0.80642107  0.03957895       0.000
   0.04205266  0.80394736  0.04205266       0.000
   0.04452634  0.80147368  0.04452634       0.000
   0.04700002  0.79900000  0.04700002       0.000
   0.04947371  0.79652631  0.04947371       0.000
   0.05194739  0.79405263  0.05194739       0.000
   0.05442107  0.79157895  0.05442107       0.000
   0.05689475  0.78910527  0.05689475       0.000
   0.05936843  0.78663159  0.05936843       0.000
   0.06184212  0.78415790  0.06184212       0.000
   0.06431580  0.78168422  0.06431580       0.000
   0.06678948  0.77921054  0.06678948       0.000
   0.06926316  0.77673686  0.06926316       0.000
   0.07173687  0.77426315  0.07173687       0.000
   0.07421056  0.77178946  0.07421056       0.000
   0.07668424  0.76931578  0.07668424       0.000
   0.07915792  0.76684210  0.07915792       0.000
   0.08163160  0.76436842  0.08163160       0.000
   0.08410529  0.76189473  0.08410529       0.000
   0.08657897  0.75942105  0.08657897       0.000
   0.08905265  0.75694737  0.08905265       0.000
   0.09152633  0.75447369  0.09152633       0.000
   0.09400001  0.75200001  0.09400001       0.000
   0.09647370  0.74952632  0.09647370       0.000
   0.09894738  0.74705264  0.09894738       0.000
   0.10142106  0.74457896  0.10142106       0.000
   0.10389474  0.74210528  0.10389474       0.000
   0.10636842  0.73963160  0.10636842       0.000
   0.10884214  0.73715788  0.10884214       0.000
   0.11131582  0.73468420  0.11131582       0.000
   0.11378950  0.73221052  0.11378950       0.000
   0.11626318  0.72973684  0.11626318       0.000
   0.11873687  0.72726315  0.11873687       0.000
   0.12121055  0.72478947  0.12121055       0.000
   0.12368423  0.72231579  0.12368423       0.000
   0.12615791  0.71984211  0.12615791       0.000
   0.12863159  0.71736843  0.12863159       0.000
   0.13110528  0.71489474  0.13110528       0.000
   0.13357896  0.71242106  0.13357896       0.000
   0.13605264  0.70994738  0.13605264       0.000
   0.13852632  0.70747370  0.13852632       0.000
   0.14100000  0.70500002  0.14100000       0.000
   0.14347372  0.70252630  0.14347372       0.000
   0.14594740  0.70005262  0.14594740       0.000
   0.14842108  0.69757894  0.14842108       0.000
   0.15089476  0.69510526  0.15089476       0.000
   0.15336845  0.69263157  0.15336845       0.000
   0.15584213  0.69015789  0.15584213       0.000
   0.15831581  0.68768421  0.15831581       0.000
   0.16078949  0.68521053  0.16078949       0.000
   0.16326317  0.68273685  0.16326317       0.000
   0.16573686  0.68026316  0.16573686       0.000
   0.16821054  0.67778948  0.16821054       0.000
   0.17068422  0.67531580  0.17068422       0.000
   0.17315792  0.67284210  0.17315792       0.000
   0.17563160  0.67036842  0.17563160       0.000
   0.17810530  0.66789472  0.17810530       0.000
   0.18057898  0.66542104  0.18057898       0.000
   0.18305266  0.66294736  0.18305266       0.000
   0.18552634  0.66047368  0.18552634       0.000
   0.18800003  0.65799999  0.18800003       0.000
   0.19047372  0.65552630  0.19047372       0.000
   0.19294740  0.65305262  0.19294740       0.000
   0.19542109  0.65057893  0.19542109       0.000
   0.19789475  0.64810527  0.19789475       0.000
   0.20036844  0.64563158  0.20036844       0.000
   0.20284213  0.64315789  0.20284213       0.000
   0.20531582  0.64068420  0.20531582       0.000
   0.20778950  0.63821052  0.20778950       0.000
   0.21026318  0.63573684  0.21026318       0.000
   0.21273686  0.63326316  0.21273686       0.000
   0.21521056  0.63078946  0.21521056       0.000
   0.21768424  0.62831578  0.21768424       0.000
   0.22015792  0.62584210  0.22015792       0.000
   0.22263161  0.62336841  0.22263161       0.000
   0.22510529  0.62089473  0.22510529       0.000
   0.22757898  0.61842104  0.22757898       0.000
   0.23005267  0.61594735  0.23005267       0.000
   0.23252635  0.61347367  0.23252635       0.000
   0.23500003  0.61099999  0.23500003       0.000
   0.23747373  0.60852629  0.23747373       0.000
   0.23994741  0.60605261  0.23994741       0.000
   0.24242109  0.60357893  0.24242109       0.000
   0.24489476  0.60110526  0.24489476       0.000
   0.24736844  0.59863158  0.24736844       0.000
   0.24984214  0.59615788  0.24984214       0.000
   0.25231584  0.59368418  0.25231584       0.000
   0.25478952  0.59121050  0.25478952       0.000
   0.25726320  0.58873682  0.25726320       0.000
   0.25973688  0.58626314  0.25973688       0.000
   0.26221056  0.58378946  0.26221056       0.000
   0.26468425  0.58131577  0.26468425       0.000
   0.26715793  0.57884209  0.26715793       0.000
   0.26963161  0.57636841  0.26963161       0.000
   0.27210529  0.57389473  0.27210529       0.000
   0.27457898  0.57142104  0.27457898       0.000
   0.27705266  0.56894736  0.27705266       0.000
   0.27952634  0.56647368  0.27952634       0.000
   0.28200002  0.56400000  0.28200002       0.000
   0.28447370  0.56152632  0.28447370       0.000
   0.28694742  0.55905260  0.28694742       0.000
   0.28942110  0.55657892  0.28942110       0.000
   0.29189478  0.55410524  0.29189478       0.000
   0.29436846  0.55163156  0.29436846       0.000
   0.29684215  0.54915787  0.29684215       0.000
   0.29931582  0.54668420  0.29931582       0.000
   0.30178950  0.54421052  0.30178950       0.000
   0.30426318  0.54173684  0.30426318       0.000
   0.30673690  0.53926312  0.30673690       0.000
   0.30921055  0.53678947  0.30921055       0.000
   0.31168426  0.53431576  0.31168426       0.000
   0.31415791  0.53184211  0.31415791       0.000
   0.31663159  0.52936843  0.31663159       0.000
   0.31910531  0.52689471  0.31910531       0.000
   0.32157896  0.52442106  0.32157896       0.000
   0.32405267  0.52194735  0.32405267       0.000
   0.32652632  0.51947370  0.32652632       0.000
   0.32900004  0.51699998  0.32900004       0.000
   0.33147372  0.51452630  0.33147372       0.000
   0.33394740  0.51205262  0.33394740       0.000
   0.33642108  0.50957894  0.33642108       0.000
   0.33889476  0.50710526  0.33889476       0.000
   0.34136845  0.50463157  0.34136845       0.000
   0.34384216  0.50215786  0.34384216       0.000
   0.34631581  0.49968421  0.34631581       0.000
   0.34878952  0.49721050  0.34878952       0.000
   0.35126318  0.49473684  0.35126318       0.000
   0.35373686  0.49226316  0.35373686       0.000
   0.35621057  0.48978945  0.35621057       0.000
   0.35868422  0.48731580  0.35868422       0.000
   0.36115793  0.48484209  0.36115793       0.000
   0.36363159  0.48236843  0.36363159       0.000
   0.36610530  0.47989472  0.36610530       0.000
   0.36857898  0.47742104  0.36857898       0.000
   0.37105266  0.47494736  0.37105266       0.000
   0.37352634  0.47247368  0.37352634       0.000
   0.37600003  0.46999999  0.37600003       0.000
   0.37847371  0.46752631  0.37847371       0.000
   0.38094742  0.46505260  0.38094742       0.000
   0.38342107  0.46257895  0.38342107       0.000
   0.38589478  0.46010524  0.38589478       0.000
   0.38836844  0.45763158  0.38836844       0.000
   0.39084215  0.45515787  0.39084215       0.000
   0.39331583  0.45268419  0.39331583       0.000
   0.39578948  0.45021054  0.39578948       0.000
   0.39826320  0.44773682  0.39826320       0.000
   0.40073685  0.44526317  0.40073685       0.000
   0.40321056  0.44278946  0.40321056       0.000
   0.40568424  0.44031578  0.40568424       0.000
   0.40815792  0.43784210  0.40815792       0.000
   0.41063161  0.43536841  0.41063161       0.000
   0.41310529  0.43289473  0.41310529       0.000
   0.41557897  0.43042105  0.41557897       0.000
   0.41805268  0.42794734  0.41805268       0.000
   0.42052634  0.42547368  0.42052634       0.000
   0.42300005  0.42299997  0.42300005       0.000
   0.42052633  0.42547369  0.42052633       0.000
   0.41805264  0.42794738  0.41805264       0.000
   0.41557896  0.43042106  0.41557896       0.000
   0.41310527  0.43289475  0.41310527       0.000
   0.41063159  0.43536843  0.41063159       0.000
   0.40815790  0.43784212  0.40815790       0.000
   0.40568422  0.44031580  0.40568422       0.000
   0.40321054  0.44278948  0.40321054       0.000
   0.40073685  0.44526317  0.40073685       0.000
   0.39826317  0.44773685  0.39826317       0.000
   0.39578948  0.45021054  0.39578948       0.000
   0.39331580  0.45268422  0.39331580       0.000
   0.39084211  0.45515791  0.39084211       0.000
   0.38836843  0.45763159  0.38836843       0.000
   0.38589474  0.46010528  0.38589474       0.000
   0.38342106  0.46257896  0.38342106       0.000
   0.38094738  0.46505264  0.38094738       0.000
   0.37847369  0.46752633  0.37847369       0.000
   0.37600001  0.47000001  0.37600001       0.000
   0.37352633  0.47247369  0.37352633       0.000
   0.37105264  0.47494738  0.37105264       0.000
   0.36857895  0.47742107  0.36857895       0.000
   0.36610527  0.47989475  0.36610527       0.000
   0.36363158  0.48236844  0.36363158       0.000
   0.36115790  0.48484212  0.36115790       0.000
   0.35868421  0.48731581  0.35868421       0.000
   0.35621053  0.48978949  0.35621053       0.000
   0.35373685  0.49226317  0.35373685       0.000
   0.35126316  0.49473686  0.35126316       0.000
   0.34878948  0.49721054  0.34878948       0.000
   0.34631579  0.49968423  0.34631579       0.000
   0.34384211  0.50215791  0.34384211       0.000
   0.34136843  0.50463159  0.34136843       0.000
   0.33889474  0.50710528  0.33889474       0.000
   0.33642106  0.50957896  0.33642106       0.000
   0.33394737  0.51205265  0.33394737       0.000
   0.33147369  0.51452633  0.33147369       0.000
   0.32900001  0.51700001  0.32900001       0.000
   0.32652632  0.51947370  0.32652632       0.000
   0.32405264  0.52194738  0.32405264       0.000
   0.32157895  0.52442107  0.32157895       0.000
   0.31910527  0.52689475  0.31910527       0.000
   0.31663159  0.52936843  0.31663159       0.000
   0.31415790  0.53184212  0.31415790       0.000
   0.31168422  0.53431580  0.31168422       0.000
   0.30921053  0.53678949  0.30921053       0.000
   0.30673684  0.53926318  0.30673684       0.000
   0.30426315  0.54173687  0.30426315       0.000
   0.30178947  0.54421055  0.30178947       0.000
   0.29931580  0.54668422  0.29931580       0.000
   0.29684210  0.54915792  0.29684210       0.000
   0.29436842  0.55163160  0.29436842       0.000
   0.29189474  0.55410528  0.29189474       0.000
   0.28942105  0.55657897  0.28942105       0.000
   0.28694737  0.55905265  0.28694737       0.000
   0.28447369  0.56152633  0.28447369       0.000
   0.28200001  0.56400001  0.28200001       0.000
   0.27952631  0.56647371  0.27952631       0.000
   0.27705263  0.56894739  0.27705263       0.000
   0.27457895  0.57142107  0.27457895       0.000
   0.27210526  0.57389476  0.27210526       0.000
   0.26963157  0.57636845  0.26963157       0.000
   0.26715788  0.57884214  0.26715788       0.000
   0.26468422  0.58131580  0.26468422       0.000
   0.26221054  0.58378948  0.26221054       0.000
   0.25973685  0.58626317  0.25973685       0.000
   0.25726316  0.58873686  0.25726316       0.000
   0.25478947  0.59121055  0.25478947       0.000
   0.25231579  0.59368423  0.25231579       0.000
   0.24984211  0.59615791  0.24984211       0.000
   0.24736843  0.59863159  0.24736843       0.000
   0.24489473  0.60110529  0.24489473       0.000
   0.24242105  0.60357897  0.24242105       0.000
   0.23994737  0.60605265  0.23994737       0.000
   0.23747368  0.60852634  0.23747368       0.000
   0.23500000  0.61100002  0.23500000       0.000
   0.23252630  0.61347372  0.23252630       0.000
   0.23005262  0.61594740  0.23005262       0.000
   0.22757894  0.61842108  0.22757894       0.000
   0.22510527  0.62089475  0.22510527       0.000
   0.22263159  0.62336843  0.22263159       0.000
   0.22015789  0.62584213  0.22015789       0.000
   0.21768421  0.62831581  0.21768421       0.000
   0.21521053  0.63078949  0.21521053       0.000
   0.21273685  0.63326317  0.21273685       0.000
   0.21026316  0.63573686  0.21026316       0.000
   0.20778947  0.63821055  0.20778947       0.000
   0.20531579  0.64068423  0.20531579       0.000
   0.20284210  0.64315792  0.20284210       0.000
   0.20036842  0.64563160  0.20036842       0.000
   0.19789474  0.64810528  0.19789474       0.000
   0.19542104  0.65057898  0.19542104       0.000
   0.19294736  0.65305266  0.19294736       0.000
   0.19047368  0.65552634  0.19047368       0.000
   0.18800000  0.65800002  0.18800000       0.000
   0.18552630  0.66047372  0.18552630       0.000
   0.18305262  0.66294740  0.18305262       0.000
   0.18057893  0.66542109  0.18057893       0.000
   0.17810527  0.66789475  0.17810527       0.000
   0.17563158  0.67036844  0.17563158       0.000
   0.17315789  0.67284213  0.17315789       0.000
   0.17068419  0.67531583  0.17068419       0.000
   0.16821051  0.67778951  0.16821051       0.000
   0.16573683  0.68026319  0.16573683       0.000
   0.16326314  0.68273688  0.16326314       0.000
   0.16078946  0.68521056  0.16078946       0.000
   0.15831578  0.68768424  0.15831578       0.000
   0.15584210  0.69015792  0.15584210       0.000
   0.15336842  0.69263160  0.15336842       0.000
   0.15089473  0.69510529  0.15089473       0.000
   0.14842105  0.69757897  0.14842105       0.000
   0.14594737  0.70005265  0.14594737       0.000
   0.14347369  0.70252633  0.14347369       0.000
   0.14100000  0.70500002  0.14100000       0.000
   0.13852632  0.70747370  0.13852632       0.000
   0.13605261  0.70994741  0.13605261       0.000
   0.13357893  0.71242109  0.13357893       0.000
   0.13110525  0.71489477  0.13110525       0.000
   0.12863156  0.71736846  0.12863156       0.000
   0.12615788  0.71984214  0.12615788       0.000
   0.12368420  0.72231582  0.12368420       0.000
   0.12121052  0.72478950  0.12121052       0.000
   0.11873684  0.72726318  0.11873684       0.000
   0.11626312  0.72973690  0.11626312       0.000
   0.11378947  0.73221055  0.11378947       0.000
   0.11131576  0.73468426  0.11131576       0.000
   0.10884211  0.73715791  0.10884211       0.000
   0.10636842  0.73963160  0.10636842       0.000
   0.10389471  0.74210531  0.10389471       0.000
   0.10142106  0.74457896  0.10142106       0.000
   0.09894735  0.74705267  0.09894735       0.000
   0.09647370  0.74952632  0.09647370       0.000
   0.09399998  0.75200004  0.09399998       0.000
   0.09152630  0.75447372  0.09152630       0.000
   0.08905262  0.75694740  0.08905262       0.000
   0.08657894  0.75942108  0.08657894       0.000
   0.08410526  0.76189476  0.08410526       0.000
   0.08163157  0.76436845  0.08163157       0.000
   0.07915786  0.76684216  0.07915786       0.000
   0.07668421  0.76931581  0.07668421       0.000
   0.07421050  0.77178952  0.07421050       0.000
   0.07173684  0.77426318  0.07173684       0.000
   0.06926316  0.77673686  0.06926316       0.000
   0.06678945  0.77921057  0.06678945       0.000
   0.06431580  0.78168422  0.06431580       0.000
   0.06184209  0.78415793  0.06184209       0.000
   0.05936843  0.78663159  0.05936843       0.000
   0.05689472  0.78910530  0.05689472       0.000
   0.05442104  0.79157898  0.05442104       0.000
   0.05194736  0.79405266  0.05194736       0.000
   0.04947368  0.79652634  0.04947368       0.000
   0.04699999  0.79900003  0.04699999       0.000
   0.04452631  0.80147371  0.04452631       0.000
   0.04205260  0.80394742  0.04205260       0.000
   0.03957895  0.80642107  0.03957895       0.000
   0.03710523  0.80889479  0.03710523       0.000
   0.03463158  0.81136844  0.03463158       0.000
   0.03215787  0.81384215  0.03215787       0.000
   0.02968419  0.81631583  0.02968419       0.000
   0.02721054  0.81878948  0.02721054       0.000
   0.02473682  0.82126320  0.02473682       0.000
   0.02226317  0.82373685  0.02226317       0.000
   0.01978946  0.82621056  0.01978946       0.000
   0.01731578  0.82868424  0.01731578       0.000
   0.01484210  0.83115792  0.01484210       0.000
   0.01236841  0.83363161  0.01236841       0.000
   0.00989473  0.83610529  0.00989473       0.000
   0.00742105  0.83857897  0.00742105       0.000
   0.00494734  0.84105268  0.00494734       0.000
   0.00247368  0.84352634  0.00247368       0.000
  -0.00000003  0.84600005 -0.00000003       0.000
   0.00247525  0.84352477 -0.00247525       0.000
   0.00495049  0.84104953 -0.00495049       0.000
   0.00742574  0.83857428 -0.00742574       0.000
   0.00990099  0.83609903 -0.00990099       0.000
   0.01237624  0.83362378 -0.01237624       0.000
   0.01485148  0.83114854 -0.01485148       0.000
   0.01732673  0.82867329 -0.01732673       0.000
   0.01980198  0.82619804 -0.01980198       0.000
   0.02227723  0.82372279 -0.02227723       0.000
   0.02475248  0.82124754 -0.02475248       0.000
   0.02722772  0.81877230 -0.02722772       0.000
   0.02970297  0.81629705 -0.02970297       0.000
   0.03217822  0.81382180 -0.03217822       0.000
   0.03465347  0.81134655 -0.03465347       0.000
   0.03712871  0.80887131 -0.03712871       0.000
   0.03960396  0.80639606 -0.03960396       0.000
   0.04207921  0.80392081 -0.04207921       0.000
   0.04455445  0.80144557 -0.04455445       0.000
   0.04702970  0.79897032 -0.04702970       0.000
   0.04950495  0.79649507 -0.04950495       0.000
   0.05198020  0.79401982 -0.05198020       0.000
   0.05445544  0.79154458 -0.05445544       0.000
   0.05693069  0.78906933 -0.05693069       0.000
   0.05940594  0.78659408 -0.05940594       0.000
   0.06188119  0.78411883 -0.06188119       0.000
   0.06435643  0.78164359 -0.06435643       0.000
   0.06683169  0.77916833 -0.06683169       0.000
   0.06930693  0.77669309 -0.06930693       0.000
   0.07178218  0.77421784 -0.07178218       0.000
   0.07425743  0.77174259 -0.07425743       0.000
   0.07673267  0.76926735 -0.07673267       0.000
   0.07920792  0.76679210 -0.07920792       0.000
   0.08168317  0.76431685 -0.08168317       0.000
   0.08415841  0.76184161 -0.08415841       0.000
   0.08663366  0.75936636 -0.08663366       0.000
   0.08910891  0.75689111 -0.08910891       0.000
   0.09158415  0.75441587 -0.09158415       0.000
   0.09405941  0.75194061 -0.09405941       0.000
   0.09653465  0.74946537 -0.09653465       0.000
   0.09900990  0.74699012 -0.09900990       0.000
   0.10148515  0.74451487 -0.10148515       0.000
   0.10396039  0.74203963 -0.10396039       0.000
   0.10643564  0.73956438 -0.10643564       0.000
   0.10891089  0.73708913 -0.10891089       0.000
   0.11138614  0.73461388 -0.11138614       0.000
   0.11386138  0.73213864 -0.11386138       0.000
   0.11633663  0.72966339 -0.11633663       0.000
   0.11881188  0.72718814 -0.11881188       0.000
   0.12128713  0.72471289 -0.12128713       0.000
   0.12376238  0.72223764 -0.12376238       0.000
   0.12623762  0.71976240 -0.12623762       0.000
   0.12871286  0.71728716 -0.12871286       0.000
   0.13118811  0.71481191 -0.13118811       0.000
   0.13366337  0.71233665 -0.13366337       0.000
   0.13613862  0.70986140 -0.13613862       0.000
   0.13861386  0.70738616 -0.13861386       0.000
   0.14108911  0.70491091 -0.14108911       0.000
   0.14356436  0.70243566 -0.14356436       0.000
   0.14603961  0.69996041 -0.14603961       0.000
   0.14851485  0.69748517 -0.14851485       0.000
   0.15099010  0.69500992 -0.15099010       0.000
   0.15346535  0.69253467 -0.15346535       0.000
   0.15594059  0.69005943 -0.15594059       0.000
   0.15841584  0.68758418 -0.15841584       0.000
   0.16089109  0.68510893 -0.16089109       0.000
   0.16336633  0.68263369 -0.16336633       0.000
   0.16584158  0.68015844 -0.16584158       0.000
   0.16831683  0.67768319 -0.16831683       0.000
   0.17079207  0.67520795 -0.17079207       0.000
   0.17326732  0.67273270 -0.17326732       0.000
   0.17574257  0.67025745 -0.17574257       0.000
   0.17821781  0.66778221 -0.17821781       0.000
   0.18069306  0.66530696 -0.18069306       0.000
   0.18316831  0.66283171 -0.18316831       0.000
   0.18564357  0.66035645 -0.18564357       0.000
   0.18811882  0.65788120 -0.18811882       0.000
   0.19059406  0.65540596 -0.19059406       0.000
   0.19306931  0.65293071 -0.19306931       0.000
   0.19554456  0.65045546 -0.19554456       0.000
   0.19801980  0.64798022 -0.19801980       0.000
   0.20049505  0.64550497 -0.20049505       0.000
   0.20297030  0.64302972 -0.20297030       0.000
   0.20544554  0.64055448 -0.20544554       0.000
   0.20792079  0.63807923 -0.20792079       0.000
   0.21039604  0.63560398 -0.21039604       0.000
   0.21287128  0.63312874 -0.21287128       0.000
   0.21534653  0.63065349 -0.21534653       0.000
   0.21782178  0.62817824 -0.21782178       0.000
   0.22029702  0.62570300 -0.22029702       0.000
   0.22277227  0.62322775 -0.22277227       0.000
   0.22524752  0.62075250 -0.22524752       0.000
   0.22772276  0.61827726 -0.22772276       0.000
   0.23019801  0.61580201 -0.23019801       0.000
   0.23267326  0.61332676 -0.23267326       0.000
   0.23514850  0.61085152 -0.23514850       0.000
   0.23762375  0.60837627 -0.23762375       0.000
   0.24009901  0.60590101 -0.24009901       0.000
   0.24257426  0.60342576 -0.24257426       0.000
   0.24504951  0.60095051 -0.24504951       0.000
   0.24752475  0.59847527 -0.24752475       0.000
   0.25000000  0.59600002 -0.25000000       0.000
   0.25247523  0.59352479 -0.25247523       0.000
   0.25495049  0.59104953 -0.25495049       0.000
   0.25742573  0.58857429 -0.25742573       0.000
   0.25990099  0.58609903 -0.25990099       0.000
   0.26237622  0.58362380 -0.26237622       0.000
   0.26485148  0.58114854 -0.26485148       0.000
   0.26732674  0.57867328 -0.26732674       0.000
   0.26980197  0.57619805 -0.26980197       0.000
   0.27227724  0.57372278 -0.27227724       0.000
   0.27475247  0.57124755 -0.27475247       0.000
   0.27722773  0.56877229 -0.27722773       0.000
   0.27970296  0.56629706 -0.27970296       0.000
   0.28217822  0.56382180 -0.28217822       0.000
   0.28465346  0.56134656 -0.28465346       0.000
   0.28712872  0.55887130 -0.28712872       0.000
   0.28960395  0.55639607 -0.28960395       0.000
   0.29207921  0.55392081 -0.29207921       0.000
   0.29455444  0.55144558 -0.29455444       0.000
   0.29702970  0.54897032 -0.29702970       0.000
   0.29950494  0.54649508 -0.29950494       0.000
   0.30198020  0.54401982 -0.30198020       0.000
   0.30445543  0.54154459 -0.30445543       0.000
   0.30693069  0.53906933 -0.30693069       0.000
   0.30940592  0.53659410 -0.30940592       0.000
   0.31188118  0.53411884 -0.31188118       0.000
   0.31435642  0.53164360 -0.31435642       0.000
   0.31683168  0.52916834 -0.31683168       0.000
   0.31930694  0.52669308 -0.31930694       0.000
   0.32178217  0.52421785 -0.32178217       0.000
   0.32425743  0.52174259 -0.32425743       0.000
   0.32673267  0.51926735 -0.32673267       0.000
   0.32920793  0.51679209 -0.32920793       0.000
   0.33168316  0.51431686 -0.33168316       0.000
   0.33415842  0.51184160 -0.33415842       0.000
   0.33663365  0.50936637 -0.33663365       0.000
   0.33910891  0.50689111 -0.33910891       0.000
   0.34158415  0.50441587 -0.34158415       0.000
   0.34405941  0.50194061 -0.34405941       0.000
   0.34653464  0.49946538 -0.34653464       0.000
   0.34900990  0.49699012 -0.34900990       0.000
   0.35148513  0.49451489 -0.35148513       0.000
   0.35396039  0.49203963 -0.35396039       0.000
   0.35643563  0.48956439 -0.35643563       0.000
   0.35891089  0.48708913 -0.35891089       0.000
   0.36138612  0.48461390 -0.36138612       0.000
   0.36386138  0.48213864 -0.36386138       0.000
   0.36633661  0.47966341 -0.36633661       0.000
   0.36881188  0.47718814 -0.36881188       0.000
   0.37128714  0.47471288 -0.37128714       0.000
   0.37376237  0.47223765 -0.37376237       0.000
   0.37623763  0.46976239 -0.37623763       0.000
   0.37871286  0.46728716 -0.37871286       0.000
   0.38118812  0.46481190 -0.38118812       0.000
   0.38366336  0.46233666 -0.38366336       0.000
   0.38613862  0.45986140 -0.38613862       0.000
   0.38861385  0.45738617 -0.38861385       0.000
   0.39108911  0.45491091 -0.39108911       0.000
   0.39356434  0.45243568 -0.39356434       0.000
   0.39603961  0.44996041 -0.39603961       0.000
   0.39851484  0.44748518 -0.39851484       0.000
   0.40099010  0.44500992 -0.40099010       0.000
   0.40346533  0.44253469 -0.40346533       0.000
   0.40594059  0.44005943 -0.40594059       0.000
   0.40841582  0.43758420 -0.40841582       0.000
   0.41089109  0.43510893 -0.41089109       0.000
   0.41336632  0.43263370 -0.41336632       0.000
   0.41584158  0.43015844 -0.41584158       0.000
   0.41831681  0.42768321 -0.41831681       0.000
   0.42079207  0.42520795 -0.42079207       0.000
   0.42326733  0.42273269 -0.42326733       0.000
   0.42574257  0.42025745 -0.42574257       0.000
   0.42821783  0.41778219 -0.42821783       0.000
   0.43069306  0.41530696 -0.43069306       0.000
   0.43316832  0.41283170 -0.43316832       0.000
   0.43564355  0.41035647 -0.43564355       0.000
   0.43811882  0.40788120 -0.43811882       0.000
   0.44059405  0.40540597 -0.44059405       0.000
   0.44306931  0.40293071 -0.44306931       0.000
   0.44554454  0.40045548 -0.44554454       0.000
   0.44801980  0.39798022 -0.44801980       0.000
   0.45049503  0.39550499 -0.45049503       0.000
   0.45297030  0.39302972 -0.45297030       0.000
   0.45544553  0.39055449 -0.45544553       0.000
   0.45792079  0.38807923 -0.45792079       0.000
   0.46039602  0.38560400 -0.46039602       0.000
   0.46287128  0.38312874 -0.46287128       0.000
   0.46534652  0.38065350 -0.46534652       0.000
   0.46782178  0.37817824 -0.46782178       0.000
   0.47029701  0.37570301 -0.47029701       0.000
   0.47277227  0.37322775 -0.47277227       0.000
   0.47524750  0.37075252 -0.47524750       0.000
   0.47772276  0.36827726 -0.47772276       0.000
   0.48019803  0.36580199 -0.48019803       0.000
   0.48267326  0.36332676 -0.48267326       0.000
   0.48514852  0.36085150 -0.48514852       0.000
   0.48762375  0.35837627 -0.48762375       0.000
   0.49009901  0.35590101 -0.49009901       0.000
   0.49257424  0.35342578 -0.49257424       0.000
   0.49504951  0.35095051 -0.49504951       0.000
   0.49752474  0.34847528 -0.49752474       0.000
 
 k-points in reciprocal lattice and weights: Automatically generated mesh: SCF=15,715
   0.00000000  0.00000000  0.00000000       0.005
   0.16666667  0.00000000  0.00000000       0.039
   0.33333333  0.00000000  0.00000000       0.039
   0.50000000  0.00000000  0.00000000       0.020
   0.16666667  0.16666667  0.00000000       0.029
   0.33333333  0.16666667  0.00000000       0.118
   0.50000000  0.16666667  0.00000000       0.118
  -0.33333333  0.16666667  0.00000000       0.118
  -0.16666667  0.16666667  0.00000000       0.059
   0.33333333  0.33333333  0.00000000       0.029
   0.50000000  0.33333333  0.00000000       0.118
  -0.33333333  0.33333333  0.00000000       0.059
   0.50000000  0.50000000  0.00000000       0.015
   0.50000000  0.33333333  0.16666667       0.118
  -0.33333333  0.33333333  0.16666667       0.118
   0.00000000  0.00000000  0.42300000       0.000
   0.00247368  0.00000000  0.42300001       0.000
   0.00494737  0.00000000  0.42300001       0.000
   0.00742105  0.00000000  0.42300001       0.000
   0.00989474  0.00000000  0.42300001       0.000
   0.01236842  0.00000000  0.42300001       0.000
   0.01484211  0.00000000  0.42300001       0.000
   0.01731579  0.00000000  0.42300001       0.000
   0.01978947  0.00000000  0.42300001       0.000
   0.02226316  0.00000000  0.42300001       0.000
   0.02473684  0.00000000  0.42300001       0.000
   0.02721053  0.00000000  0.42300001       0.000
   0.02968421  0.00000000  0.42300001       0.000
   0.03215790  0.00000000  0.42300001       0.000
   0.03463158  0.00000000  0.42300001       0.000
   0.03710527  0.00000000  0.42300001       0.000
   0.03957895  0.00000000  0.42300001       0.000
   0.04205263  0.00000000  0.42300001       0.000
   0.04452632  0.00000000  0.42300001       0.000
   0.04700000  0.00000000  0.42300001       0.000
   0.04947368  0.00000000  0.42300001       0.000
   0.05194737  0.00000000  0.42300001       0.000
   0.05442106  0.00000000  0.42300001       0.000
   0.05689474  0.00000000  0.42300001       0.000
   0.05936843  0.00000000  0.42300001       0.000
   0.06184211  0.00000000  0.42300001       0.000
   0.06431580  0.00000000  0.42300001       0.000
   0.06678948  0.00000000  0.42300001       0.000
   0.06926316  0.00000000  0.42300001       0.000
   0.07173685  0.00000000  0.42300001       0.000
   0.07421053  0.00000000  0.42300001       0.000
   0.07668422  0.00000000  0.42300001       0.000
   0.07915790  0.00000000  0.42300001       0.000
   0.08163158  0.00000000  0.42300001       0.000
   0.08410527  0.00000000  0.42300001       0.000
   0.08657895  0.00000000  0.42300001       0.000
   0.08905264  0.00000000  0.42300001       0.000
   0.09152632  0.00000000  0.42300001       0.000
   0.09400000  0.00000000  0.42300001       0.000
   0.09647369  0.00000000  0.42300001       0.000
   0.09894737  0.00000000  0.42300001       0.000
   0.10142106  0.00000000  0.42300001       0.000
   0.10389474  0.00000000  0.42300001       0.000
   0.10636842  0.00000000  0.42300001       0.000
   0.10884211  0.00000000  0.42300001       0.000
   0.11131579  0.00000000  0.42300001       0.000
   0.11378948  0.00000000  0.42300001       0.000
   0.11626317  0.00000000  0.42300001       0.000
   0.11873686  0.00000000  0.42300001       0.000
   0.12121054  0.00000000  0.42300001       0.000
   0.12368421  0.00000000  0.42300001       0.000
   0.12615791  0.00000000  0.42300001       0.000
   0.12863159  0.00000000  0.42300001       0.000
   0.13110527  0.00000000  0.42300001       0.000
   0.13357896  0.00000000  0.42300001       0.000
   0.13605264  0.00000000  0.42300001       0.000
   0.13852632  0.00000000  0.42300001       0.000
   0.14100000  0.00000000  0.42300001       0.000
   0.14347370  0.00000000  0.42300001       0.000
   0.14594738  0.00000000  0.42300001       0.000
   0.14842106  0.00000000  0.42300001       0.000
   0.15089475  0.00000000  0.42300001       0.000
   0.15336844  0.00000000  0.42300001       0.000
   0.15584213  0.00000000  0.42300001       0.000
   0.15831579  0.00000000  0.42300001       0.000
   0.16078947  0.00000000  0.42300001       0.000
   0.16326316  0.00000000  0.42300001       0.000
   0.16573685  0.00000000  0.42300001       0.000
   0.16821054  0.00000000  0.42300001       0.000
   0.17068422  0.00000000  0.42300001       0.000
   0.17315790  0.00000000  0.42300001       0.000
   0.17563158  0.00000000  0.42300001       0.000
   0.17810528  0.00000000  0.42300001       0.000
   0.18057896  0.00000000  0.42300001       0.000
   0.18305264  0.00000000  0.42300001       0.000
   0.18552633  0.00000000  0.42300001       0.000
   0.18800001  0.00000000  0.42300001       0.000
   0.19047371  0.00000000  0.42300001       0.000
   0.19294739  0.00000000  0.42300001       0.000
   0.19542107  0.00000000  0.42300001       0.000
   0.19789474  0.00000000  0.42300001       0.000
   0.20036842  0.00000000  0.42300001       0.000
   0.20284212  0.00000000  0.42300001       0.000
   0.20531580  0.00000000  0.42300001       0.000
   0.20778948  0.00000000  0.42300001       0.000
   0.21026316  0.00000000  0.42300001       0.000
   0.21273685  0.00000000  0.42300001       0.000
   0.21521054  0.00000000  0.42300001       0.000
   0.21768422  0.00000000  0.42300001       0.000
   0.22015791  0.00000000  0.42300001       0.000
   0.22263159  0.00000000  0.42300001       0.000
   0.22510527  0.00000000  0.42300001       0.000
   0.22757897  0.00000000  0.42300001       0.000
   0.23005265  0.00000000  0.42300001       0.000
   0.23252633  0.00000000  0.42300001       0.000
   0.23500001  0.00000000  0.42300001       0.000
   0.23747371  0.00000000  0.42300001       0.000
   0.23994739  0.00000000  0.42300001       0.000
   0.24242108  0.00000000  0.42300001       0.000
   0.24489474  0.00000000  0.42300001       0.000
   0.24736843  0.00000000  0.42300001       0.000
   0.24984212  0.00000000  0.42300001       0.000
   0.25231582  0.00000000  0.42300001       0.000
   0.25478950  0.00000000  0.42300001       0.000
   0.25726318  0.00000000  0.42300001       0.000
   0.25973687  0.00000000  0.42300001       0.000
   0.26221055  0.00000000  0.42300001       0.000
   0.26468423  0.00000000  0.42300001       0.000
   0.26715791  0.00000000  0.42300001       0.000
   0.26963159  0.00000000  0.42300001       0.000
   0.27210528  0.00000000  0.42300001       0.000
   0.27457896  0.00000000  0.42300001       0.000
   0.27705264  0.00000000  0.42300001       0.000
   0.27952632  0.00000000  0.42300001       0.000
   0.28200001  0.00000000  0.42300001       0.000
   0.28447369  0.00000000  0.42300001       0.000
   0.28694740  0.00000000  0.42300001       0.000
   0.28942108  0.00000000  0.42300001       0.000
   0.29189476  0.00000000  0.42300001       0.000
   0.29436845  0.00000000  0.42300001       0.000
   0.29684213  0.00000000  0.42300001       0.000
   0.29931581  0.00000000  0.42300001       0.000
   0.30178949  0.00000000  0.42300001       0.000
   0.30426317  0.00000000  0.42300001       0.000
   0.30673689  0.00000000  0.42300001       0.000
   0.30921054  0.00000000  0.42300001       0.000
   0.31168425  0.00000000  0.42300001       0.000
   0.31415790  0.00000000  0.42300001       0.000
   0.31663159  0.00000000  0.42300001       0.000
   0.31910530  0.00000000  0.42300001       0.000
   0.32157895  0.00000000  0.42300001       0.000
   0.32405266  0.00000000  0.42300001       0.000
   0.32652631  0.00000000  0.42300001       0.000
   0.32900003  0.00000000  0.42300001       0.000
   0.33147371  0.00000000  0.42300001       0.000
   0.33394739  0.00000000  0.42300001       0.000
   0.33642107  0.00000000  0.42300001       0.000
   0.33889475  0.00000000  0.42300001       0.000
   0.34136844  0.00000000  0.42300001       0.000
   0.34384215  0.00000000  0.42300001       0.000
   0.34631580  0.00000000  0.42300001       0.000
   0.34878951  0.00000000  0.42300001       0.000
   0.35126317  0.00000000  0.42300001       0.000
   0.35373685  0.00000000  0.42300001       0.000
   0.35621056  0.00000000  0.42300001       0.000
   0.35868421  0.00000000  0.42300001       0.000
   0.36115792  0.00000000  0.42300001       0.000
   0.36363158  0.00000000  0.42300001       0.000
   0.36610529  0.00000000  0.42300001       0.000
   0.36857897  0.00000000  0.42300001       0.000
   0.37105265  0.00000000  0.42300001       0.000
   0.37352633  0.00000000  0.42300001       0.000
   0.37600002  0.00000000  0.42300001       0.000
   0.37847370  0.00000000  0.42300001       0.000
   0.38094741  0.00000000  0.42300001       0.000
   0.38342106  0.00000000  0.42300001       0.000
   0.38589478  0.00000000  0.42300001       0.000
   0.38836843  0.00000000  0.42300001       0.000
   0.39084214  0.00000000  0.42300001       0.000
   0.39331582  0.00000000  0.42300001       0.000
   0.39578947  0.00000000  0.42300001       0.000
   0.39826319  0.00000000  0.42300001       0.000
   0.40073684  0.00000000  0.42300001       0.000
   0.40321055  0.00000000  0.42300001       0.000
   0.40568423  0.00000000  0.42300001       0.000
   0.40815791  0.00000000  0.42300001       0.000
   0.41063160  0.00000000  0.42300001       0.000
   0.41310528  0.00000000  0.42300001       0.000
   0.41557896  0.00000000  0.42300001       0.000
   0.41805267  0.00000000  0.42300001       0.000
   0.42052633  0.00000000  0.42300001       0.000
   0.42300004  0.00000000  0.42300001       0.000
   0.42300001  0.00000000  0.42052633       0.000
   0.42300001  0.00000000  0.41805264       0.000
   0.42300001  0.00000000  0.41557896       0.000
   0.42300001  0.00000000  0.41310525       0.000
   0.42300001  0.00000000  0.41063157       0.000
   0.42300001  0.00000000  0.40815789       0.000
   0.42300001  0.00000000  0.40568420       0.000
   0.42300001  0.00000000  0.40321052       0.000
   0.42300001  0.00000000  0.40073684       0.000
   0.42300001  0.00000000  0.39826316       0.000
   0.42300001  0.00000000  0.39578947       0.000
   0.42300001  0.00000000  0.39331579       0.000
   0.42300001  0.00000000  0.39084211       0.000
   0.42300001  0.00000000  0.38836843       0.000
   0.42300001  0.00000000  0.38589475       0.000
   0.42300001  0.00000000  0.38342106       0.000
   0.42300001  0.00000000  0.38094735       0.000
   0.42300001  0.00000000  0.37847367       0.000
   0.42300001  0.00000000  0.37599999       0.000
   0.42300001  0.00000000  0.37352630       0.000
   0.42300001  0.00000000  0.37105262       0.000
   0.42300001  0.00000000  0.36857894       0.000
   0.42300001  0.00000000  0.36610526       0.000
   0.42300001  0.00000000  0.36363158       0.000
   0.42300001  0.00000000  0.36115789       0.000
   0.42300001  0.00000000  0.35868421       0.000
   0.42300001  0.00000000  0.35621053       0.000
   0.42300001  0.00000000  0.35373685       0.000
   0.42300001  0.00000000  0.35126314       0.000
   0.42300001  0.00000000  0.34878945       0.000
   0.42300001  0.00000000  0.34631577       0.000
   0.42300001  0.00000000  0.34384209       0.000
   0.42300001  0.00000000  0.34136841       0.000
   0.42300001  0.00000000  0.33889472       0.000
   0.42300001  0.00000000  0.33642104       0.000
   0.42300001  0.00000000  0.33394736       0.000
   0.42300001  0.00000000  0.33147368       0.000
   0.42300001  0.00000000  0.32900000       0.000
   0.42300001  0.00000000  0.32652631       0.000
   0.42300001  0.00000000  0.32405263       0.000
   0.42300001  0.00000000  0.32157895       0.000
   0.42300001  0.00000000  0.31910527       0.000
   0.42300001  0.00000000  0.31663159       0.000
   0.42300001  0.00000000  0.31415787       0.000
   0.42300001  0.00000000  0.31168419       0.000
   0.42300001  0.00000000  0.30921051       0.000
   0.42300001  0.00000000  0.30673683       0.000
   0.42300001  0.00000000  0.30426314       0.000
   0.42300001  0.00000000  0.30178946       0.000
   0.42300001  0.00000000  0.29931578       0.000
   0.42300001  0.00000000  0.29684210       0.000
   0.42300001  0.00000000  0.29436842       0.000
   0.42300001  0.00000000  0.29189473       0.000
   0.42300001  0.00000000  0.28942105       0.000
   0.42300001  0.00000000  0.28694737       0.000
   0.42300001  0.00000000  0.28447369       0.000
   0.42300001  0.00000000  0.28200001       0.000
   0.42300001  0.00000000  0.27952629       0.000
   0.42300001  0.00000000  0.27705261       0.000
   0.42300001  0.00000000  0.27457893       0.000
   0.42300001  0.00000000  0.27210525       0.000
   0.42300001  0.00000000  0.26963156       0.000
   0.42300001  0.00000000  0.26715788       0.000
   0.42300001  0.00000000  0.26468420       0.000
   0.42300001  0.00000000  0.26221052       0.000
   0.42300001  0.00000000  0.25973684       0.000
   0.42300001  0.00000000  0.25726315       0.000
   0.42300001  0.00000000  0.25478947       0.000
   0.42300001  0.00000000  0.25231579       0.000
   0.42300001  0.00000000  0.24984209       0.000
   0.42300001  0.00000000  0.24736841       0.000
   0.42300001  0.00000000  0.24489471       0.000
   0.42300001  0.00000000  0.24242103       0.000
   0.42300001  0.00000000  0.23994735       0.000
   0.42300001  0.00000000  0.23747367       0.000
   0.42300001  0.00000000  0.23499998       0.000
   0.42300001  0.00000000  0.23252629       0.000
   0.42300001  0.00000000  0.23005261       0.000
   0.42300001  0.00000000  0.22757892       0.000
   0.42300001  0.00000000  0.22510526       0.000
   0.42300001  0.00000000  0.22263157       0.000
   0.42300001  0.00000000  0.22015788       0.000
   0.42300001  0.00000000  0.21768419       0.000
   0.42300001  0.00000000  0.21521051       0.000
   0.42300001  0.00000000  0.21273683       0.000
   0.42300001  0.00000000  0.21026315       0.000
   0.42300001  0.00000000  0.20778945       0.000
   0.42300001  0.00000000  0.20531577       0.000
   0.42300001  0.00000000  0.20284209       0.000
   0.42300001  0.00000000  0.20036840       0.000
   0.42300001  0.00000000  0.19789472       0.000
   0.42300001  0.00000000  0.19542103       0.000
   0.42300001  0.00000000  0.19294734       0.000
   0.42300001  0.00000000  0.19047366       0.000
   0.42300001  0.00000000  0.18799998       0.000
   0.42300001  0.00000000  0.18552628       0.000
   0.42300001  0.00000000  0.18305260       0.000
   0.42300001  0.00000000  0.18057892       0.000
   0.42300001  0.00000000  0.17810525       0.000
   0.42300001  0.00000000  0.17563157       0.000
   0.42300001  0.00000000  0.17315787       0.000
   0.42300001  0.00000000  0.17068417       0.000
   0.42300001  0.00000000  0.16821049       0.000
   0.42300001  0.00000000  0.16573681       0.000
   0.42300001  0.00000000  0.16326313       0.000
   0.42300001  0.00000000  0.16078945       0.000
   0.42300001  0.00000000  0.15831576       0.000
   0.42300001  0.00000000  0.15584208       0.000
   0.42300001  0.00000000  0.15336840       0.000
   0.42300001  0.00000000  0.15089472       0.000
   0.42300001  0.00000000  0.14842103       0.000
   0.42300001  0.00000000  0.14594735       0.000
   0.42300001  0.00000000  0.14347367       0.000
   0.42300001  0.00000000  0.14099999       0.000
   0.42300001  0.00000000  0.13852631       0.000
   0.42300001  0.00000000  0.13605259       0.000
   0.42300001  0.00000000  0.13357891       0.000
   0.42300001  0.00000000  0.13110523       0.000
   0.42300001  0.00000000  0.12863155       0.000
   0.42300001  0.00000000  0.12615786       0.000
   0.42300001  0.00000000  0.12368419       0.000
   0.42300001  0.00000000  0.12121051       0.000
   0.42300001  0.00000000  0.11873683       0.000
   0.42300001  0.00000000  0.11626311       0.000
   0.42300001  0.00000000  0.11378946       0.000
   0.42300001  0.00000000  0.11131575       0.000
   0.42300001  0.00000000  0.10884210       0.000
   0.42300001  0.00000000  0.10636842       0.000
   0.42300001  0.00000000  0.10389470       0.000
   0.42300001  0.00000000  0.10142105       0.000
   0.42300001  0.00000000  0.09894734       0.000
   0.42300001  0.00000000  0.09647369       0.000
   0.42300001  0.00000000  0.09399997       0.000
   0.42300001  0.00000000  0.09152629       0.000
   0.42300001  0.00000000  0.08905261       0.000
   0.42300001  0.00000000  0.08657893       0.000
   0.42300001  0.00000000  0.08410525       0.000
   0.42300001  0.00000000  0.08163156       0.000
   0.42300001  0.00000000  0.07915785       0.000
   0.42300001  0.00000000  0.07668420       0.000
   0.42300001  0.00000000  0.07421049       0.000
   0.42300001  0.00000000  0.07173683       0.000
   0.42300001  0.00000000  0.06926315       0.000
   0.42300001  0.00000000  0.06678944       0.000
   0.42300001  0.00000000  0.06431579       0.000
   0.42300001  0.00000000  0.06184208       0.000
   0.42300001  0.00000000  0.05936842       0.000
   0.42300001  0.00000000  0.05689471       0.000
   0.42300001  0.00000000  0.05442103       0.000
   0.42300001  0.00000000  0.05194735       0.000
   0.42300001  0.00000000  0.04947367       0.000
   0.42300001  0.00000000  0.04699998       0.000
   0.42300001  0.00000000  0.04452630       0.000
   0.42300001  0.00000000  0.04205259       0.000
   0.42300001  0.00000000  0.03957894       0.000
   0.42300001  0.00000000  0.03710523       0.000
   0.42300001  0.00000000  0.03463157       0.000
   0.42300001  0.00000000  0.03215786       0.000
   0.42300001  0.00000000  0.02968418       0.000
   0.42300001  0.00000000  0.02721053       0.000
   0.42300001  0.00000000  0.02473681       0.000
   0.42300001  0.00000000  0.02226316       0.000
   0.42300001  0.00000000  0.01978945       0.000
   0.42300001  0.00000000  0.01731577       0.000
   0.42300001  0.00000000  0.01484209       0.000
   0.42300001  0.00000000  0.01236840       0.000
   0.42300001  0.00000000  0.00989472       0.000
   0.42300001  0.00000000  0.00742104       0.000
   0.42300001  0.00000000  0.00494733       0.000
   0.42300001  0.00000000  0.00247367       0.000
   0.42300001  0.00000000 -0.00000004       0.000
   0.42300001  0.00000000  0.00247368       0.000
   0.42300001  0.00000000  0.00494737       0.000
   0.42300001  0.00000000  0.00742105       0.000
   0.42300001  0.00000000  0.00989474       0.000
   0.42300001  0.00000000  0.01236842       0.000
   0.42300001  0.00000000  0.01484211       0.000
   0.42300001  0.00000000  0.01731579       0.000
   0.42300001  0.00000000  0.01978947       0.000
   0.42300001  0.00000000  0.02226316       0.000
   0.42300001  0.00000000  0.02473684       0.000
   0.42300001  0.00000000  0.02721053       0.000
   0.42300001  0.00000000  0.02968421       0.000
   0.42300001  0.00000000  0.03215790       0.000
   0.42300001  0.00000000  0.03463158       0.000
   0.42300001  0.00000000  0.03710527       0.000
   0.42300001  0.00000000  0.03957895       0.000
   0.42300001  0.00000000  0.04205263       0.000
   0.42300001  0.00000000  0.04452632       0.000
   0.42300001  0.00000000  0.04700000       0.000
   0.42300001  0.00000000  0.04947368       0.000
   0.42300001  0.00000000  0.05194737       0.000
   0.42300001  0.00000000  0.05442106       0.000
   0.42300001  0.00000000  0.05689474       0.000
   0.42300001  0.00000000  0.05936843       0.000
   0.42300001  0.00000000  0.06184211       0.000
   0.42300001  0.00000000  0.06431580       0.000
   0.42300001  0.00000000  0.06678948       0.000
   0.42300001  0.00000000  0.06926316       0.000
   0.42300001  0.00000000  0.07173685       0.000
   0.42300001  0.00000000  0.07421053       0.000
   0.42300001  0.00000000  0.07668422       0.000
   0.42300001  0.00000000  0.07915790       0.000
   0.42300001  0.00000000  0.08163158       0.000
   0.42300001  0.00000000  0.08410527       0.000
   0.42300001  0.00000000  0.08657895       0.000
   0.42300001  0.00000000  0.08905264       0.000
   0.42300001  0.00000000  0.09152632       0.000
   0.42300001  0.00000000  0.09400000       0.000
   0.42300001  0.00000000  0.09647369       0.000
   0.42300001  0.00000000  0.09894737       0.000
   0.42300001  0.00000000  0.10142106       0.000
   0.42300001  0.00000000  0.10389474       0.000
   0.42300001  0.00000000  0.10636842       0.000
   0.42300001  0.00000000  0.10884211       0.000
   0.42300001  0.00000000  0.11131579       0.000
   0.42300001  0.00000000  0.11378948       0.000
   0.42300001  0.00000000  0.11626317       0.000
   0.42300001  0.00000000  0.11873686       0.000
   0.42300001  0.00000000  0.12121054       0.000
   0.42300001  0.00000000  0.12368421       0.000
   0.42300001  0.00000000  0.12615791       0.000
   0.42300001  0.00000000  0.12863159       0.000
   0.42300001  0.00000000  0.13110527       0.000
   0.42300001  0.00000000  0.13357896       0.000
   0.42300001  0.00000000  0.13605264       0.000
   0.42300001  0.00000000  0.13852632       0.000
   0.42300001  0.00000000  0.14100000       0.000
   0.42300001  0.00000000  0.14347370       0.000
   0.42300001  0.00000000  0.14594738       0.000
   0.42300001  0.00000000  0.14842106       0.000
   0.42300001  0.00000000  0.15089475       0.000
   0.42300001  0.00000000  0.15336844       0.000
   0.42300001  0.00000000  0.15584213       0.000
   0.42300001  0.00000000  0.15831579       0.000
   0.42300001  0.00000000  0.16078947       0.000
   0.42300001  0.00000000  0.16326316       0.000
   0.42300001  0.00000000  0.16573685       0.000
   0.42300001  0.00000000  0.16821054       0.000
   0.42300001  0.00000000  0.17068422       0.000
   0.42300001  0.00000000  0.17315790       0.000
   0.42300001  0.00000000  0.17563158       0.000
   0.42300001  0.00000000  0.17810528       0.000
   0.42300001  0.00000000  0.18057896       0.000
   0.42300001  0.00000000  0.18305264       0.000
   0.42300001  0.00000000  0.18552633       0.000
   0.42300001  0.00000000  0.18800001       0.000
   0.42300001  0.00000000  0.19047371       0.000
   0.42300001  0.00000000  0.19294739       0.000
   0.42300001  0.00000000  0.19542107       0.000
   0.42300001  0.00000000  0.19789474       0.000
   0.42300001  0.00000000  0.20036842       0.000
   0.42300001  0.00000000  0.20284212       0.000
   0.42300001  0.00000000  0.20531580       0.000
   0.42300001  0.00000000  0.20778948       0.000
   0.42300001  0.00000000  0.21026316       0.000
   0.42300001  0.00000000  0.21273685       0.000
   0.42300001  0.00000000  0.21521054       0.000
   0.42300001  0.00000000  0.21768422       0.000
   0.42300001  0.00000000  0.22015791       0.000
   0.42300001  0.00000000  0.22263159       0.000
   0.42300001  0.00000000  0.22510527       0.000
   0.42300001  0.00000000  0.22757897       0.000
   0.42300001  0.00000000  0.23005265       0.000
   0.42300001  0.00000000  0.23252633       0.000
   0.42300001  0.00000000  0.23500001       0.000
   0.42300001  0.00000000  0.23747371       0.000
[...]
      6       9.0977      0.00000
      7       9.1347      0.00000
      8      13.3663      0.00000

 k-point   697 :       0.4230    0.4158    0.4230
  band No.  band energies     occupation 
      1      -4.1528      2.00000
      2      -0.7496      2.00000
      3       4.6134      2.00000
      4       4.6309      2.00000
      5       7.2602      0.00000
      6       9.1017      0.00000
      7       9.1278      0.00000
      8      13.3638      0.00000

 k-point   698 :       0.4230    0.4183    0.4230
  band No.  band energies     occupation 
      1      -4.1476      2.00000
      2      -0.7585      2.00000
      3       4.6171      2.00000
      4       4.6295      2.00000
      5       7.2560      0.00000
      6       9.1053      0.00000
      7       9.1215      0.00000
      8      13.3614      0.00000

 k-point   699 :       0.4230    0.4208    0.4230
  band No.  band energies     occupation 
      1      -4.1423      2.00000
      2      -0.7673      2.00000
      3       4.6204      2.00000
      4       4.6267      2.00000
      5       7.2530      0.00000
      6       9.1087      0.00000
      7       9.1159      0.00000
      8      13.3594      0.00000

 k-point   700 :       0.4230    0.4233    0.4230
  band No.  band energies     occupation 
      1      -4.1369      2.00000
      2      -0.7759      2.00000
      3       4.6226      2.00000
      4       4.6234      2.00000
      5       7.2515      0.00000
      6       9.1108      0.00000
      7       9.1117      0.00000
      8      13.3578      0.00000

 k-point   701 :       0.4230    0.4257    0.4230
  band No.  band energies     occupation 
      1      -4.1314      2.00000
      2      -0.7844      2.00000
      3       4.6171      2.00000
      4       4.6260      2.00000
      5       7.2512      0.00000
      6       9.1065      0.00000
      7       9.1143      0.00000
      8      13.3566      0.00000

 k-point   702 :       0.4230    0.4282    0.4230
  band No.  band energies     occupation 
      1      -4.1258      2.00000
      2      -0.7927      2.00000
      3       4.6103      2.00000
      4       4.6283      2.00000
      5       7.2523      0.00000
      6       9.1027      0.00000
      7       9.1166      0.00000
      8      13.3558      0.00000

 k-point   703 :       0.4230    0.4307    0.4230
  band No.  band energies     occupation 
      1      -4.1201      2.00000
      2      -0.8009      2.00000
      3       4.6022      2.00000
      4       4.6303      2.00000
      5       7.2547      0.00000
      6       9.0996      0.00000
      7       9.1185      0.00000
      8      13.3556      0.00000

 k-point   704 :       0.4230    0.4332    0.4230
  band No.  band energies     occupation 
      1      -4.1143      2.00000
      2      -0.8090      2.00000
      3       4.5928      2.00000
      4       4.6320      2.00000
      5       7.2585      0.00000
      6       9.0972      0.00000
      7       9.1201      0.00000
      8      13.3559      0.00000

 k-point   705 :       0.4230    0.4356    0.4230
  band No.  band energies     occupation 
      1      -4.1083      2.00000
      2      -0.8169      2.00000
      3       4.5821      2.00000
      4       4.6333      2.00000
      5       7.2635      0.00000
      6       9.0954      0.00000
      7       9.1213      0.00000
      8      13.3568      0.00000

 k-point   706 :       0.4230    0.4381    0.4230
  band No.  band energies     occupation 
      1      -4.1023      2.00000
      2      -0.8247      2.00000
      3       4.5701      2.00000
      4       4.6342      2.00000
      5       7.2698      0.00000
      6       9.0942      0.00000
      7       9.1222      0.00000
      8      13.3582      0.00000

 k-point   707 :       0.4230    0.4406    0.4230
  band No.  band energies     occupation 
      1      -4.0961      2.00000
      2      -0.8323      2.00000
      3       4.5570      2.00000
      4       4.6349      2.00000
      5       7.2773      0.00000
      6       9.0937      0.00000
      7       9.1227      0.00000
      8      13.3602      0.00000

 k-point   708 :       0.4230    0.4431    0.4230
  band No.  band energies     occupation 
      1      -4.0898      2.00000
      2      -0.8398      2.00000
      3       4.5426      2.00000
      4       4.6351      2.00000
      5       7.2859      0.00000
      6       9.0938      0.00000
      7       9.1229      0.00000
      8      13.3629      0.00000

 k-point   709 :       0.4230    0.4455    0.4230
  band No.  band energies     occupation 
      1      -4.0834      2.00000
      2      -0.8471      2.00000
      3       4.5271      2.00000
      4       4.6351      2.00000
      5       7.2958      0.00000
      6       9.0946      0.00000
      7       9.1228      0.00000
      8      13.3661      0.00000

 k-point   710 :       0.4230    0.4480    0.4230
  band No.  band energies     occupation 
      1      -4.0769      2.00000
      2      -0.8543      2.00000
      3       4.5105      2.00000
      4       4.6347      2.00000
      5       7.3067      0.00000
      6       9.0960      0.00000
      7       9.1223      0.00000
      8      13.3700      0.00000

 k-point   711 :       0.4230    0.4505    0.4230
  band No.  band energies     occupation 
      1      -4.0704      2.00000
      2      -0.8614      2.00000
      3       4.4928      2.00000
      4       4.6339      2.00000
      5       7.3187      0.00000
      6       9.0981      0.00000
      7       9.1216      0.00000
      8      13.3745      0.00000

 k-point   712 :       0.4230    0.4530    0.4230
  band No.  band energies     occupation 
      1      -4.0637      2.00000
      2      -0.8683      2.00000
      3       4.4740      2.00000
      4       4.6328      2.00000
      5       7.3317      0.00000
      6       9.1008      0.00000
      7       9.1205      0.00000
      8      13.3796      0.00000

 k-point   713 :       0.4230    0.4554    0.4230
  band No.  band energies     occupation 
      1      -4.0568      2.00000
      2      -0.8751      2.00000
      3       4.4542      2.00000
      4       4.6314      2.00000
      5       7.3457      0.00000
      6       9.1042      0.00000
      7       9.1192      0.00000
      8      13.3853      0.00000

 k-point   714 :       0.4230    0.4579    0.4230
  band No.  band energies     occupation 
      1      -4.0499      2.00000
      2      -0.8817      2.00000
      3       4.4335      2.00000
      4       4.6296      2.00000
      5       7.3606      0.00000
      6       9.1082      0.00000
      7       9.1176      0.00000
      8      13.3917      0.00000

 k-point   715 :       0.4230    0.4604    0.4230
  band No.  band energies     occupation 
      1      -4.0429      2.00000
      2      -0.8882      2.00000
      3       4.4119      2.00000
      4       4.6275      2.00000
      5       7.3763      0.00000
      6       9.1129      0.00000
      7       9.1157      0.00000
      8      13.3986      0.00000

 k-point   716 :       0.4230    0.4629    0.4230
  band No.  band energies     occupation 
      1      -4.0358      2.00000
      2      -0.8945      2.00000
      3       4.3894      2.00000
      4       4.6251      2.00000
      5       7.3929      0.00000
      6       9.1137      0.00000
      7       9.1182      0.00000
      8      13.4061      0.00000

 k-point   717 :       0.4230    0.4653    0.4230
  band No.  band energies     occupation 
      1      -4.0286      2.00000
      2      -0.9007      2.00000
      3       4.3660      2.00000
      4       4.6223      2.00000
      5       7.4102      0.00000
      6       9.1114      0.00000
      7       9.1241      0.00000
      8      13.4142      0.00000

 k-point   718 :       0.4230    0.4678    0.4230
  band No.  band energies     occupation 
      1      -4.0213      2.00000
      2      -0.9067      2.00000
      3       4.3419      2.00000
      4       4.6192      2.00000
      5       7.4281      0.00000
      6       9.1090      0.00000
      7       9.1307      0.00000
      8      13.4229      0.00000

 k-point   719 :       0.4230    0.4703    0.4230
  band No.  band energies     occupation 
      1      -4.0139      2.00000
      2      -0.9126      2.00000
      3       4.3170      2.00000
      4       4.6158      2.00000
      5       7.4467      0.00000
      6       9.1065      0.00000
      7       9.1379      0.00000
      8      13.4322      0.00000

 k-point   720 :       0.4230    0.4728    0.4230
  band No.  band energies     occupation 
      1      -4.0064      2.00000
      2      -0.9183      2.00000
      3       4.2914      2.00000
      4       4.6121      2.00000
      5       7.4659      0.00000
      6       9.1038      0.00000
      7       9.1457      0.00000
      8      13.4420      0.00000

 k-point   721 :       0.4230    0.4752    0.4230
  band No.  band energies     occupation 
      1      -3.9987      2.00000
      2      -0.9239      2.00000
      3       4.2652      2.00000
      4       4.6080      2.00000
      5       7.4855      0.00000
      6       9.1011      0.00000
      7       9.1542      0.00000
      8      13.4523      0.00000

 k-point   722 :       0.4230    0.4777    0.4230
  band No.  band energies     occupation 
      1      -3.9910      2.00000
      2      -0.9293      2.00000
      3       4.2383      2.00000
      4       4.6036      2.00000
      5       7.5056      0.00000
      6       9.0983      0.00000
      7       9.1633      0.00000
      8      13.4632      0.00000

 k-point   723 :       0.4230    0.4802    0.4230
  band No.  band energies     occupation 
      1      -3.9832      2.00000
      2      -0.9346      2.00000
      3       4.2108      2.00000
      4       4.5989      2.00000
      5       7.5260      0.00000
      6       9.0956      0.00000
      7       9.1730      0.00000
      8      13.4745      0.00000

 k-point   724 :       0.4230    0.4827    0.4230
  band No.  band energies     occupation 
      1      -3.9753      2.00000
      2      -0.9397      2.00000
      3       4.1827      2.00000
      4       4.5939      2.00000
      5       7.5468      0.00000
      6       9.0929      0.00000
      7       9.1833      0.00000
      8      13.4863      0.00000

 k-point   725 :       0.4230    0.4851    0.4230
  band No.  band energies     occupation 
      1      -3.9673      2.00000
      2      -0.9447      2.00000
      3       4.1541      2.00000
      4       4.5886      2.00000
      5       7.5678      0.00000
      6       9.0903      0.00000
      7       9.1943      0.00000
      8      13.4986      0.00000

 k-point   726 :       0.4230    0.4876    0.4230
  band No.  band energies     occupation 
      1      -3.9592      2.00000
      2      -0.9495      2.00000
      3       4.1251      2.00000
      4       4.5830      2.00000
      5       7.5890      0.00000
      6       9.0878      0.00000
      7       9.2058      0.00000
      8      13.5113      0.00000

 k-point   727 :       0.4230    0.4901    0.4230
  band No.  band energies     occupation 
      1      -3.9510      2.00000
      2      -0.9542      2.00000
      3       4.0955      2.00000
      4       4.5771      2.00000
      5       7.6102      0.00000
      6       9.0855      0.00000
      7       9.2179      0.00000
      8      13.5244      0.00000

 k-point   728 :       0.4230    0.4926    0.4230
  band No.  band energies     occupation 
      1      -3.9427      2.00000
      2      -0.9588      2.00000
      3       4.0656      2.00000
      4       4.5710      2.00000
      5       7.6315      0.00000
      6       9.0835      0.00000
      7       9.2307      0.00000
      8      13.5379      0.00000

 k-point   729 :       0.4230    0.4950    0.4230
  band No.  band energies     occupation 
      1      -3.9343      2.00000
      2      -0.9632      2.00000
      3       4.0352      2.00000
      4       4.5645      2.00000
      5       7.6527      0.00000
      6       9.0818      0.00000
      7       9.2440      0.00000
      8      13.5517      0.00000

 k-point   730 :       0.4230    0.4975    0.4230
  band No.  band energies     occupation 
      1      -3.9259      2.00000
      2      -0.9674      2.00000
      3       4.0045      2.00000
      4       4.5578      2.00000
      5       7.6738      0.00000
      6       9.0805      0.00000
      7       9.2579      0.00000
      8      13.5658      0.00000


--------------------------------------------------------------------------------------------------------


 soft charge-density along one line, spin component           1
         0         1         2         3         4         5         6         7         8         9
 total charge-density along one line
 
 pseudopotential strength for first ion, spin component:           1
 19.451  -0.001   0.000  -0.000   0.000  -0.000   0.000  -0.000
 -0.001   0.006  -0.000   0.000  -0.000   0.000  -0.000   0.000
  0.000  -0.000   4.361   0.000  -0.000  -0.005  -0.000   0.000
 -0.000   0.000   0.000   4.361   0.000  -0.000  -0.005  -0.000
  0.000  -0.000  -0.000   0.000   4.361   0.000  -0.000  -0.005
 -0.000   0.000  -0.005  -0.000   0.000   0.005   0.000  -0.000
  0.000  -0.000  -0.000  -0.005  -0.000   0.000   0.005   0.000
 -0.000   0.000   0.000  -0.000  -0.005  -0.000   0.000   0.005
 total augmentation occupancy for first ion, spin component:           1
  2.000   0.000   0.000   0.000   0.000   0.000   0.000   0.000
  0.000   0.000   0.000   0.000   0.000   0.000   0.000   0.000
  0.000   0.000   0.667   0.000   0.000   0.000   0.000   0.000
  0.000   0.000   0.000   0.667   0.000   0.000   0.000   0.000
  0.000   0.000   0.000   0.000   0.667   0.000   0.000   0.000
  0.000   0.000   0.000   0.000   0.000   0.000   0.000   0.000
  0.000   0.000   0.000   0.000   0.000   0.000   0.000   0.000
  0.000   0.000   0.000   0.000   0.000   0.000   0.000   0.000


------------------------ aborting loop because EDIFF is reached ----------------------------------------


 


 total charge     
 
# of ion     s       p       d       tot
----------------------------------------
  1        0.752   0.957   0.000   1.709
  2        0.752   0.957   0.000   1.709
------------------------------------------------
tot        1.504   1.913   0.000   3.417
 
    CHARGE:  cpu time    0.0080: real time    0.0051
    FORLOC:  cpu time    0.0000: real time    0.0002
    FORNL :  cpu time    0.0160: real time    0.0182
    STRESS:  cpu time    0.2440: real time    0.2457
    FORCOR:  cpu time    0.0000: real time    0.0014
    FORHAR:  cpu time    0.0000: real time    0.0010
    OFIELD:  cpu time    0.0040: real time    0.0000

  FORCE on cell =-STRESS in cart. coord.  units (eV):
  Direction    XX          YY          ZZ          XY          YZ          ZX
  --------------------------------------------------------------------------------------
  Alpha Z     2.36771     2.36771     2.36771
  Ewald     -76.17385   -76.17385   -76.17385     0.00000     0.00000    -0.00000
  Hartree     5.02913     5.02913     5.02913     0.00000    -0.00000    -0.00000
  E(xc)     -25.95274   -25.95274   -25.95274    -0.00000     0.00000     0.00000
  Local     -30.65647   -30.65647   -30.65647     0.00001    -0.00001    -0.00001
  n-local    76.60510    82.56201    81.76108    -1.19414    -2.67699    -0.77691
  augment   -12.49287   -12.49287   -12.49287    -0.00001     0.00001     0.00001
  Kinetic    55.69959    57.65130    59.30500    -0.96127    -3.76950    -0.97046
  Fock        0.00000     0.00000     0.00000     0.00000     0.00000     0.00000
  -------------------------------------------------------------------------------------
  Total      -0.01772    -0.01772    -0.01772     0.00000     0.00000    -0.00000
  in kB      -0.70908    -0.70908    -0.70908     0.00000     0.00000    -0.00000
  external pressure =       -0.71 kB  Pullay stress =        0.00 kB


 VOLUME and BASIS-vectors are now :
 -----------------------------------------------------------------------------
  energy-cutoff  :      500.00
  volume of cell :       40.05
      direct lattice vectors                 reciprocal lattice vectors
     2.715500000  2.715500000  0.000000000     0.184128153  0.184128153  0.184128153
     2.715500000  0.000000000 -2.715500000     0.184128153 -0.184128153 -0.184128153
     0.000000000  2.715500000 -2.715500000    -0.184128153  0.184128153 -0.184128153

  length of vectors
     3.840296929  3.840296929  3.840296929     0.318919316  0.318919316  0.318919316


 FORCES acting on ions
    electron-ion (+dipol)            ewald-force                    non-local-force                 convergence-correction
 -----------------------------------------------------------------------------------------------
   -.809E-08 -.448E-08 0.449E-08   -.923E-14 -.515E-14 0.930E-14   0.121E-15 0.104E-15 -.111E-15   -.187E-09 -.187E-09 0.187E-09
   0.809E-08 0.449E-08 -.449E-08   0.907E-14 0.563E-14 -.939E-14   -.132E-15 -.971E-16 0.125E-15   0.187E-09 0.187E-09 -.187E-09
 -----------------------------------------------------------------------------------------------
   -.164E-13 0.410E-13 -.110E-12   -.164E-15 0.474E-15 -.970E-16   -.104E-16 0.694E-17 0.139E-16   0.538E-14 0.288E-14 0.400E-14
 
 
 POSITION                                       TOTAL-FORCE (eV/Angst)
 -----------------------------------------------------------------------------------
      0.00000      0.00000      0.00000        -0.000000      0.000000      0.000000
      1.35775      1.35775     -1.35775         0.000000     -0.000000     -0.000000
 -----------------------------------------------------------------------------------
    total drift:                               -0.000000      0.000000     -0.000000


--------------------------------------------------------------------------------------------------------



  FREE ENERGIE OF THE ION-ELECTRON SYSTEM (eV)
  ---------------------------------------------------
  free  energy   TOTEN  =       -11.60407700 eV

  energy  without entropy=      -11.60407700  energy(sigma->0) =      -11.60407700
 


--------------------------------------------------------------------------------------------------------


    POTLOK:  cpu time    0.0000: real time    0.0032


--------------------------------------------------------------------------------------------------------




--------------------------------------------------------------------------------------------------------


 writing wavefunctions
     LOOP+:  cpu time    4.0963: real time    5.4962
    4ORBIT:  cpu time    0.0000: real time    0.0000
 


 total charge     
 
# of ion     s       p       d       tot
----------------------------------------
  1        0.752   0.957   0.000   1.709
  2        0.752   0.957   0.000   1.709
------------------------------------------------
tot        1.504   1.913   0.000   3.417
 

 total amount of memory used by VASP on root node    44139. kBytes
========================================================================

   base      :      30000. kBytes
   nonl-proj :       8602. kBytes
   fftplans  :        428. kBytes
   grid      :        621. kBytes
   one-center:          3. kBytes
   wavefun   :       4485. kBytes
 
  
  
 General timing and accounting informations for this job:
 ========================================================
  
                  Total CPU time used (sec):        7.964
                            User time (sec):        5.656
                          System time (sec):        2.308
                         Elapsed time (sec):       12.754
  
                   Maximum memory used (kb):       40740.
                   Average memory used (kb):           0.
  
                          Minor page faults:        10639
                          Major page faults:            0
                 Voluntary context switches:          910
