  96  96   0   0
  0.2080188E+02  0.1257760E-08  0.1245754E-08  0.1274818E-08  0.5000000E-15
  1.000000000000000E-004
  CAR 
 MAPbI3-Cubic                            
      8.91850204    -19.59856400  301      1.43277220      1.00000000
    -19.599  0.0000E+00  0.0000E+00
    -19.504  0.0000E+00  0.0000E+00
    -19.408  0.0000E+00  0.0000E+00
    -19.313  0.0000E+00  0.0000E+00
    -19.218  0.0000E+00  0.0000E+00
    -19.123  0.0000E+00  0.0000E+00
    -19.028  0.0000E+00  0.0000E+00
    -18.933  0.0000E+00  0.0000E+00
    -18.838  0.0000E+00  0.0000E+00
    -18.743  0.0000E+00  0.0000E+00
    -18.648  0.0000E+00  0.0000E+00
    -18.553  0.0000E+00  0.0000E+00
    -18.458  0.0000E+00  0.0000E+00
    -18.363  0.0000E+00  0.0000E+00
    -18.268  0.0000E+00  0.1600E+02
    -18.173  0.0000E+00  0.1600E+02
    -18.078  0.0000E+00  0.1600E+02
    -17.983  0.0000E+00  0.1600E+02
    -17.888  0.0000E+00  0.1600E+02
    -17.792  0.0000E+00  0.1600E+02
    -17.697  0.0000E+00  0.1600E+02
    -17.602  0.0000E+00  0.1600E+02
    -17.507  0.0000E+00  0.1600E+02
    -17.412  0.0000E+00  0.1600E+02
    -17.317  0.0000E+00  0.1600E+02
    -17.222  0.0000E+00  0.1600E+02
    -17.127  0.0000E+00  0.1600E+02
    -17.032  0.0000E+00  0.1600E+02
    -16.937  0.0000E+00  0.1600E+02
    -16.842  0.0000E+00  0.1600E+02
    -16.747  0.0000E+00  0.1600E+02
    -16.652  0.0000E+00  0.1600E+02
    -16.557  0.0000E+00  0.1600E+02
    -16.462  0.0000E+00  0.1600E+02
    -16.367  0.0000E+00  0.1600E+02
    -16.272  0.0000E+00  0.1600E+02
    -16.177  0.0000E+00  0.1600E+02
    -16.081  0.0000E+00  0.1600E+02
    -15.986  0.0000E+00  0.1600E+02
    -15.891  0.0000E+00  0.1600E+02
    -15.796  0.0000E+00  0.1600E+02
    -15.701  0.0000E+00  0.1600E+02
    -15.606  0.0000E+00  0.1600E+02
    -15.511  0.0000E+00  0.1600E+02
    -15.416  0.0000E+00  0.1600E+02
    -15.321  0.0000E+00  0.1600E+02
    -15.226  0.0000E+00  0.1600E+02
    -15.131  0.0000E+00  0.1600E+02
    -15.036  0.1663E-03  0.4800E+02
    -14.941  0.0000E+00  0.9600E+02
    -14.846  0.0000E+00  0.9600E+02
    -14.751  0.0000E+00  0.9600E+02
    -14.656  0.0000E+00  0.9600E+02
    -14.561  0.0000E+00  0.9600E+02
    -14.465  0.0000E+00  0.9600E+02
    -14.370  0.0000E+00  0.9600E+02
    -14.275  0.0000E+00  0.9600E+02
    -14.180  0.0000E+00  0.9600E+02
    -14.085  0.0000E+00  0.9600E+02
    -13.990  0.0000E+00  0.9600E+02
    -13.895  0.0000E+00  0.9600E+02
    -13.800  0.0000E+00  0.9600E+02
    -13.705  0.0000E+00  0.9600E+02
    -13.610  0.0000E+00  0.9600E+02
    -13.515  0.0000E+00  0.9600E+02
    -13.420  0.0000E+00  0.9600E+02
    -13.325  0.0000E+00  0.9600E+02
    -13.230  0.0000E+00  0.9600E+02
    -13.135  0.0000E+00  0.9600E+02
    -13.040  0.0000E+00  0.9600E+02
    -12.945  0.0000E+00  0.9600E+02
    -12.850  0.0000E+00  0.9600E+02
    -12.754  0.0000E+00  0.9600E+02
    -12.659  0.0000E+00  0.9600E+02
    -12.564  0.0000E+00  0.9600E+02
    -12.469  0.0000E+00  0.9600E+02
    -12.374  0.0000E+00  0.9600E+02
    -12.279  0.0000E+00  0.9600E+02
    -12.184  0.0000E+00  0.9600E+02
    -12.089  0.0000E+00  0.9600E+02
    -11.994  0.0000E+00  0.9600E+02
    -11.899  0.0000E+00  0.9600E+02
    -11.804  0.0000E+00  0.9600E+02
    -11.709  0.0000E+00  0.9600E+02
    -11.614  0.0000E+00  0.9600E+02
    -11.519  0.0000E+00  0.9600E+02
    -11.424  0.0000E+00  0.9600E+02
    -11.329  0.3820E+02  0.1076E+03
    -11.234  0.0000E+00  0.1120E+03
    -11.139  0.0000E+00  0.1120E+03
    -11.043  0.0000E+00  0.1120E+03
    -10.948  0.0000E+00  0.1120E+03
    -10.853  0.0000E+00  0.1120E+03
    -10.758  0.2243E-04  0.1133E+03
    -10.663  0.5840E+01  0.1160E+03
    -10.568  0.6969E+01  0.1218E+03
    -10.473  0.1043E+02  0.1279E+03
    -10.378  0.4514E-01  0.1291E+03
    -10.283  0.7520E-03  0.1366E+03
    -10.188  0.3133E+01  0.1418E+03
    -10.093  0.0000E+00  0.1442E+03
     -9.998  0.1504E+01  0.1543E+03
     -9.903  0.2120E-14  0.1596E+03
     -9.808  0.0000E+00  0.1600E+03
     -9.713  0.0000E+00  0.1600E+03
     -9.618  0.0000E+00  0.1600E+03
     -9.523  0.0000E+00  0.1600E+03
     -9.427  0.0000E+00  0.1600E+03
     -9.332  0.0000E+00  0.1600E+03
     -9.237  0.0000E+00  0.1600E+03
     -9.142  0.0000E+00  0.1600E+03
     -9.047  0.0000E+00  0.1600E+03
     -8.952  0.0000E+00  0.1600E+03
     -8.857  0.0000E+00  0.1600E+03
     -8.762  0.0000E+00  0.1600E+03
     -8.667  0.0000E+00  0.1600E+03
     -8.572  0.0000E+00  0.1600E+03
     -8.477  0.0000E+00  0.1600E+03
     -8.382  0.0000E+00  0.1600E+03
     -8.287  0.0000E+00  0.1600E+03
     -8.192  0.0000E+00  0.1600E+03
     -8.097  0.0000E+00  0.1600E+03
     -8.002  0.0000E+00  0.1600E+03
     -7.907  0.0000E+00  0.1600E+03
     -7.812  0.0000E+00  0.1600E+03
     -7.716  0.1676E+02  0.1733E+03
     -7.621  0.0000E+00  0.1920E+03
     -7.526  0.0000E+00  0.1920E+03
     -7.431  0.0000E+00  0.1920E+03
     -7.336  0.0000E+00  0.1920E+03
     -7.241  0.0000E+00  0.1920E+03
     -7.146  0.0000E+00  0.1920E+03
     -7.051  0.7793E+00  0.1921E+03
     -6.956  0.0000E+00  0.1921E+03
     -6.861  0.0000E+00  0.1925E+03
     -6.766  0.0000E+00  0.1934E+03
     -6.671  0.1559E+01  0.1941E+03
     -6.576  0.0000E+00  0.1944E+03
     -6.481  0.6608E+00  0.1964E+03
     -6.386  0.2566E+01  0.1985E+03
     -6.291  0.4676E+01  0.1996E+03
     -6.196  0.0000E+00  0.2009E+03
     -6.100  0.1252E+00  0.2031E+03
     -6.005  0.1558E+01  0.2046E+03
     -5.910  0.1431E+01  0.2062E+03
     -5.815  0.1194E+02  0.2133E+03
     -5.720  0.0000E+00  0.2226E+03
     -5.625  0.0000E+00  0.2235E+03
     -5.530  0.1559E+01  0.2239E+03
     -5.435  0.0000E+00  0.2239E+03
     -5.340  0.0000E+00  0.2240E+03
     -5.245  0.0000E+00  0.2240E+03
     -5.150  0.0000E+00  0.2240E+03
     -5.055  0.0000E+00  0.2240E+03
     -4.960  0.0000E+00  0.2240E+03
     -4.865  0.0000E+00  0.2240E+03
     -4.770  0.0000E+00  0.2240E+03
     -4.675  0.0000E+00  0.2240E+03
     -4.580  0.0000E+00  0.2240E+03
     -4.485  0.0000E+00  0.2240E+03
     -4.389  0.0000E+00  0.2240E+03
     -4.294  0.0000E+00  0.2240E+03
     -4.199  0.0000E+00  0.2240E+03
     -4.104  0.0000E+00  0.2240E+03
     -4.009  0.0000E+00  0.2240E+03
     -3.914  0.0000E+00  0.2240E+03
     -3.819  0.0000E+00  0.2240E+03
     -3.724  0.0000E+00  0.2240E+03
     -3.629  0.7370E+00  0.2241E+03
     -3.534  0.4487E+02  0.2462E+03
     -3.439  0.0000E+00  0.2560E+03
     -3.344  0.0000E+00  0.2560E+03
     -3.249  0.0000E+00  0.2560E+03
     -3.154  0.0000E+00  0.2560E+03
     -3.059  0.0000E+00  0.2560E+03
     -2.964  0.0000E+00  0.2560E+03
     -2.869  0.0000E+00  0.2560E+03
     -2.773  0.0000E+00  0.2560E+03
     -2.678  0.0000E+00  0.2560E+03
     -2.583  0.0000E+00  0.2560E+03
     -2.488  0.0000E+00  0.2560E+03
     -2.393  0.0000E+00  0.2560E+03
     -2.298  0.0000E+00  0.2560E+03
     -2.203  0.0000E+00  0.2560E+03
     -2.108  0.1175E+01  0.2562E+03
     -2.013  0.1990E+01  0.2587E+03
     -1.918  0.3769E+00  0.2616E+03
     -1.823  0.6861E-01  0.2636E+03
     -1.728  0.4591E+01  0.2663E+03
     -1.633  0.3117E+01  0.2689E+03
     -1.538  0.1559E+01  0.2726E+03
     -1.443  0.3122E+01  0.2760E+03
     -1.348  0.1481E+01  0.2788E+03
     -1.253  0.3117E+01  0.2799E+03
     -1.158  0.0000E+00  0.2800E+03
     -1.062  0.0000E+00  0.2800E+03
     -0.967  0.2932E+01  0.2812E+03
     -0.872  0.1467E-05  0.2850E+03
     -0.777  0.6231E+01  0.2924E+03
     -0.682  0.7765E+01  0.2981E+03
     -0.587  0.1565E+01  0.3027E+03
     -0.492  0.2829E-09  0.3057E+03
     -0.397  0.7746E+01  0.3098E+03
     -0.302  0.2375E+01  0.3144E+03
     -0.207  0.7382E+01  0.3211E+03
     -0.112  0.1011E+02  0.3287E+03
     -0.017  0.2686E+01  0.3339E+03
      0.078  0.7500E+01  0.3404E+03
      0.173  0.5705E+01  0.3483E+03
      0.268  0.1180E+02  0.3579E+03
      0.363  0.8199E+01  0.3647E+03
      0.458  0.7766E+01  0.3719E+03
      0.553  0.2715E+01  0.3815E+03
      0.649  0.1169E+02  0.3876E+03
      0.744  0.5736E+00  0.3926E+03
      0.839  0.0000E+00  0.3960E+03
      0.934  0.0000E+00  0.3975E+03
      1.029  0.3117E+01  0.3991E+03
      1.124  0.0000E+00  0.3993E+03
      1.219  0.0000E+00  0.3998E+03
      1.314  0.0000E+00  0.3999E+03
      1.409  0.0000E+00  0.4000E+03
      1.504  0.0000E+00  0.4000E+03
      1.599  0.0000E+00  0.4000E+03
      1.694  0.0000E+00  0.4000E+03
      1.789  0.0000E+00  0.4000E+03
      1.884  0.0000E+00  0.4000E+03
      1.979  0.0000E+00  0.4000E+03
      2.074  0.0000E+00  0.4000E+03
      2.169  0.0000E+00  0.4000E+03
      2.265  0.0000E+00  0.4000E+03
      2.360  0.0000E+00  0.4000E+03
      2.455  0.0000E+00  0.4000E+03
      2.550  0.0000E+00  0.4000E+03
      2.645  0.0000E+00  0.4000E+03
      2.740  0.0000E+00  0.4000E+03
      2.835  0.0000E+00  0.4000E+03
      2.930  0.0000E+00  0.4000E+03
      3.025  0.4299E-11  0.4005E+03
      3.120  0.0000E+00  0.4007E+03
      3.215  0.6401E+01  0.4020E+03
      3.310  0.1555E+01  0.4030E+03
      3.405  0.3117E+01  0.4041E+03
      3.500  0.2335E+01  0.4059E+03
      3.595  0.0000E+00  0.4067E+03
      3.690  0.0000E+00  0.4077E+03
      3.785  0.0000E+00  0.4083E+03
      3.880  0.0000E+00  0.4093E+03
      3.976  0.1527E-01  0.4101E+03
      4.071  0.3117E+01  0.4116E+03
      4.166  0.1561E+01  0.4136E+03
      4.261  0.0000E+00  0.4151E+03
      4.356  0.3266E+01  0.4172E+03
      4.451  0.1507E+01  0.4201E+03
      4.546  0.0000E+00  0.4227E+03
      4.641  0.0000E+00  0.4239E+03
      4.736  0.5221E-05  0.4239E+03
      4.831  0.0000E+00  0.4240E+03
      4.926  0.0000E+00  0.4240E+03
      5.021  0.0000E+00  0.4241E+03
      5.116  0.0000E+00  0.4242E+03
      5.211  0.1559E+01  0.4247E+03
      5.306  0.3378E+01  0.4266E+03
      5.401  0.1559E+01  0.4289E+03
      5.496  0.7792E+01  0.4319E+03
      5.592  0.3119E+01  0.4361E+03
      5.687  0.0000E+00  0.4381E+03
      5.782  0.7793E+00  0.4410E+03
      5.877  0.3896E+01  0.4426E+03
      5.972  0.4576E+01  0.4458E+03
      6.067  0.3117E+01  0.4495E+03
      6.162  0.7323E+01  0.4534E+03
      6.257  0.1562E+01  0.4583E+03
      6.352  0.3117E+01  0.4616E+03
      6.447  0.5590E+01  0.4655E+03
      6.542  0.8063E+01  0.4717E+03
      6.637  0.9978E+01  0.4756E+03
      6.732  0.2322E+01  0.4790E+03
      6.827  0.4589E+01  0.4823E+03
      6.922  0.4367E+01  0.4863E+03
      7.017  0.3168E+01  0.4900E+03
      7.112  0.3930E+01  0.4936E+03
      7.207  0.1559E+01  0.4982E+03
      7.303  0.6250E+01  0.5029E+03
      7.398  0.6234E+01  0.5062E+03
      7.493  0.2683E+01  0.5095E+03
      7.588  0.0000E+00  0.5119E+03
      7.683  0.0000E+00  0.5120E+03
      7.778  0.0000E+00  0.5120E+03
      7.873  0.0000E+00  0.5120E+03
      7.968  0.0000E+00  0.5120E+03
      8.063  0.0000E+00  0.5120E+03
      8.158  0.0000E+00  0.5120E+03
      8.253  0.0000E+00  0.5120E+03
      8.348  0.0000E+00  0.5120E+03
      8.443  0.0000E+00  0.5120E+03
      8.538  0.0000E+00  0.5120E+03
      8.633  0.0000E+00  0.5120E+03
      8.728  0.0000E+00  0.5120E+03
      8.823  0.0000E+00  0.5120E+03
      8.919  0.0000E+00  0.5120E+03
