 running on   24 total cores
 distrk:  each k-point on   24 cores,    1 groups
 distr:  one band on    3 cores,    8 groups
 using from now: INCAR     
 vasp.5.4.1 24Jun15 (build Nov 25 2015 16:01:35) complex                        
  
 POSCAR found type information on POSCAR  C  N  H  Pb I 
 POSCAR found :  5 types and      96 ions
 scaLAPACK will be used

 ----------------------------------------------------------------------------- 
|                                                                             |
|  ADVICE TO THIS USER RUNNING 'VASP/VAMP'   (HEAR YOUR MASTER'S VOICE ...):  |
|                                                                             |
|      You have a (more or less) 'large supercell' and for larger cells       |
|      it might be more efficient to use real space projection opertators     |
|      So try LREAL= Auto  in the INCAR   file.                               |
|      Mind: At the moment your POTCAR file does not contain real space       |
|       projectors, and has to be modified,  BUT if you                       |
|      want to do an extremely  accurate calculation you might also keep the  |
|      reciprocal projection scheme          (i.e. LREAL=.FALSE.)             |
|                                                                             |
 ----------------------------------------------------------------------------- 


 ----------------------------------------------------------------------------- 
|                                                                             |
|  ADVICE TO THIS USER RUNNING 'VASP/VAMP'   (HEAR YOUR MASTER'S VOICE ...):  |
|                                                                             |
|      You enforced a specific xc-type in the INCAR file,                     |
|      a different type was found on the POTCAR file                          |
|          I HOPE YOU KNOW, WHAT YOU ARE  DOING                               |
|                                                                             |
 ----------------------------------------------------------------------------- 

 LDA part: xc-table for Pade appr. of Perdew
 POSCAR, INCAR and KPOINTS ok, starting setup
 WARNING: small aliasing (wrap around) errors must be expected
 FFT: planning ...
 WAVECAR not read
 entering main loop
       N       E                     dE             d eps       ncg     rms          rms(c)
DAV:   1     0.360291991092E+04    0.36029E+04   -0.18949E+05  7176   0.170E+03
DAV:   2     0.198793739232E+03   -0.34041E+04   -0.32092E+04  8000   0.355E+02
DAV:   3    -0.398889758300E+03   -0.59768E+03   -0.58908E+03  9488   0.172E+02
DAV:   4    -0.438716408485E+03   -0.39827E+02   -0.39656E+02  9584   0.488E+01
DAV:   5    -0.440208426148E+03   -0.14920E+01   -0.14899E+01  9752   0.918E+00    0.298E+01
DAV:   6    -0.419542100347E+03    0.20666E+02   -0.41786E+01  9440   0.103E+01    0.157E+01
DAV:   7    -0.417057490910E+03    0.24846E+01   -0.14657E+01 10208   0.638E+00    0.782E+00
DAV:   8    -0.416886820402E+03    0.17067E+00   -0.30318E+00  8584   0.317E+00    0.182E+00
DAV:   9    -0.416816136200E+03    0.70684E-01   -0.74580E-01  9424   0.174E+00    0.734E-01
DAV:  10    -0.416827705722E+03   -0.11570E-01   -0.10587E-01  8976   0.580E-01    0.443E-01
DAV:  11    -0.416827774786E+03   -0.69064E-04   -0.12352E-02  9888   0.263E-01    0.199E-01
DAV:  12    -0.416829161118E+03   -0.13863E-02   -0.97772E-03  9776   0.157E-01    0.112E-01
DAV:  13    -0.416829256884E+03   -0.95766E-04   -0.14915E-03  8496   0.806E-02    0.726E-02
DAV:  14    -0.416829302610E+03   -0.45726E-04   -0.27855E-04  8536   0.290E-02    0.323E-02
DAV:  15    -0.416829346289E+03   -0.43679E-04   -0.16483E-04  8144   0.210E-02    0.119E-02
DAV:  16    -0.416829350777E+03   -0.44885E-05   -0.17688E-05 10376   0.840E-03    0.125E-02
DAV:  17    -0.416829350554E+03    0.22317E-06   -0.49744E-06  8168   0.395E-03    0.539E-03
DAV:  18    -0.416829350493E+03    0.61362E-07   -0.90806E-06  9440   0.470E-03    0.399E-03
DAV:  19    -0.416829350424E+03    0.68761E-07   -0.93332E-07  7600   0.232E-03    0.226E-03
DAV:  20    -0.416829350446E+03   -0.22213E-07   -0.46448E-07  8488   0.108E-03    0.469E-04
DAV:  21    -0.416829350478E+03   -0.31887E-07   -0.39303E-08  6456   0.437E-04    0.425E-04
DAV:  22    -0.416829350475E+03    0.36089E-08   -0.83373E-09  4808   0.285E-04
   1 F= -.41682935E+03 E0= -.41682935E+03  d E =0.000000E+00
Application 22061039 resources: utime ~166989s, stime ~92s, Rss ~640292, inblocks ~184890, outblocks ~194552
