PROCAR new format
# of k-points:   76         # of bands:  28         # of ions:   2

 k-point    1 :    0.00000000 0.00000000 0.00000000     weight = 0.00462963

band   1 # energy   -8.99266581 # occ.  1.00000000
 
ion      s      p      d    tot
  1  0.063  0.000  0.000  0.063
  2  0.569  0.000  0.000  0.569
tot  0.632  0.000  0.000  0.632
  1  0.036  0.000  0.000  0.036
  2  0.329  0.000  0.000  0.329
tot  0.365  0.000  0.000  0.365
  1  0.036  0.000  0.000  0.036
  2  0.329  0.000  0.000  0.329
tot  0.365  0.000  0.000  0.365
  1  0.036  0.000  0.000  0.036
  2  0.328  0.000  0.000  0.328
tot  0.365  0.000  0.000  0.365
 
band   2 # energy   -8.99260449 # occ.  1.00000000
 
ion      s      p      d    tot
  1  0.063  0.000  0.000  0.063
  2  0.569  0.000  0.000  0.569
tot  0.632  0.000  0.000  0.632
  1 -0.036  0.000 -0.000 -0.036
  2 -0.329  0.000 -0.000 -0.329
tot -0.365  0.000 -0.000 -0.365
  1 -0.036  0.000  0.000 -0.036
  2 -0.329  0.000 -0.000 -0.329
tot -0.365  0.000 -0.000 -0.365
  1 -0.036  0.000  0.000 -0.036
  2 -0.328  0.000 -0.000 -0.328
tot -0.365  0.000  0.000 -0.365
 
band   3 # energy   -6.35998649 # occ.  1.00000000
 
ion      s      p      d    tot
  1  0.000  0.000  0.918  0.918
  2  0.000  0.013  0.001  0.014
tot  0.000  0.013  0.919  0.932
  1  0.000  0.000  0.368  0.368
  2  0.000  0.007  0.000  0.007
tot  0.000  0.007  0.368  0.376
  1  0.000  0.000  0.368  0.368
  2  0.000  0.007  0.000  0.007
tot  0.000  0.007  0.368  0.376
  1  0.000  0.000  0.380  0.380
  2  0.000  0.007  0.000  0.008
tot  0.000  0.008  0.380  0.388
 
band   4 # energy   -6.35997350 # occ.  1.00000000
 
ion      s      p      d    tot
  1  0.000  0.000  0.918  0.918
  2  0.000  0.013  0.001  0.014
tot  0.000  0.013  0.919  0.932
  1  0.000  0.000 -0.001 -0.001
  2  0.000  0.003 -0.000  0.003
tot  0.000  0.003 -0.001  0.002
  1  0.000  0.000 -0.000 -0.000
  2  0.000  0.003 -0.000  0.003
tot  0.000  0.003 -0.000  0.002
  1  0.000  0.000 -0.009 -0.009
  2  0.000  0.002 -0.000  0.002
tot  0.000  0.002 -0.009 -0.006
 
band   5 # energy   -6.35997225 # occ.  1.00000000
 
ion      s      p      d    tot
  1  0.000  0.000  0.918  0.918
  2  0.000  0.013  0.001  0.014
tot  0.000  0.013  0.919  0.932
  1 -0.000 -0.000  0.009  0.009
  2 -0.000 -0.002  0.000 -0.002
tot -0.000 -0.002  0.009  0.006
  1 -0.000 -0.000  0.008  0.008
  2 -0.000 -0.002  0.000 -0.002
tot -0.000 -0.003  0.008  0.006
  1 -0.000 -0.000 -0.007 -0.007
  2  0.000 -0.003  0.000 -0.003
tot -0.000 -0.003 -0.007 -0.009
 
band   6 # energy   -6.35996031 # occ.  1.00000000
 
ion      s      p      d    tot
  1  0.000  0.000  0.918  0.918
  2  0.000  0.013  0.001  0.014
tot  0.000  0.013  0.919  0.932
  1 -0.000 -0.000 -0.376 -0.376
  2 -0.000 -0.007 -0.000 -0.008
tot -0.000 -0.008 -0.376 -0.384
  1 -0.000 -0.000 -0.376 -0.376
  2 -0.000 -0.007 -0.000 -0.008
tot -0.000 -0.008 -0.376 -0.384
  1 -0.000 -0.000 -0.364 -0.364
  2 -0.000 -0.007 -0.000 -0.007
tot -0.000 -0.007 -0.364 -0.372
 
band   7 # energy   -5.81720566 # occ.  1.00000000
 
ion      s      p      d    tot
  1  0.000  0.001  0.893  0.893
  2  0.000  0.026  0.001  0.027
tot  0.000  0.027  0.893  0.920
  1 -0.000  0.000  0.172  0.172
  2 -0.000  0.005  0.000  0.005
tot -0.000  0.005  0.172  0.177
  1 -0.000  0.000  0.172  0.172
  2 -0.000  0.005  0.000  0.005
tot -0.000  0.005  0.172  0.177
  1 -0.000  0.000  0.171  0.171
  2  0.000  0.005  0.000  0.005
tot -0.000  0.005  0.172  0.177
 
band   8 # energy   -5.81719269 # occ.  1.00000000
 
ion      s      p      d    tot
  1  0.000  0.001  0.893  0.893
  2  0.000  0.026  0.001  0.027
tot  0.000  0.027  0.893  0.920
  1  0.000 -0.000 -0.172 -0.172
  2  0.000 -0.005 -0.000 -0.005
tot  0.000 -0.005 -0.172 -0.177
  1  0.000 -0.000 -0.172 -0.172
  2  0.000 -0.005 -0.000 -0.005
tot  0.000 -0.005 -0.172 -0.177
  1  0.000 -0.000 -0.171 -0.171
  2  0.000 -0.005 -0.000 -0.005
tot  0.000 -0.005 -0.172 -0.177
 
band   9 # energy   -5.60075351 # occ.  1.00000000
 
ion      s      p      d    tot
  1  0.000  0.000  0.935  0.935
  2  0.000  0.006  0.001  0.007
tot  0.000  0.006  0.936  0.942
  1 -0.000  0.000  0.395  0.395
  2  0.000  0.000  0.000  0.001
tot -0.000  0.000  0.395  0.395
  1 -0.000  0.000  0.395  0.395
  2  0.000  0.000  0.000  0.001
tot -0.000  0.000  0.395  0.395
  1  0.000 -0.000  0.371  0.371
  2  0.000 -0.000  0.000  0.000
tot  0.000 -0.000  0.372  0.372
 
band  10 # energy   -5.60075317 # occ.  1.00000000
 
ion      s      p      d    tot
  1  0.000  0.000  0.935  0.935
  2  0.000  0.006  0.001  0.007
tot  0.000  0.006  0.936  0.942
  1 -0.000 -0.000  0.360  0.360
  2  0.000 -0.001  0.000 -0.001
tot -0.000 -0.001  0.360  0.359
  1 -0.000 -0.000  0.360  0.360
  2 -0.000 -0.001  0.000 -0.001
tot -0.000 -0.001  0.360  0.359
  1 -0.000 -0.000  0.385  0.385
  2  0.000 -0.001  0.000 -0.000
tot -0.000 -0.001  0.385  0.384
 
band  11 # energy   -5.60073111 # occ.  1.00000000
 
ion      s      p      d    tot
  1  0.000  0.000  0.935  0.935
  2  0.000  0.006  0.001  0.007
tot  0.000  0.006  0.936  0.942
  1  0.000  0.000 -0.370 -0.370
  2  0.000  0.001 -0.000  0.001
tot  0.000  0.001 -0.371 -0.370
  1  0.000  0.000 -0.370 -0.370
  2 -0.000  0.001 -0.000  0.001
tot  0.000  0.001 -0.371 -0.370
  1  0.000  0.000 -0.364 -0.363
  2 -0.000  0.001 -0.000  0.001
tot  0.000  0.001 -0.364 -0.363
 
band  12 # energy   -5.60073040 # occ.  1.00000000
 
ion      s      p      d    tot
  1  0.000  0.000  0.935  0.935
  2  0.000  0.006  0.001  0.007
tot  0.000  0.006  0.936  0.942
  1  0.000 -0.000 -0.384 -0.384
  2  0.000 -0.000 -0.000 -0.000
tot  0.000 -0.000 -0.385 -0.385
  1  0.000 -0.000 -0.384 -0.384
  2  0.000 -0.000 -0.000 -0.000
tot  0.000 -0.000 -0.385 -0.385
  1 -0.000 -0.000 -0.393 -0.393
  2 -0.000 -0.000 -0.000 -0.001
tot -0.000 -0.000 -0.393 -0.393
 
band  13 # energy    1.64232516 # occ.  1.00000000
 
ion      s      p      d    tot
  1  0.000  0.027  0.088  0.115
  2  0.000  0.497  0.000  0.497
tot  0.000  0.524  0.088  0.612
  1 -0.000  0.005  0.017  0.022
  2 -0.000  0.096  0.000  0.096
tot -0.000  0.101  0.017  0.118
  1 -0.000  0.005  0.017  0.022
  2 -0.000  0.096  0.000  0.096
tot -0.000  0.101  0.017  0.118
  1  0.000  0.005  0.017  0.022
  2  0.000  0.096  0.000  0.096
tot  0.000  0.101  0.017  0.118
 
band  14 # energy    1.64235318 # occ.  1.00000000
 
ion      s      p      d    tot
  1  0.000  0.027  0.088  0.115
  2  0.000  0.497  0.000  0.497
tot  0.000  0.524  0.088  0.612
  1 -0.000 -0.005 -0.017 -0.022
  2 -0.000 -0.096 -0.000 -0.096
tot -0.000 -0.101 -0.017 -0.118
  1 -0.000 -0.005 -0.017 -0.022
  2 -0.000 -0.096 -0.000 -0.096
tot -0.000 -0.101 -0.017 -0.118
  1  0.000 -0.005 -0.017 -0.022
  2  0.000 -0.095 -0.000 -0.096
tot  0.000 -0.101 -0.017 -0.118
 
band  15 # energy    2.48202389 # occ.  1.00000000
 
ion      s      p      d    tot
  1  0.000  0.027  0.076  0.103
  2  0.000  0.493  0.001  0.493
tot  0.000  0.520  0.076  0.596
  1  0.000  0.016  0.044  0.059
  2  0.000  0.285  0.000  0.285
tot  0.000  0.300  0.044  0.344
  1  0.000  0.016  0.044  0.059
  2  0.000  0.285  0.000  0.285
tot  0.000  0.300  0.044  0.344
  1  0.000  0.016  0.044  0.059
  2  0.000  0.284  0.000  0.285
tot  0.000  0.300  0.044  0.344
 
band  16 # energy    2.48205426 # occ.  1.00000000
 
ion      s      p      d    tot
  1  0.000  0.027  0.076  0.103
  2  0.000  0.493  0.001  0.493
tot  0.000  0.520  0.076  0.596
  1  0.000  0.005  0.014  0.020
  2  0.000  0.095  0.000  0.095
tot  0.000  0.100  0.015  0.115
  1  0.000  0.005  0.014  0.020
  2  0.000  0.095  0.000  0.095
tot  0.000  0.100  0.015  0.115
  1  0.000  0.005  0.014  0.020
  2  0.000  0.095  0.000  0.095
tot  0.000  0.100  0.015  0.115
 
band  17 # energy    2.48208375 # occ.  1.00000000
 
ion      s      p      d    tot
  1  0.000  0.027  0.076  0.103
  2  0.000  0.493  0.001  0.493
tot  0.000  0.520  0.076  0.596
  1 -0.000 -0.005 -0.014 -0.020
  2 -0.000 -0.095 -0.000 -0.095
tot -0.000 -0.100 -0.015 -0.115
  1 -0.000 -0.005 -0.014 -0.020
  2 -0.000 -0.095 -0.000 -0.095
tot -0.000 -0.100 -0.015 -0.115
  1 -0.000 -0.005 -0.014 -0.020
  2 -0.000 -0.095 -0.000 -0.095
tot -0.000 -0.100 -0.015 -0.114
 
band  18 # energy    2.48211355 # occ.  1.00000000
 
ion      s      p      d    tot
  1  0.000  0.027  0.076  0.103
  2  0.000  0.493  0.001  0.493
tot  0.000  0.520  0.076  0.596
  1 -0.000 -0.016 -0.044 -0.059
  2 -0.000 -0.284 -0.000 -0.285
tot -0.000 -0.300 -0.044 -0.344
  1 -0.000 -0.016 -0.044 -0.059
  2 -0.000 -0.284 -0.000 -0.285
tot -0.000 -0.300 -0.044 -0.344
  1 -0.000 -0.016 -0.044 -0.059
  2 -0.000 -0.285 -0.000 -0.285
tot -0.000 -0.300 -0.044 -0.344
 
band  19 # energy    2.86784879 # occ.  0.00000000
 
ion      s      p      d    tot
  1  0.307  0.000  0.000  0.307
  2  0.240  0.000  0.000  0.240
tot  0.547  0.000  0.000  0.547
  1 -0.177  0.000 -0.000 -0.177
  2 -0.138 -0.000  0.000 -0.138
tot -0.315 -0.000 -0.000 -0.315
  1 -0.177 -0.000 -0.000 -0.177
  2 -0.138 -0.000  0.000 -0.138
tot -0.315 -0.000 -0.000 -0.315
  1 -0.178  0.000  0.000 -0.178
  2 -0.139  0.000  0.000 -0.139
tot -0.318  0.000  0.000 -0.318
 
band  20 # energy    2.86785709 # occ.  0.00000000
 
ion      s      p      d    tot
  1  0.307  0.000  0.000  0.307
  2  0.240  0.000  0.000  0.240
tot  0.547  0.000  0.000  0.547
  1  0.177 -0.000  0.000  0.177
  2  0.138  0.000 -0.000  0.138
tot  0.315  0.000  0.000  0.315
  1  0.177 -0.000  0.000  0.177
  2  0.138  0.000 -0.000  0.138
tot  0.315  0.000  0.000  0.315
  1  0.179  0.000  0.000  0.179
  2  0.139  0.000 -0.000  0.139
tot  0.318  0.000  0.000  0.318
 
band  21 # energy    6.52172514 # occ.  0.00000000
 
ion      s      p      d    tot
  1  0.000  0.259  0.001  0.260
  2  0.000  0.009  0.083  0.092
tot  0.000  0.268  0.084  0.352
  1 -0.000  0.050  0.000  0.050
  2 -0.000  0.002  0.016  0.018
tot -0.000  0.052  0.016  0.068
  1 -0.000  0.050  0.000  0.050
  2 -0.000  0.002  0.016  0.018
tot -0.000  0.052  0.016  0.068
  1 -0.000  0.050  0.000  0.050
  2 -0.000  0.002  0.016  0.018
tot -0.000  0.052  0.016  0.068
 
band  22 # energy    6.52174915 # occ.  0.00000000
 
ion      s      p      d    tot
  1  0.000  0.259  0.001  0.260
  2  0.000  0.009  0.083  0.092
tot  0.000  0.268  0.084  0.352
  1  0.000 -0.050 -0.000 -0.050
  2  0.000 -0.002 -0.016 -0.018
tot  0.000 -0.052 -0.016 -0.068
  1  0.000 -0.050 -0.000 -0.050
  2  0.000 -0.002 -0.016 -0.018
tot  0.000 -0.052 -0.016 -0.068
  1  0.000 -0.050 -0.000 -0.050
  2  0.000 -0.002 -0.016 -0.018
tot  0.000 -0.051 -0.016 -0.068
 
band  23 # energy    6.85675707 # occ.  0.00000000
 
ion      s      p      d    tot
  1  0.000  0.235  0.001  0.236
  2  0.000  0.008  0.097  0.104
tot  0.000  0.243  0.098  0.340
  1  0.000  0.136  0.001  0.136
  2  0.000  0.005  0.056  0.060
tot  0.000  0.140  0.056  0.197
  1  0.000  0.136  0.001  0.136
  2  0.000  0.005  0.056  0.060
tot  0.000  0.140  0.056  0.197
  1  0.000  0.135  0.001  0.135
  2  0.000  0.005  0.055  0.060
tot  0.000  0.139  0.056  0.195
 
band  24 # energy    6.85678136 # occ.  0.00000000
 
ion      s      p      d    tot
  1  0.000  0.235  0.001  0.236
  2  0.000  0.008  0.097  0.104
tot  0.000  0.243  0.098  0.340
  1  0.000  0.045  0.000  0.045
  2  0.000  0.001  0.018  0.020
tot  0.000  0.046  0.019  0.065
  1  0.000  0.045  0.000  0.045
  2  0.000  0.001  0.018  0.020
tot  0.000  0.046  0.019  0.065
  1  0.000  0.046  0.000  0.046
  2  0.000  0.002  0.019  0.020
tot  0.000  0.047  0.019  0.066
 
band  25 # energy    6.85680544 # occ.  0.00000000
 
ion      s      p      d    tot
  1  0.000  0.235  0.001  0.236
  2  0.000  0.008  0.097  0.104
tot  0.000  0.243  0.098  0.340
  1 -0.000 -0.046 -0.000 -0.046
  2 -0.000 -0.002 -0.019 -0.020
tot -0.000 -0.047 -0.019 -0.066
  1 -0.000 -0.046 -0.000 -0.046
  2 -0.000 -0.002 -0.019 -0.020
tot -0.000 -0.047 -0.019 -0.066
  1 -0.000 -0.044 -0.000 -0.045
  2 -0.000 -0.001 -0.018 -0.020
tot -0.000 -0.046 -0.018 -0.064
 
band  26 # energy    6.85682969 # occ.  0.00000000
 
ion      s      p      d    tot
  1  0.000  0.235  0.001  0.236
  2  0.000  0.008  0.097  0.104
tot  0.000  0.243  0.098  0.340
  1 -0.000 -0.135 -0.001 -0.136
  2 -0.000 -0.005 -0.056 -0.060
tot -0.000 -0.140 -0.056 -0.196
  1 -0.000 -0.135 -0.001 -0.136
  2 -0.000 -0.005 -0.056 -0.060
tot -0.000 -0.140 -0.056 -0.196
  1 -0.000 -0.136 -0.001 -0.137
  2 -0.000 -0.005 -0.056 -0.060
tot -0.000 -0.141 -0.056 -0.197
 
band  27 # energy    9.50137320 # occ.  0.00000000
 
ion      s      p      d    tot
  1  0.237  0.000  0.000  0.237
  2  0.006  0.000  0.000  0.006
tot  0.242  0.000  0.000  0.242
  1 -0.137  0.000  0.000 -0.137
  2 -0.003  0.000  0.000 -0.003
tot -0.140  0.000  0.000 -0.140
  1 -0.137  0.000  0.000 -0.137
  2 -0.003  0.000  0.000 -0.003
tot -0.140  0.000  0.000 -0.140
  1 -0.137  0.000  0.000 -0.137
  2 -0.003  0.000  0.000 -0.003
tot -0.140  0.000  0.000 -0.140
 
band  28 # energy    9.50153526 # occ.  0.00000000
 
ion      s      p      d    tot
  1  0.237  0.000  0.000  0.237
  2  0.006  0.000  0.000  0.006
tot  0.242  0.000  0.000  0.242
  1  0.137 -0.000  0.000  0.137
  2  0.003  0.000  0.000  0.003
tot  0.140 -0.000  0.000  0.140
  1  0.137 -0.000  0.000  0.137
  2  0.003 -0.000  0.000  0.003
tot  0.140 -0.000  0.000  0.140
  1  0.137 -0.000  0.000  0.137
  2  0.003 -0.000  0.000  0.003
tot  0.140 -0.000  0.000  0.140
 

 k-point    2 :    0.16666667 0.00000000 0.00000000     weight = 0.00462963

band   1 # energy   -8.89170495 # occ.  1.00000000
 
ion      s      p      d    tot
  1  0.053  0.003  0.018  0.073
  2  0.574  0.000  0.000  0.574
tot  0.627  0.003  0.018  0.647
  1  0.031  0.001  0.010  0.042
  2  0.331  0.000  0.000  0.331
tot  0.362  0.002  0.010  0.374
  1  0.031  0.001  0.010  0.042
  2  0.331  0.000  0.000  0.331
tot  0.362  0.002  0.010  0.373
  1  0.031  0.001  0.010  0.042
  2  0.331  0.000  0.000  0.331
tot  0.362  0.002  0.010  0.373
 
band   2 # energy   -8.89164366 # occ.  1.00000000
 
ion      s      p      d    tot
  1  0.053  0.003  0.018  0.073
  2  0.574  0.000  0.000  0.574
tot  0.627  0.003  0.018  0.647
  1 -0.031 -0.001 -0.010 -0.042
  2 -0.331 -0.000 -0.000 -0.331
tot -0.362 -0.002 -0.010 -0.374
  1 -0.031 -0.001 -0.010 -0.042
  2 -0.331 -0.000 -0.000 -0.331
tot -0.362 -0.002 -0.010 -0.373
  1 -0.031 -0.001 -0.010 -0.042
  2 -0.331 -0.000 -0.000 -0.331
tot -0.362 -0.002 -0.010 -0.373
 
band   3 # energy   -6.36549465 # occ.  1.00000000
 
ion      s      p      d    tot
  1  0.000  0.000  0.917  0.918
  2  0.000  0.014  0.000  0.014
tot  0.000  0.014  0.918  0.932
  1  0.000  0.000  0.000  0.000
  2  0.000  0.000  0.000  0.000
tot  0.000  0.000  0.000  0.000
  1 -0.000  0.000  0.000  0.000
  2 -0.000  0.000  0.000  0.000
tot -0.000  0.000  0.000  0.000
  1 -0.000  0.000  0.000  0.000
  2 -0.000  0.000  0.000  0.000
tot -0.000  0.000  0.000  0.000
 
band   4 # energy   -6.34275526 # occ.  1.00000000
 
ion      s      p      d    tot
  1  0.000  0.000  0.922  0.922
  2  0.000  0.011  0.001  0.012
tot  0.000  0.012  0.923  0.934
  1 -0.000 -0.000 -0.000 -0.000
  2 -0.000 -0.000 -0.000 -0.000
tot -0.000 -0.000 -0.000 -0.000
  1  0.000 -0.000 -0.000 -0.000
  2  0.000 -0.000 -0.000 -0.000
tot  0.000 -0.000 -0.000 -0.000
  1 -0.000 -0.000 -0.000 -0.000
  2 -0.000 -0.000 -0.000 -0.000
tot -0.000 -0.000 -0.000 -0.000
 
band   5 # energy   -6.30743380 # occ.  1.00000000
 
ion      s      p      d    tot
  1  0.002  0.000  0.911  0.914
  2  0.004  0.012  0.001  0.016
tot  0.006  0.012  0.912  0.930
  1 -0.001  0.000  0.061  0.059
  2 -0.002 -0.002  0.000 -0.004
tot -0.004 -0.002  0.061  0.055
  1 -0.001  0.000  0.055  0.054
  2 -0.002 -0.002  0.000 -0.004
tot -0.004 -0.002  0.056  0.050
  1 -0.001  0.000  0.058  0.056
  2 -0.002 -0.002  0.000 -0.004
tot -0.004 -0.002  0.058  0.052
 
band   6 # energy   -6.30743196 # occ.  1.00000000
 
ion      s      p      d    tot
  1  0.002  0.000  0.911  0.914
  2  0.004  0.012  0.001  0.016
tot  0.006  0.012  0.912  0.930
  1  0.001 -0.000 -0.060 -0.059
  2  0.002  0.002 -0.000  0.004
tot  0.004  0.002 -0.061 -0.055
  1  0.001 -0.000 -0.055 -0.054
  2  0.002  0.002 -0.000  0.004
tot  0.004  0.002 -0.056 -0.050
  1  0.001 -0.000 -0.058 -0.056
  2  0.002  0.002 -0.000  0.004
tot  0.004  0.002 -0.058 -0.052
 
band   7 # energy   -5.77802229 # occ.  1.00000000
 
ion      s      p      d    tot
  1  0.001  0.000  0.891  0.893
  2  0.001  0.025  0.001  0.027
tot  0.003  0.025  0.892  0.920
  1 -0.001  0.000  0.227  0.226
  2 -0.001  0.006  0.000  0.005
tot -0.002  0.006  0.227  0.232
  1 -0.001  0.000  0.228  0.228
  2 -0.001  0.006  0.000  0.006
tot -0.002  0.006  0.229  0.233
  1 -0.001  0.000  0.227  0.227
  2 -0.001  0.006  0.000  0.005
tot -0.002  0.006  0.227  0.232
 
band   8 # energy   -5.77800571 # occ.  1.00000000
 
ion      s      p      d    tot
  1  0.001  0.000  0.891  0.893
  2  0.001  0.025  0.001  0.027
tot  0.003  0.025  0.892  0.920
  1  0.001 -0.000 -0.227 -0.226
  2  0.001 -0.006 -0.000 -0.005
tot  0.002 -0.006 -0.227 -0.232
  1  0.001 -0.000 -0.228 -0.228
  2  0.001 -0.006 -0.000 -0.006
tot  0.002 -0.006 -0.229 -0.233
  1  0.001 -0.000 -0.227 -0.227
  2  0.001 -0.006 -0.000 -0.005
tot  0.002 -0.006 -0.227 -0.232
 
band   9 # energy   -5.60282407 # occ.  1.00000000
 
ion      s      p      d    tot
  1  0.000  0.000  0.933  0.933
  2  0.000  0.007  0.001  0.008
tot  0.000  0.007  0.934  0.941
  1 -0.000  0.000  0.000  0.000
  2 -0.000 -0.000  0.000  0.000
tot -0.000 -0.000  0.000  0.000
  1  0.000  0.000  0.000  0.000
  2  0.000 -0.000  0.000  0.000
tot  0.000 -0.000  0.000  0.000
  1  0.000  0.000  0.000  0.000
  2  0.000 -0.000  0.000  0.000
tot  0.000 -0.000  0.000  0.000
 
band  10 # energy   -5.59280949 # occ.  1.00000000
 
ion      s      p      d    tot
  1  0.001  0.000  0.927  0.928
  2  0.001  0.007  0.001  0.009
tot  0.002  0.007  0.928  0.937
  1 -0.001 -0.000  0.271  0.270
  2 -0.001 -0.003  0.000 -0.003
tot -0.001 -0.003  0.271  0.267
  1 -0.001 -0.000  0.270  0.269
  2 -0.001 -0.003  0.000 -0.003
tot -0.001 -0.003  0.270  0.266
  1 -0.001 -0.000  0.270  0.270
  2 -0.001 -0.003  0.000 -0.003
tot -0.001 -0.003  0.271  0.267
 
band  11 # energy   -5.59279413 # occ.  1.00000000
 
ion      s      p      d    tot
  1  0.001  0.000  0.927  0.928
  2  0.001  0.007  0.001  0.009
tot  0.002  0.007  0.928  0.937
  1  0.001  0.000 -0.271 -0.270
  2  0.001  0.003 -0.000  0.003
tot  0.001  0.003 -0.271 -0.267
  1  0.001  0.000 -0.270 -0.269
  2  0.001  0.003 -0.000  0.003
tot  0.001  0.003 -0.270 -0.266
  1  0.001  0.000 -0.270 -0.270
  2  0.001  0.003 -0.000  0.003
tot  0.001  0.003 -0.271 -0.267
 
band  12 # energy   -5.57392637 # occ.  1.00000000
 
ion      s      p      d    tot
  1  0.000  0.000  0.940  0.940
  2  0.000  0.003  0.001  0.005
tot  0.000  0.004  0.941  0.944
  1  0.000 -0.000 -0.000 -0.000
  2  0.000 -0.000 -0.000 -0.000
tot  0.000 -0.000 -0.000 -0.000
  1 -0.000 -0.000 -0.000 -0.000
  2 -0.000 -0.000 -0.000 -0.000
tot -0.000 -0.000 -0.000 -0.000
  1  0.000 -0.000 -0.000 -0.000
  2 -0.000 -0.000 -0.000 -0.000
tot  0.000 -0.000 -0.000 -0.000
 
band  13 # energy    0.37688358 # occ.  1.00000000
 
ion      s      p      d    tot
  1  0.110  0.026  0.063  0.199
  2  0.069  0.283  0.002  0.354
tot  0.179  0.309  0.065  0.553
  1  0.064  0.014  0.031  0.108
  2  0.040  0.141  0.001  0.182
tot  0.103  0.154  0.032  0.290
  1  0.064  0.014  0.031  0.109
  2  0.040  0.141  0.001  0.182
tot  0.104  0.155  0.032  0.290
  1  0.064  0.014  0.031  0.108
  2  0.040  0.141  0.001  0.181
tot  0.103  0.154  0.032  0.290
 
band  14 # energy    0.37693718 # occ.  1.00000000
 
ion      s      p      d    tot
  1  0.110  0.026  0.063  0.199
  2  0.069  0.283  0.002  0.354
tot  0.179  0.309  0.065  0.553
  1 -0.064 -0.014 -0.031 -0.108
  2 -0.040 -0.141 -0.001 -0.182
tot -0.103 -0.154 -0.032 -0.290
  1 -0.064 -0.014 -0.031 -0.109
  2 -0.040 -0.141 -0.001 -0.182
tot -0.104 -0.155 -0.032 -0.290
  1 -0.064 -0.014 -0.031 -0.108
  2 -0.040 -0.141 -0.001 -0.181
tot -0.103 -0.154 -0.032 -0.290
 
band  15 # energy    1.72792851 # occ.  1.00000000
 
ion      s      p      d    tot
  1  0.012  0.039  0.071  0.122
  2  0.007  0.454  0.001  0.462
tot  0.020  0.492  0.072  0.584
  1 -0.007  0.021  0.040  0.054
  2 -0.004  0.258  0.001  0.254
tot -0.011  0.279  0.041  0.308
  1 -0.007  0.021  0.040  0.054
  2 -0.004  0.258  0.001  0.254
tot -0.011  0.279  0.041  0.308
  1 -0.007  0.021  0.040  0.054
  2 -0.004  0.258  0.001  0.254
tot -0.011  0.279  0.041  0.308
 
band  16 # energy    1.72800851 # occ.  1.00000000
 
ion      s      p      d    tot
  1  0.012  0.039  0.071  0.122
  2  0.007  0.454  0.001  0.462
tot  0.020  0.492  0.072  0.584
  1  0.007 -0.021 -0.040 -0.054
  2  0.004 -0.258 -0.001 -0.254
tot  0.011 -0.279 -0.041 -0.308
  1  0.007 -0.021 -0.040 -0.054
  2  0.004 -0.258 -0.001 -0.254
tot  0.011 -0.279 -0.041 -0.308
  1  0.007 -0.021 -0.040 -0.054
  2  0.004 -0.258 -0.001 -0.254
tot  0.011 -0.279 -0.041 -0.308
 
band  17 # energy    2.23256906 # occ.  1.00000000
 
ion      s      p      d    tot
  1  0.000  0.040  0.065  0.105
  2  0.000  0.469  0.001  0.471
tot  0.000  0.509  0.066  0.576
  1  0.000  0.000  0.000  0.000
  2  0.000  0.001  0.000  0.001
tot  0.000  0.002  0.000  0.002
  1  0.000  0.000  0.000  0.000
  2 -0.000  0.001  0.000  0.001
tot -0.000  0.002  0.000  0.002
  1 -0.000  0.000  0.000  0.000
  2  0.000  0.001  0.000  0.001
tot -0.000  0.002  0.000  0.002
 
band  18 # energy    2.24989827 # occ.  1.00000000
 
ion      s      p      d    tot
  1  0.000  0.040  0.067  0.108
  2  0.000  0.468  0.002  0.470
tot  0.000  0.509  0.069  0.578
  1 -0.000 -0.000 -0.000 -0.000
  2 -0.000 -0.001 -0.000 -0.001
tot -0.000 -0.002 -0.000 -0.002
  1 -0.000 -0.000 -0.000 -0.000
  2 -0.000 -0.001 -0.000 -0.001
tot -0.000 -0.002 -0.000 -0.002
  1 -0.000 -0.000 -0.000 -0.000
  2 -0.000 -0.001 -0.000 -0.001
tot -0.000 -0.002 -0.000 -0.002
 
band  19 # energy    3.99611736 # occ.  0.00000000
 
ion      s      p      d    tot
  1  0.212  0.034  0.006  0.251
  2  0.133  0.135  0.009  0.276
tot  0.345  0.169  0.014  0.527
  1  0.122  0.018  0.003  0.143
  2  0.077  0.075  0.005  0.156
tot  0.199  0.093  0.008  0.299
  1  0.123  0.018  0.003  0.144
  2  0.077  0.075  0.005  0.157
tot  0.200  0.093  0.008  0.301
  1  0.122  0.018  0.003  0.143
  2  0.077  0.075  0.005  0.156
tot  0.199  0.093  0.008  0.299
 
band  20 # energy    3.99614413 # occ.  0.00000000
 
ion      s      p      d    tot
  1  0.212  0.034  0.006  0.251
  2  0.133  0.135  0.009  0.276
tot  0.345  0.169  0.014  0.527
  1 -0.122 -0.018 -0.003 -0.143
  2 -0.077 -0.075 -0.005 -0.156
tot -0.199 -0.093 -0.008 -0.299
  1 -0.123 -0.018 -0.003 -0.144
  2 -0.077 -0.075 -0.005 -0.157
tot -0.200 -0.093 -0.008 -0.301
  1 -0.122 -0.018 -0.003 -0.143
  2 -0.077 -0.075 -0.005 -0.156
tot -0.199 -0.093 -0.008 -0.299
 
band  21 # energy    6.83196115 # occ.  0.00000000
 
ion      s      p      d    tot
  1  0.042  0.140  0.013  0.195
  2  0.014  0.106  0.061  0.181
tot  0.056  0.246  0.074  0.377
  1 -0.024 -0.044 -0.006 -0.074
  2 -0.008 -0.052 -0.023 -0.084
tot -0.033 -0.096 -0.029 -0.158
  1 -0.024 -0.043 -0.006 -0.073
  2 -0.008 -0.051 -0.023 -0.082
tot -0.032 -0.094 -0.029 -0.155
  1 -0.024 -0.044 -0.006 -0.074
  2 -0.008 -0.052 -0.023 -0.084
tot -0.033 -0.096 -0.029 -0.158
 
band  22 # energy    6.83197069 # occ.  0.00000000
 
ion      s      p      d    tot
  1  0.042  0.140  0.013  0.195
  2  0.014  0.106  0.061  0.181
tot  0.056  0.246  0.074  0.377
  1  0.024  0.044  0.006  0.074
  2  0.008  0.052  0.023  0.084
tot  0.033  0.096  0.029  0.158
  1  0.024  0.043  0.006  0.073
  2  0.008  0.051  0.023  0.082
tot  0.032  0.094  0.029  0.155
  1  0.024  0.044  0.006  0.074
  2  0.008  0.052  0.023  0.084
tot  0.033  0.096  0.029  0.158
 
band  23 # energy    6.99567199 # occ.  0.00000000
 
ion      s      p      d    tot
  1  0.007  0.220  0.006  0.233
  2  0.002  0.033  0.085  0.120
tot  0.009  0.253  0.091  0.353
  1 -0.004  0.110  0.002  0.108
  2 -0.001  0.007  0.038  0.044
tot -0.005  0.117  0.040  0.152
  1 -0.004  0.110  0.002  0.108
  2 -0.001  0.007  0.038  0.044
tot -0.005  0.117  0.040  0.152
  1 -0.004  0.110  0.002  0.108
  2 -0.001  0.007  0.038  0.044
tot -0.005  0.117  0.040  0.152
 
band  24 # energy    6.99573658 # occ.  0.00000000
 
ion      s      p      d    tot
  1  0.007  0.220  0.006  0.233
  2  0.002  0.033  0.085  0.120
tot  0.009  0.253  0.091  0.353
  1  0.004 -0.110 -0.002 -0.109
  2  0.001 -0.007 -0.038 -0.044
tot  0.005 -0.117 -0.040 -0.152
  1  0.004 -0.110 -0.002 -0.108
  2  0.001 -0.007 -0.038 -0.044
tot  0.005 -0.117 -0.040 -0.152
  1  0.004 -0.110 -0.002 -0.109
  2  0.001 -0.007 -0.038 -0.044
tot  0.005 -0.117 -0.040 -0.152
 
band  25 # energy    7.19452554 # occ.  0.00000000
 
ion      s      p      d    tot
  1  0.000  0.221  0.007  0.227
  2  0.000  0.030  0.098  0.128
tot  0.000  0.251  0.104  0.356
  1 -0.000  0.001  0.000  0.001
  2 -0.000  0.000  0.000  0.000
tot -0.000  0.001  0.000  0.001
  1  0.000  0.001  0.000  0.001
  2  0.000  0.000  0.000  0.000
tot  0.000  0.001  0.000  0.001
  1 -0.000  0.001  0.000  0.001
  2  0.000  0.000  0.000  0.000
tot -0.000  0.001  0.000  0.001
 
band  26 # energy    7.20604507 # occ.  0.00000000
 
ion      s      p      d    tot
  1  0.000  0.222  0.007  0.228
  2  0.000  0.030  0.095  0.125
tot  0.000  0.252  0.101  0.353
  1  0.000 -0.001 -0.000 -0.001
  2  0.000 -0.000 -0.000 -0.000
tot  0.000 -0.001 -0.000 -0.001
  1 -0.000 -0.001 -0.000 -0.001
  2 -0.000 -0.000 -0.000 -0.000
tot -0.000 -0.001 -0.000 -0.001
  1  0.000 -0.001 -0.000 -0.001
  2 -0.000 -0.000 -0.000 -0.000
tot -0.000 -0.001 -0.000 -0.001
 
band  27 # energy   10.50365651 # occ.  0.00000000
 
ion      s      p      d    tot
  1  0.119  0.061  0.004  0.184
  2  0.003  0.008  0.011  0.023
tot  0.122  0.069  0.015  0.207
  1  0.070  0.036  0.002  0.108
  2  0.002  0.005  0.006  0.013
tot  0.072  0.040  0.008  0.121
  1  0.069  0.035  0.002  0.106
  2  0.002  0.005  0.006  0.013
tot  0.071  0.040  0.008  0.118
  1  0.068  0.034  0.002  0.104
  2  0.002  0.005  0.006  0.013
tot  0.070  0.039  0.008  0.117
 
band  28 # energy   10.62398804 # occ.  0.00000000
 
ion      s      p      d    tot
  1  0.002  0.008  0.076  0.086
  2  0.000  0.001  0.147  0.148
tot  0.002  0.009  0.223  0.234
  1 -0.001  0.004  0.050  0.053
  2 -0.000  0.001  0.095  0.096
tot -0.001  0.005  0.145  0.149
  1 -0.001  0.004  0.041  0.043
  2 -0.000  0.000  0.081  0.082
tot -0.001  0.004  0.122  0.125
  1 -0.001  0.003  0.039  0.041
  2 -0.000  0.000  0.076  0.076
tot -0.001  0.003  0.115  0.117
 

 k-point    3 :    0.33333333 0.00000000 0.00000000     weight = 0.00462963

band   1 # energy   -8.68970983 # occ.  1.00000000
 
ion      s      p      d    tot
  1  0.030  0.008  0.069  0.106
  2  0.577  0.000  0.000  0.578
tot  0.607  0.008  0.069  0.684
  1  0.017  0.004  0.039  0.060
  2  0.333  0.000  0.000  0.334
tot  0.351  0.005  0.039  0.394
  1  0.017  0.004  0.039  0.060
  2  0.333  0.000  0.000  0.334
tot  0.351  0.005  0.039  0.394
  1  0.017  0.004  0.039  0.060
  2  0.333  0.000  0.000  0.333
tot  0.350  0.005  0.039  0.394
 
band   2 # energy   -8.68964901 # occ.  1.00000000
 
ion      s      p      d    tot
  1  0.030  0.008  0.069  0.106
  2  0.577  0.000  0.000  0.578
tot  0.607  0.008  0.069  0.684
  1 -0.017 -0.004 -0.039 -0.060
  2 -0.333 -0.000 -0.000 -0.334
tot -0.351 -0.005 -0.039 -0.394
  1 -0.017 -0.004 -0.039 -0.060
  2 -0.333 -0.000 -0.000 -0.334
tot -0.351 -0.005 -0.039 -0.394
  1 -0.017 -0.004 -0.039 -0.060
  2 -0.333 -0.000 -0.000 -0.333
tot -0.350 -0.005 -0.039 -0.394
 
band   3 # energy   -6.35596976 # occ.  1.00000000
 
ion      s      p      d    tot
  1  0.000  0.000  0.919  0.920
  2  0.000  0.013  0.001  0.013
tot  0.000  0.013  0.920  0.933
  1  0.000  0.000  0.000  0.000
  2  0.000  0.000  0.000  0.000
tot  0.000  0.000  0.000  0.000
  1 -0.000  0.000  0.000  0.000
  2 -0.000  0.000  0.000  0.000
tot -0.000  0.000  0.000  0.000
  1 -0.000  0.000  0.000  0.000
  2 -0.000  0.000  0.000  0.000
tot -0.000  0.000  0.000  0.000
 
band   4 # energy   -6.33334821 # occ.  1.00000000
 
ion      s      p      d    tot
  1  0.000  0.000  0.924  0.924
  2  0.000  0.010  0.001  0.011
tot  0.000  0.011  0.925  0.936
  1 -0.000 -0.000 -0.000 -0.000
  2 -0.000 -0.000 -0.000 -0.000
tot -0.000 -0.000 -0.000 -0.000
  1  0.000 -0.000 -0.000 -0.000
  2  0.000 -0.000 -0.000 -0.000
tot  0.000 -0.000 -0.000 -0.000
  1 -0.000 -0.000 -0.000 -0.000
  2 -0.000 -0.000 -0.000 -0.000
tot -0.000 -0.000 -0.000 -0.000
 
band   5 # energy   -6.17251885 # occ.  1.00000000
 
ion      s      p      d    tot
  1  0.003  0.000  0.908  0.911
  2  0.016  0.006  0.001  0.022
tot  0.019  0.007  0.909  0.934
  1 -0.002 -0.000  0.238  0.236
  2 -0.009  0.000  0.000 -0.008
tot -0.011  0.000  0.238  0.227
  1 -0.002 -0.000  0.237  0.235
  2 -0.009  0.000  0.000 -0.008
tot -0.011  0.000  0.237  0.227
  1 -0.002 -0.000  0.237  0.235
  2 -0.009  0.000  0.000 -0.008
tot -0.011  0.000  0.237  0.227
 
band   6 # energy   -6.17250636 # occ.  1.00000000
 
ion      s      p      d    tot
  1  0.003  0.000  0.908  0.911
  2  0.016  0.006  0.001  0.022
tot  0.019  0.007  0.909  0.934
  1  0.002  0.000 -0.238 -0.236
  2  0.009 -0.000 -0.000  0.008
tot  0.011 -0.000 -0.238 -0.227
  1  0.002  0.000 -0.237 -0.235
  2  0.009 -0.000 -0.000  0.008
tot  0.011 -0.000 -0.237 -0.227
  1  0.002  0.000 -0.237 -0.235
  2  0.009 -0.000 -0.000  0.008
tot  0.011 -0.000 -0.237 -0.227
 
band   7 # energy   -5.72045247 # occ.  1.00000000
 
ion      s      p      d    tot
  1  0.001  0.001  0.904  0.905
  2  0.002  0.018  0.001  0.021
tot  0.003  0.019  0.905  0.926
  1 -0.000  0.000  0.465  0.464
  2 -0.001  0.009  0.000  0.008
tot -0.002  0.009  0.465  0.473
  1 -0.000  0.000  0.465  0.465
  2 -0.001  0.009  0.000  0.008
tot -0.002  0.009  0.465  0.473
  1 -0.000  0.000  0.465  0.464
  2 -0.001  0.009  0.000  0.008
tot -0.002  0.009  0.465  0.473
 