 running on   24 total cores
 distrk:  each k-point on   24 cores,    1 groups
 distr:  one band on   24 cores,    1 groups
 using from now: INCAR     
 vasp.5.4.1 24Jun15 (build Nov 25 2015 16:39:35) complex                        
  
 POSCAR found type information on POSCAR  Cd Te
 POSCAR found :  2 types and       2 ions
 scaLAPACK will be used

 ----------------------------------------------------------------------------- 
|                                                                             |
|           W    W    AA    RRRRR   N    N  II  N    N   GGGG   !!!           |
|           W    W   A  A   R    R  NN   N  II  NN   N  G    G  !!!           |
|           W    W  A    A  R    R  N N  N  II  N N  N  G       !!!           |
|           W WW W  AAAAAA  RRRRR   N  N N  II  N  N N  G  GGG   !            |
|           WW  WW  A    A  R   R   N   NN  II  N   NN  G    G                |
|           W    W  A    A  R    R  N    N  II  N    N   GGGG   !!!           |
|                                                                             |
|      For optimal performance we recommend to set                            |
|        NCORE= 4 - approx SQRT( number of cores)                             |
|      NCORE specifies how many cores store one orbital (NPAR=cpu/NCORE).     |
|      This setting can  greatly improve the performance of VASP for DFT.     |
|      The default, NPAR=number of cores might be grossly inefficient         |
|      on modern multi-core architectures or massively parallel machines.     |
|      Do your own testing !!!!                                               |
|      Unfortunately you need to use the default for GW and RPA calculations. |
|      (for HF NCORE is supported but not extensively tested yet)             |
|                                                                             |
 ----------------------------------------------------------------------------- 


 ----------------------------------------------------------------------------- 
|                                                                             |
|  ADVICE TO THIS USER RUNNING 'VASP/VAMP'   (HEAR YOUR MASTER'S VOICE ...):  |
|                                                                             |
|      You enforced a specific xc-type in the INCAR file,                     |
|      a different type was found on the POTCAR file                          |
|          I HOPE YOU KNOW, WHAT YOU ARE  DOING                               |
|                                                                             |
 ----------------------------------------------------------------------------- 

 LDA part: xc-table for Pade appr. of Perdew
 POSCAR, INCAR and KPOINTS ok, starting setup
 FFT: planning ...
 WAVECAR not read
 WARNING: random wavefunctions but no delay for mixing, default for NELMDL
 entering main loop
       N       E                     dE             d eps       ncg     rms          rms(c)
DAV:   1     0.108780223589E+03    0.10878E+03   -0.79133E+03  4288   0.109E+03
DAV:   2     0.269233276995E+00   -0.10851E+03   -0.10449E+03  4624   0.271E+02
DAV:   3    -0.490108244520E+01   -0.51703E+01   -0.51368E+01  5036   0.601E+01
DAV:   4    -0.496922788506E+01   -0.68145E-01   -0.68113E-01  5332   0.592E+00
DAV:   5    -0.496989187873E+01   -0.66399E-03   -0.66399E-03  4732   0.613E-01    0.111E+01
DAV:   6    -0.557676220634E+01   -0.60687E+00   -0.57840E-01  4532   0.125E+01    0.554E+00
DAV:   7    -0.561604444969E+01   -0.39282E-01   -0.22992E-01  4300   0.503E+00    0.327E+00
DAV:   8    -0.561186405000E+01    0.41804E-02   -0.16632E-02  4356   0.114E+00    0.171E+00
DAV:   9    -0.561085924712E+01    0.10048E-02   -0.29136E-03  4520   0.919E-01    0.390E-01
DAV:  10    -0.561110686850E+01   -0.24762E-03   -0.79051E-04  4328   0.336E-01    0.180E-01
DAV:  11    -0.561115179772E+01   -0.44929E-04   -0.88301E-05  4604   0.672E-02    0.804E-02
DAV:  12    -0.561118140198E+01   -0.29604E-04   -0.34071E-05  4456   0.452E-02    0.212E-02
DAV:  13    -0.561118911833E+01   -0.77164E-05   -0.52645E-06  4544   0.167E-02    0.102E-02
DAV:  14    -0.561119279601E+01   -0.36777E-05   -0.31645E-06  4352   0.115E-02    0.524E-03
DAV:  15    -0.561119366150E+01   -0.86549E-06   -0.69237E-07  3868   0.482E-03
   1 F= -.56111937E+01 E0= -.56111937E+01  d E =-.374776E-23  mag=     0.0000     0.0000     0.0000
 writing wavefunctions
Application 23532528 resources: utime ~2175s, stime ~27s, Rss ~42900, inblocks ~148639, outblocks ~408708
