  96  96   0   0
  0.2080188E+02  0.1257760E-08  0.1245754E-08  0.1274818E-08  0.5000000E-15
  1.000000000000000E-004
  CAR 
 MAPbI3-Cubic                            
      8.91362567    -19.58351622  301      1.43312592      1.00000000
    -19.584  0.0000E+00  0.0000E+00
    -19.489  0.0000E+00  0.0000E+00
    -19.394  0.0000E+00  0.0000E+00
    -19.299  0.0000E+00  0.0000E+00
    -19.204  0.0000E+00  0.0000E+00
    -19.109  0.0000E+00  0.0000E+00
    -19.014  0.0000E+00  0.0000E+00
    -18.919  0.0000E+00  0.0000E+00
    -18.824  0.0000E+00  0.0000E+00
    -18.729  0.0000E+00  0.0000E+00
    -18.634  0.0000E+00  0.0000E+00
    -18.539  0.0000E+00  0.0000E+00
    -18.444  0.0000E+00  0.0000E+00
    -18.349  0.0000E+00  0.0000E+00
    -18.254  0.0000E+00  0.1600E+02
    -18.159  0.0000E+00  0.1600E+02
    -18.064  0.0000E+00  0.1600E+02
    -17.969  0.0000E+00  0.1600E+02
    -17.874  0.0000E+00  0.1600E+02
    -17.779  0.0000E+00  0.1600E+02
    -17.684  0.0000E+00  0.1600E+02
    -17.589  0.0000E+00  0.1600E+02
    -17.494  0.0000E+00  0.1600E+02
    -17.399  0.0000E+00  0.1600E+02
    -17.304  0.0000E+00  0.1600E+02
    -17.209  0.0000E+00  0.1600E+02
    -17.114  0.0000E+00  0.1600E+02
    -17.019  0.0000E+00  0.1600E+02
    -16.924  0.0000E+00  0.1600E+02
    -16.829  0.0000E+00  0.1600E+02
    -16.734  0.0000E+00  0.1600E+02
    -16.639  0.0000E+00  0.1600E+02
    -16.544  0.0000E+00  0.1600E+02
    -16.449  0.0000E+00  0.1600E+02
    -16.354  0.0000E+00  0.1600E+02
    -16.259  0.0000E+00  0.1600E+02
    -16.164  0.0000E+00  0.1600E+02
    -16.069  0.0000E+00  0.1600E+02
    -15.974  0.0000E+00  0.1600E+02
    -15.879  0.0000E+00  0.1600E+02
    -15.784  0.0000E+00  0.1600E+02
    -15.689  0.0000E+00  0.1600E+02
    -15.594  0.0000E+00  0.1600E+02
    -15.499  0.0000E+00  0.1600E+02
    -15.404  0.0000E+00  0.1600E+02
    -15.309  0.0000E+00  0.1600E+02
    -15.214  0.0000E+00  0.1600E+02
    -15.119  0.0000E+00  0.1600E+02
    -15.024  0.8394E+01  0.6480E+02
    -14.929  0.0000E+00  0.9600E+02
    -14.834  0.0000E+00  0.9600E+02
    -14.739  0.0000E+00  0.9600E+02
    -14.644  0.0000E+00  0.9600E+02
    -14.549  0.0000E+00  0.9600E+02
    -14.454  0.0000E+00  0.9600E+02
    -14.359  0.0000E+00  0.9600E+02
    -14.264  0.0000E+00  0.9600E+02
    -14.169  0.0000E+00  0.9600E+02
    -14.074  0.0000E+00  0.9600E+02
    -13.979  0.0000E+00  0.9600E+02
    -13.884  0.0000E+00  0.9600E+02
    -13.789  0.0000E+00  0.9600E+02
    -13.694  0.0000E+00  0.9600E+02
    -13.599  0.0000E+00  0.9600E+02
    -13.504  0.0000E+00  0.9600E+02
    -13.409  0.0000E+00  0.9600E+02
    -13.314  0.0000E+00  0.9600E+02
    -13.219  0.0000E+00  0.9600E+02
    -13.124  0.0000E+00  0.9600E+02
    -13.029  0.0000E+00  0.9600E+02
    -12.934  0.0000E+00  0.9600E+02
    -12.839  0.0000E+00  0.9600E+02
    -12.744  0.0000E+00  0.9600E+02
    -12.649  0.0000E+00  0.9600E+02
    -12.554  0.0000E+00  0.9600E+02
    -12.459  0.0000E+00  0.9600E+02
    -12.364  0.0000E+00  0.9600E+02
    -12.269  0.0000E+00  0.9600E+02
    -12.174  0.0000E+00  0.9600E+02
    -12.079  0.0000E+00  0.9600E+02
    -11.984  0.0000E+00  0.9600E+02
    -11.889  0.0000E+00  0.9600E+02
    -11.794  0.0000E+00  0.9600E+02
    -11.699  0.0000E+00  0.9600E+02
    -11.604  0.0000E+00  0.9600E+02
    -11.509  0.0000E+00  0.9600E+02
    -11.414  0.0000E+00  0.9600E+02
    -11.319  0.1096E+02  0.1050E+03
    -11.224  0.0000E+00  0.1120E+03
    -11.129  0.0000E+00  0.1120E+03
    -11.034  0.0000E+00  0.1120E+03
    -10.939  0.0000E+00  0.1120E+03
    -10.844  0.1691E-02  0.1120E+03
    -10.749  0.1560E+01  0.1134E+03
    -10.654  0.6351E+01  0.1168E+03
    -10.559  0.7068E+01  0.1224E+03
    -10.464  0.0000E+00  0.1280E+03
    -10.369  0.4679E+01  0.1296E+03
    -10.274  0.1556E+02  0.1381E+03
    -10.179  0.4679E+01  0.1422E+03
    -10.084  0.3089E-02  0.1442E+03
     -9.989  0.4589E+01  0.1547E+03
     -9.894  0.4648E+01  0.1600E+03
     -9.799  0.0000E+00  0.1600E+03
     -9.705  0.0000E+00  0.1600E+03
     -9.610  0.0000E+00  0.1600E+03
     -9.515  0.0000E+00  0.1600E+03
     -9.420  0.0000E+00  0.1600E+03
     -9.325  0.0000E+00  0.1600E+03
     -9.230  0.0000E+00  0.1600E+03
     -9.135  0.0000E+00  0.1600E+03
     -9.040  0.0000E+00  0.1600E+03
     -8.945  0.0000E+00  0.1600E+03
     -8.850  0.0000E+00  0.1600E+03
     -8.755  0.0000E+00  0.1600E+03
     -8.660  0.0000E+00  0.1600E+03
     -8.565  0.0000E+00  0.1600E+03
     -8.470  0.0000E+00  0.1600E+03
     -8.375  0.0000E+00  0.1600E+03
     -8.280  0.0000E+00  0.1600E+03
     -8.185  0.0000E+00  0.1600E+03
     -8.090  0.0000E+00  0.1600E+03
     -7.995  0.0000E+00  0.1600E+03
     -7.900  0.0000E+00  0.1600E+03
     -7.805  0.0000E+00  0.1600E+03
     -7.710  0.2999E+02  0.1726E+03
     -7.615  0.1404E+02  0.1920E+03
     -7.520  0.0000E+00  0.1920E+03
     -7.425  0.0000E+00  0.1920E+03
     -7.330  0.0000E+00  0.1920E+03
     -7.235  0.0000E+00  0.1920E+03
     -7.140  0.0000E+00  0.1920E+03
     -7.045  0.0000E+00  0.1921E+03
     -6.950  0.0000E+00  0.1921E+03
     -6.855  0.0000E+00  0.1925E+03
     -6.760  0.0000E+00  0.1934E+03
     -6.665  0.0000E+00  0.1941E+03
     -6.570  0.0000E+00  0.1944E+03
     -6.475  0.0000E+00  0.1964E+03
     -6.380  0.3188E+01  0.1985E+03
     -6.285  0.1511E+01  0.1997E+03
     -6.190  0.1947E-07  0.2009E+03
     -6.095  0.1560E+01  0.2033E+03
     -6.000  0.5004E-03  0.2046E+03
     -5.905  0.2318E+01  0.2063E+03
     -5.810  0.1092E+02  0.2134E+03
     -5.715  0.0000E+00  0.2226E+03
     -5.620  0.0000E+00  0.2235E+03
     -5.525  0.0000E+00  0.2239E+03
     -5.430  0.0000E+00  0.2239E+03
     -5.335  0.0000E+00  0.2240E+03
     -5.240  0.0000E+00  0.2240E+03
     -5.145  0.0000E+00  0.2240E+03
     -5.050  0.0000E+00  0.2240E+03
     -4.955  0.0000E+00  0.2240E+03
     -4.860  0.0000E+00  0.2240E+03
     -4.765  0.0000E+00  0.2240E+03
     -4.670  0.0000E+00  0.2240E+03
     -4.575  0.0000E+00  0.2240E+03
     -4.480  0.0000E+00  0.2240E+03
     -4.385  0.0000E+00  0.2240E+03
     -4.290  0.0000E+00  0.2240E+03
     -4.195  0.0000E+00  0.2240E+03
     -4.100  0.0000E+00  0.2240E+03
     -4.005  0.0000E+00  0.2240E+03
     -3.910  0.0000E+00  0.2240E+03
     -3.815  0.0000E+00  0.2240E+03
     -3.720  0.0000E+00  0.2240E+03
     -3.625  0.7787E+00  0.2241E+03
     -3.530  0.3802E+02  0.2462E+03
     -3.435  0.0000E+00  0.2560E+03
     -3.340  0.0000E+00  0.2560E+03
     -3.245  0.0000E+00  0.2560E+03
     -3.150  0.0000E+00  0.2560E+03
     -3.055  0.0000E+00  0.2560E+03
     -2.960  0.0000E+00  0.2560E+03
     -2.865  0.0000E+00  0.2560E+03
     -2.770  0.0000E+00  0.2560E+03
     -2.675  0.0000E+00  0.2560E+03
     -2.580  0.0000E+00  0.2560E+03
     -2.485  0.0000E+00  0.2560E+03
     -2.390  0.0000E+00  0.2560E+03
     -2.295  0.0000E+00  0.2560E+03
     -2.200  0.0000E+00  0.2560E+03
     -2.105  0.3800E+01  0.2564E+03
     -2.010  0.2339E+01  0.2587E+03
     -1.915  0.3474E-01  0.2616E+03
     -1.820  0.7798E+00  0.2636E+03
     -1.725  0.4678E+01  0.2663E+03
     -1.630  0.1560E+01  0.2689E+03
     -1.535  0.1560E+01  0.2726E+03
     -1.440  0.1571E+01  0.2760E+03
     -1.345  0.1560E+01  0.2788E+03
     -1.250  0.3119E+01  0.2799E+03
     -1.155  0.0000E+00  0.2800E+03
     -1.060  0.0000E+00  0.2800E+03
     -0.965  0.1560E+01  0.2813E+03
     -0.870  0.1062E+01  0.2851E+03
     -0.775  0.6238E+01  0.2924E+03
     -0.680  0.7798E+01  0.2981E+03
     -0.585  0.2121E+01  0.3027E+03
     -0.490  0.2215E-09  0.3057E+03
     -0.395  0.9706E+01  0.3100E+03
     -0.300  0.3912E+01  0.3145E+03
     -0.205  0.9357E+01  0.3213E+03
     -0.110  0.6790E+01  0.3286E+03
     -0.015  0.5523E+01  0.3342E+03
      0.080  0.8569E+01  0.3405E+03
      0.175  0.5459E+01  0.3486E+03
      0.269  0.4679E+01  0.3580E+03
      0.364  0.7018E+01  0.3647E+03
      0.459  0.8094E+01  0.3720E+03
      0.554  0.2658E+01  0.3815E+03
      0.649  0.6238E+01  0.3876E+03
      0.744  0.3643E+01  0.3929E+03
      0.839  0.2597E-15  0.3960E+03
      0.934  0.5486E-04  0.3975E+03
      1.029  0.1548E+01  0.3993E+03
      1.124  0.0000E+00  0.3993E+03
      1.219  0.0000E+00  0.3998E+03
      1.314  0.0000E+00  0.3999E+03
      1.409  0.0000E+00  0.4000E+03
      1.504  0.0000E+00  0.4000E+03
      1.599  0.0000E+00  0.4000E+03
      1.694  0.0000E+00  0.4000E+03
      1.789  0.0000E+00  0.4000E+03
      1.884  0.0000E+00  0.4000E+03
      1.979  0.0000E+00  0.4000E+03
      2.074  0.0000E+00  0.4000E+03
      2.169  0.0000E+00  0.4000E+03
      2.264  0.0000E+00  0.4000E+03
      2.359  0.0000E+00  0.4000E+03
      2.454  0.0000E+00  0.4000E+03
      2.549  0.0000E+00  0.4000E+03
      2.644  0.0000E+00  0.4000E+03
      2.739  0.0000E+00  0.4000E+03
      2.834  0.0000E+00  0.4000E+03
      2.929  0.0000E+00  0.4000E+03
      3.024  0.1271E-10  0.4005E+03
      3.119  0.0000E+00  0.4007E+03
      3.214  0.3371E+01  0.4020E+03
      3.309  0.1560E+01  0.4030E+03
      3.404  0.3119E+01  0.4041E+03
      3.499  0.1560E+01  0.4059E+03
      3.594  0.0000E+00  0.4067E+03
      3.689  0.0000E+00  0.4077E+03
      3.784  0.1453E-01  0.4083E+03
      3.879  0.0000E+00  0.4093E+03
      3.974  0.3119E+01  0.4104E+03
      4.069  0.0000E+00  0.4116E+03
      4.164  0.2125E-02  0.4136E+03
      4.259  0.3550E-14  0.4151E+03
      4.354  0.1853E+01  0.4174E+03
      4.449  0.4679E+01  0.4204E+03
      4.544  0.0000E+00  0.4227E+03
      4.639  0.0000E+00  0.4239E+03
      4.734  0.1558E+01  0.4240E+03
      4.829  0.0000E+00  0.4240E+03
      4.924  0.0000E+00  0.4240E+03
      5.019  0.0000E+00  0.4241E+03
      5.114  0.0000E+00  0.4242E+03
      5.209  0.1223E+01  0.4246E+03
      5.304  0.6243E+01  0.4266E+03
      5.399  0.1560E+01  0.4289E+03
      5.494  0.1560E+01  0.4319E+03
      5.589  0.3119E+01  0.4361E+03
      5.684  0.2233E-09  0.4381E+03
      5.779  0.1560E+01  0.4410E+03
      5.874  0.3119E+01  0.4426E+03
      5.969  0.3802E+01  0.4459E+03
      6.064  0.4679E+01  0.4493E+03
      6.159  0.1047E+02  0.4535E+03
      6.254  0.1340E+01  0.4583E+03
      6.349  0.3722E+01  0.4615E+03
      6.444  0.1014E+02  0.4656E+03
      6.539  0.1605E+02  0.4713E+03
      6.634  0.6274E+01  0.4750E+03
      6.729  0.6902E-04  0.4788E+03
      6.824  0.2636E+01  0.4821E+03
      6.919  0.5786E+01  0.4860E+03
      7.014  0.2471E-02  0.4897E+03
      7.109  0.2977E+01  0.4935E+03
      7.204  0.4943E-06  0.4982E+03
      7.299  0.2316E+01  0.5023E+03
      7.394  0.6238E+01  0.5062E+03
      7.489  0.6170E+01  0.5095E+03
      7.584  0.0000E+00  0.5119E+03
      7.679  0.0000E+00  0.5120E+03
      7.774  0.0000E+00  0.5120E+03
      7.869  0.0000E+00  0.5120E+03
      7.964  0.0000E+00  0.5120E+03
      8.059  0.0000E+00  0.5120E+03
      8.154  0.0000E+00  0.5120E+03
      8.249  0.0000E+00  0.5120E+03
      8.344  0.0000E+00  0.5120E+03
      8.439  0.0000E+00  0.5120E+03
      8.534  0.0000E+00  0.5120E+03
      8.629  0.0000E+00  0.5120E+03
      8.724  0.0000E+00  0.5120E+03
      8.819  0.0000E+00  0.5120E+03
      8.914  0.0000E+00  0.5120E+03
