 running on   24 total cores
 distrk:  each k-point on   24 cores,    1 groups
 distr:  one band on    3 cores,    8 groups
 using from now: INCAR     
 vasp.5.4.1 24Jun15 (build Nov 25 2015 16:01:35) complex                        
  
 POSCAR found type information on POSCAR  C  N  H  Pb I 
 POSCAR found :  5 types and      96 ions
 scaLAPACK will be used

 ----------------------------------------------------------------------------- 
|                                                                             |
|  ADVICE TO THIS USER RUNNING 'VASP/VAMP'   (HEAR YOUR MASTER'S VOICE ...):  |
|                                                                             |
|      You have a (more or less) 'large supercell' and for larger cells       |
|      it might be more efficient to use real space projection opertators     |
|      So try LREAL= Auto  in the INCAR   file.                               |
|      Mind: At the moment your POTCAR file does not contain real space       |
|       projectors, and has to be modified,  BUT if you                       |
|      want to do an extremely  accurate calculation you might also keep the  |
|      reciprocal projection scheme          (i.e. LREAL=.FALSE.)             |
|                                                                             |
 ----------------------------------------------------------------------------- 


 ----------------------------------------------------------------------------- 
|                                                                             |
|  ADVICE TO THIS USER RUNNING 'VASP/VAMP'   (HEAR YOUR MASTER'S VOICE ...):  |
|                                                                             |
|      You enforced a specific xc-type in the INCAR file,                     |
|      a different type was found on the POTCAR file                          |
|          I HOPE YOU KNOW, WHAT YOU ARE  DOING                               |
|                                                                             |
 ----------------------------------------------------------------------------- 

 LDA part: xc-table for Pade appr. of Perdew
 POSCAR, INCAR and KPOINTS ok, starting setup
 WARNING: small aliasing (wrap around) errors must be expected
 FFT: planning ...
 WAVECAR not read
 entering main loop
       N       E                     dE             d eps       ncg     rms          rms(c)
DAV:   1     0.360212102013E+04    0.36021E+04   -0.18948E+05  7176   0.170E+03
DAV:   2     0.198139565556E+03   -0.34040E+04   -0.32061E+04  8016   0.355E+02
DAV:   3    -0.398762666056E+03   -0.59690E+03   -0.58835E+03  9456   0.172E+02
DAV:   4    -0.438648657067E+03   -0.39886E+02   -0.39715E+02  9600   0.488E+01
DAV:   5    -0.440172699649E+03   -0.15240E+01   -0.15218E+01  9760   0.925E+00    0.297E+01
DAV:   6    -0.419544443841E+03    0.20628E+02   -0.41692E+01  9440   0.103E+01    0.157E+01
DAV:   7    -0.417064213615E+03    0.24802E+01   -0.14657E+01 10208   0.638E+00    0.781E+00
DAV:   8    -0.416892977687E+03    0.17124E+00   -0.30414E+00  8608   0.318E+00    0.183E+00
DAV:   9    -0.416821486239E+03    0.71491E-01   -0.74493E-01  9408   0.175E+00    0.732E-01
DAV:  10    -0.416833491795E+03   -0.12006E-01   -0.11023E-01  9000   0.595E-01    0.456E-01
DAV:  11    -0.416833350145E+03    0.14165E-03   -0.13208E-02  9896   0.268E-01    0.201E-01
DAV:  12    -0.416834728750E+03   -0.13786E-02   -0.93282E-03  9808   0.154E-01    0.106E-01
DAV:  13    -0.416834875106E+03   -0.14636E-03   -0.13582E-03  8432   0.767E-02    0.725E-02
DAV:  14    -0.416834917367E+03   -0.42261E-04   -0.27682E-04  8592   0.290E-02    0.319E-02
DAV:  15    -0.416834961172E+03   -0.43804E-04   -0.15379E-04  8200   0.204E-02    0.119E-02
DAV:  16    -0.416834965004E+03   -0.38325E-05   -0.14652E-05 10504   0.734E-03    0.122E-02
DAV:  17    -0.416834964905E+03    0.99462E-07   -0.39599E-06  8208   0.350E-03    0.538E-03
DAV:  18    -0.416834964945E+03   -0.39829E-07   -0.86805E-06  9080   0.464E-03    0.378E-03
DAV:  19    -0.416834964921E+03    0.23982E-07   -0.87435E-07  7936   0.218E-03    0.238E-03
DAV:  20    -0.416834964931E+03   -0.10510E-07   -0.48776E-07  8552   0.108E-03    0.417E-04
DAV:  21    -0.416834964965E+03   -0.34026E-07   -0.42467E-08  6256   0.471E-04    0.388E-04
DAV:  22    -0.416834964965E+03    0.54570E-09   -0.69776E-09  4864   0.265E-04
   1 F= -.41683496E+03 E0= -.41683496E+03  d E =0.000000E+00
Application 22074930 resources: utime ~165785s, stime ~98s, Rss ~640332, inblocks ~184891, outblocks ~194552
