  96  96   0   0
  0.2080188E+02  0.1257760E-08  0.1245754E-08  0.1274818E-08  0.5000000E-15
  1.000000000000000E-004
  CAR 
 MAPbI3-Cubic                            
     10.63007304    -19.66446102  301      1.56695827      1.00000000
    -19.664  0.0000E+00  0.0000E+00
    -19.563  0.0000E+00  0.0000E+00
    -19.462  0.0000E+00  0.0000E+00
    -19.362  0.0000E+00  0.0000E+00
    -19.261  0.0000E+00  0.0000E+00
    -19.160  0.0000E+00  0.0000E+00
    -19.059  0.0000E+00  0.0000E+00
    -18.958  0.0000E+00  0.0000E+00
    -18.857  0.0000E+00  0.0000E+00
    -18.756  0.0000E+00  0.0000E+00
    -18.655  0.0000E+00  0.0000E+00
    -18.554  0.0000E+00  0.0000E+00
    -18.453  0.0000E+00  0.0000E+00
    -18.352  0.0000E+00  0.0000E+00
    -18.251  0.0000E+00  0.1600E+02
    -18.150  0.0000E+00  0.1600E+02
    -18.049  0.0000E+00  0.1600E+02
    -17.948  0.0000E+00  0.1600E+02
    -17.847  0.0000E+00  0.1600E+02
    -17.746  0.0000E+00  0.1600E+02
    -17.645  0.0000E+00  0.1600E+02
    -17.544  0.0000E+00  0.1600E+02
    -17.443  0.0000E+00  0.1600E+02
    -17.342  0.0000E+00  0.1600E+02
    -17.241  0.0000E+00  0.1600E+02
    -17.140  0.0000E+00  0.1600E+02
    -17.039  0.0000E+00  0.1600E+02
    -16.938  0.0000E+00  0.1600E+02
    -16.837  0.0000E+00  0.1600E+02
    -16.736  0.0000E+00  0.1600E+02
    -16.635  0.0000E+00  0.1600E+02
    -16.534  0.0000E+00  0.1600E+02
    -16.433  0.0000E+00  0.1600E+02
    -16.332  0.0000E+00  0.4800E+02
    -16.231  0.0000E+00  0.4800E+02
    -16.130  0.0000E+00  0.4800E+02
    -16.029  0.0000E+00  0.4800E+02
    -15.928  0.0000E+00  0.4800E+02
    -15.827  0.0000E+00  0.4800E+02
    -15.726  0.0000E+00  0.4800E+02
    -15.625  0.0000E+00  0.4800E+02
    -15.524  0.0000E+00  0.4800E+02
    -15.423  0.0000E+00  0.4800E+02
    -15.322  0.0000E+00  0.4800E+02
    -15.221  0.0000E+00  0.4800E+02
    -15.120  0.0000E+00  0.4800E+02
    -15.019  0.0000E+00  0.4800E+02
    -14.918  0.0000E+00  0.4800E+02
    -14.817  0.0000E+00  0.4800E+02
    -14.716  0.0000E+00  0.4800E+02
    -14.615  0.0000E+00  0.4800E+02
    -14.514  0.0000E+00  0.4800E+02
    -14.413  0.0000E+00  0.4800E+02
    -14.312  0.0000E+00  0.4800E+02
    -14.211  0.0000E+00  0.4800E+02
    -14.110  0.0000E+00  0.4800E+02
    -14.009  0.0000E+00  0.4800E+02
    -13.908  0.0000E+00  0.4800E+02
    -13.808  0.0000E+00  0.9600E+02
    -13.707  0.0000E+00  0.9600E+02
    -13.606  0.0000E+00  0.9600E+02
    -13.505  0.0000E+00  0.9600E+02
    -13.404  0.0000E+00  0.9600E+02
    -13.303  0.0000E+00  0.9600E+02
    -13.202  0.0000E+00  0.9600E+02
    -13.101  0.0000E+00  0.9600E+02
    -13.000  0.0000E+00  0.9600E+02
    -12.899  0.0000E+00  0.9600E+02
    -12.798  0.0000E+00  0.9600E+02
    -12.697  0.0000E+00  0.9600E+02
    -12.596  0.0000E+00  0.9600E+02
    -12.495  0.0000E+00  0.9600E+02
    -12.394  0.0000E+00  0.9600E+02
    -12.293  0.0000E+00  0.9600E+02
    -12.192  0.0000E+00  0.9600E+02
    -12.091  0.0000E+00  0.9600E+02
    -11.990  0.0000E+00  0.9600E+02
    -11.889  0.0000E+00  0.9600E+02
    -11.788  0.0000E+00  0.9600E+02
    -11.687  0.0000E+00  0.9600E+02
    -11.586  0.0000E+00  0.9600E+02
    -11.485  0.0000E+00  0.9600E+02
    -11.384  0.2232E+01  0.9623E+02
    -11.283  0.0000E+00  0.1120E+03
    -11.182  0.0000E+00  0.1120E+03
    -11.081  0.0000E+00  0.1120E+03
    -10.980  0.0000E+00  0.1120E+03
    -10.879  0.0000E+00  0.1120E+03
    -10.778  0.0000E+00  0.1125E+03
    -10.677  0.1467E+01  0.1150E+03
    -10.576  0.8063E+01  0.1215E+03
    -10.475  0.8226E+01  0.1278E+03
    -10.374  0.2643E+01  0.1294E+03
    -10.273  0.1017E+02  0.1387E+03
    -10.172  0.2181E+01  0.1424E+03
    -10.071  0.6630E+01  0.1478E+03
     -9.970  0.6234E+01  0.1560E+03
     -9.869  0.0000E+00  0.1600E+03
     -9.768  0.0000E+00  0.1600E+03
     -9.667  0.0000E+00  0.1600E+03
     -9.566  0.0000E+00  0.1600E+03
     -9.465  0.0000E+00  0.1600E+03
     -9.364  0.0000E+00  0.1600E+03
     -9.263  0.0000E+00  0.1600E+03
     -9.162  0.0000E+00  0.1600E+03
     -9.061  0.0000E+00  0.1600E+03
     -8.960  0.0000E+00  0.1600E+03
     -8.859  0.0000E+00  0.1600E+03
     -8.758  0.0000E+00  0.1600E+03
     -8.657  0.0000E+00  0.1600E+03
     -8.556  0.0000E+00  0.1600E+03
     -8.455  0.0000E+00  0.1600E+03
     -8.355  0.0000E+00  0.1600E+03
     -8.254  0.0000E+00  0.1600E+03
     -8.153  0.0000E+00  0.1600E+03
     -8.052  0.0000E+00  0.1600E+03
     -7.951  0.0000E+00  0.1600E+03
     -7.850  0.0000E+00  0.1600E+03
     -7.749  0.2201E+01  0.1680E+03
     -7.648  0.2494E+02  0.1880E+03
     -7.547  0.0000E+00  0.1920E+03
     -7.446  0.0000E+00  0.1920E+03
     -7.345  0.0000E+00  0.1920E+03
     -7.244  0.0000E+00  0.1920E+03
     -7.143  0.0000E+00  0.1920E+03
     -7.042  0.0000E+00  0.1920E+03
     -6.941  0.0000E+00  0.1921E+03
     -6.840  0.0000E+00  0.1921E+03
     -6.739  0.0000E+00  0.1925E+03
     -6.638  0.0000E+00  0.1934E+03
     -6.537  0.1467E+01  0.1943E+03
     -6.436  0.1475E+01  0.1952E+03
     -6.335  0.2934E+01  0.1967E+03
     -6.234  0.1467E+01  0.1990E+03
     -6.133  0.2874E+01  0.2006E+03
     -6.032  0.2965E+01  0.2028E+03
     -5.931  0.6289E-13  0.2041E+03
     -5.830  0.1428E+02  0.2115E+03
     -5.729  0.1381E+01  0.2218E+03
     -5.628  0.0000E+00  0.2226E+03
     -5.527  0.0000E+00  0.2235E+03
     -5.426  0.0000E+00  0.2239E+03
     -5.325  0.0000E+00  0.2239E+03
     -5.224  0.0000E+00  0.2240E+03
     -5.123  0.0000E+00  0.2240E+03
     -5.022  0.0000E+00  0.2240E+03
     -4.921  0.0000E+00  0.2240E+03
     -4.820  0.0000E+00  0.2240E+03
     -4.719  0.0000E+00  0.2240E+03
     -4.618  0.0000E+00  0.2240E+03
     -4.517  0.0000E+00  0.2240E+03
     -4.416  0.0000E+00  0.2240E+03
     -4.315  0.0000E+00  0.2240E+03
     -4.214  0.0000E+00  0.2240E+03
     -4.113  0.0000E+00  0.2240E+03
     -4.012  0.0000E+00  0.2240E+03
     -3.911  0.0000E+00  0.2240E+03
     -3.810  0.0000E+00  0.2240E+03
     -3.709  0.0000E+00  0.2240E+03
     -3.608  0.1402E+02  0.2266E+03
     -3.507  0.1891E+02  0.2558E+03
     -3.406  0.0000E+00  0.2560E+03
     -3.305  0.0000E+00  0.2560E+03
     -3.204  0.0000E+00  0.2560E+03
     -3.103  0.0000E+00  0.2560E+03
     -3.002  0.0000E+00  0.2560E+03
     -2.901  0.0000E+00  0.2560E+03
     -2.801  0.0000E+00  0.2560E+03
     -2.700  0.0000E+00  0.2560E+03
     -2.599  0.0000E+00  0.2560E+03
     -2.498  0.0000E+00  0.2560E+03
     -2.397  0.0000E+00  0.2560E+03
     -2.296  0.0000E+00  0.2560E+03
     -2.195  0.2201E+01  0.2563E+03
     -2.094  0.2200E+01  0.2587E+03
     -1.993  0.1504E+01  0.2617E+03
     -1.892  0.4538E+00  0.2638E+03
     -1.791  0.1469E+01  0.2667E+03
     -1.690  0.5741E+00  0.2709E+03
     -1.589  0.4367E+01  0.2745E+03
     -1.488  0.7442E+00  0.2781E+03
     -1.387  0.1421E+01  0.2798E+03
     -1.286  0.1530E-01  0.2800E+03
     -1.185  0.3115E+01  0.2830E+03
     -1.084  0.0000E+00  0.2856E+03
     -0.983  0.5004E+01  0.2905E+03
     -0.882  0.2224E+01  0.2956E+03
     -0.781  0.3672E+01  0.2993E+03
     -0.680  0.3981E+00  0.3020E+03
     -0.579  0.2924E+01  0.3056E+03
     -0.478  0.6703E+01  0.3107E+03
     -0.377  0.4402E+01  0.3178E+03
     -0.276  0.3866E+01  0.3212E+03
     -0.175  0.1004E+02  0.3266E+03
     -0.074  0.1170E+02  0.3338E+03
      0.027  0.8262E+01  0.3423E+03
      0.128  0.1467E+01  0.3500E+03
      0.229  0.5147E+01  0.3535E+03
      0.330  0.4974E+01  0.3584E+03
      0.431  0.1977E+01  0.3628E+03
      0.532  0.1625E+01  0.3691E+03
      0.633  0.3272E+01  0.3763E+03
      0.734  0.4266E+01  0.3835E+03
      0.835  0.2390E+01  0.3911E+03
      0.936  0.7335E+00  0.3943E+03
      1.037  0.1467E+01  0.3966E+03
      1.138  0.0000E+00  0.3981E+03
      1.239  0.0000E+00  0.3993E+03
      1.340  0.0000E+00  0.3995E+03
      1.441  0.4049E+00  0.3999E+03
      1.542  0.7335E+00  0.4000E+03
      1.643  0.0000E+00  0.4000E+03
      1.744  0.0000E+00  0.4000E+03
      1.845  0.0000E+00  0.4000E+03
      1.946  0.0000E+00  0.4000E+03
      2.047  0.0000E+00  0.4000E+03
      2.148  0.0000E+00  0.4000E+03
      2.249  0.0000E+00  0.4001E+03
      2.350  0.7335E+00  0.4002E+03
      2.451  0.0000E+00  0.4003E+03
      2.552  0.0000E+00  0.4004E+03
      2.653  0.1635E-02  0.4006E+03
      2.753  0.0000E+00  0.4011E+03
      2.854  0.1467E+01  0.4018E+03
      2.955  0.0000E+00  0.4021E+03
      3.056  0.0000E+00  0.4028E+03
      3.157  0.1544E+01  0.4036E+03
      3.258  0.5481E+00  0.4044E+03
      3.359  0.0000E+00  0.4052E+03
      3.460  0.2934E+01  0.4066E+03
      3.561  0.7335E+00  0.4081E+03
      3.662  0.1459E+01  0.4092E+03
      3.763  0.0000E+00  0.4093E+03
      3.864  0.4536E+00  0.4104E+03
      3.965  0.0000E+00  0.4117E+03
      4.066  0.4002E-08  0.4131E+03
      4.167  0.2266E+01  0.4145E+03
      4.268  0.1213E-13  0.4161E+03
      4.369  0.1479E+01  0.4179E+03
      4.470  0.1743E-06  0.4198E+03
      4.571  0.2691E-01  0.4209E+03
      4.672  0.1311E-09  0.4220E+03
      4.773  0.1304E-06  0.4227E+03
      4.874  0.2912E+01  0.4238E+03
      4.975  0.3667E+01  0.4247E+03
      5.076  0.1406E+01  0.4252E+03
      5.177  0.0000E+00  0.4261E+03
      5.278  0.5277E+00  0.4272E+03
      5.379  0.1467E+01  0.4290E+03
      5.480  0.4453E+01  0.4317E+03
      5.581  0.1467E+01  0.4347E+03
      5.682  0.5703E+01  0.4376E+03
      5.783  0.4350E+01  0.4401E+03
      5.884  0.1467E+01  0.4426E+03
      5.985  0.1671E+01  0.4451E+03
      6.086  0.2026E-02  0.4489E+03
      6.187  0.2918E+01  0.4537E+03
      6.288  0.1467E+01  0.4581E+03
      6.389  0.2722E+01  0.4620E+03
      6.490  0.7611E+01  0.4675E+03
      6.591  0.3871E+01  0.4731E+03
      6.692  0.1597E+01  0.4774E+03
      6.793  0.2014E+01  0.4806E+03
      6.894  0.2789E+01  0.4846E+03
      6.995  0.2841E+01  0.4892E+03
      7.096  0.4547E+01  0.4931E+03
      7.197  0.4264E+01  0.4979E+03
      7.298  0.8368E+00  0.5020E+03
      7.399  0.8102E-06  0.5069E+03
      7.500  0.3357E+01  0.5109E+03
      7.601  0.3272E+01  0.5161E+03
      7.702  0.5993E+01  0.5220E+03
      7.803  0.1032E+01  0.5269E+03
      7.904  0.4120E+01  0.5326E+03
      8.005  0.6023E+01  0.5374E+03
      8.106  0.3361E+01  0.5417E+03
      8.207  0.3227E+01  0.5468E+03
      8.307  0.3088E+01  0.5531E+03
      8.408  0.5521E+01  0.5595E+03
      8.509  0.1978E+01  0.5653E+03
      8.610  0.4209E+01  0.5710E+03
      8.711  0.5067E+01  0.5773E+03
      8.812  0.4370E+01  0.5824E+03
      8.913  0.3094E+01  0.5884E+03
      9.014  0.1755E+01  0.5940E+03
      9.115  0.3186E+01  0.5978E+03
      9.216  0.5022E+00  0.5998E+03
      9.317  0.0000E+00  0.6000E+03
      9.418  0.0000E+00  0.6000E+03
      9.519  0.0000E+00  0.6000E+03
      9.620  0.0000E+00  0.6000E+03
      9.721  0.0000E+00  0.6000E+03
      9.822  0.0000E+00  0.6000E+03
      9.923  0.0000E+00  0.6000E+03
     10.024  0.0000E+00  0.6000E+03
     10.125  0.0000E+00  0.6000E+03
     10.226  0.0000E+00  0.6000E+03
     10.327  0.0000E+00  0.6000E+03
     10.428  0.0000E+00  0.6000E+03
     10.529  0.0000E+00  0.6000E+03
     10.630  0.0000E+00  0.6000E+03
