 vasp.5.4.1 24Jun15 (build Nov 25 2015 16:39:35) complex                        
  
 executed on         CrayXC-Intel date 2016.06.22  00:47:58
 running on  192 total cores
 distrk:  each k-point on  192 cores,    1 groups
 distr:  one band on NCORES_PER_BAND=  24 cores,    8 groups


--------------------------------------------------------------------------------------------------------


 INCAR:
 POTCAR:    PAW_PBE C 08Apr2002                   
 POTCAR:    PAW_PBE N 08Apr2002                   
 POTCAR:    PAW_PBE H 15Jun2001                   
 POTCAR:    PAW_PBE Pb_d 06Sep2000                
 POTCAR:    PAW_PBE I 08Apr2002                   
 POTCAR:    PAW_PBE C 08Apr2002                   
   VRHFIN =C: s2p2                                                              
   LEXCH  = PE                                                                  
   EATOM  =   147.1560 eV,   10.8157 Ry                                         
                                                                                
   TITEL  = PAW_PBE C 08Apr2002                                                 
   LULTRA =        F    use ultrasoft PP ?                                      
   IUNSCR =        1    unscreen: 0-lin 1-nonlin 2-no                           
   RPACOR =    1.200    partial core radius                                     
   POMASS =   12.011; ZVAL   =    4.000    mass and valenz                      
   RCORE  =    1.500    outmost cutoff radius                                   
   RWIGS  =    1.630; RWIGS  =    0.863    wigner-seitz radius (au A)           
   ENMAX  =  400.000; ENMIN  =  300.000 eV                                      
   ICORE  =        2    local potential                                         
   LCOR   =        T    correct aug charges                                     
   LPAW   =        T    paw PP                                                  
   EAUG   =  644.873                                                            
   DEXC   =    0.000                                                            
   RMAX   =    1.529    core radius for proj-oper                               
   RAUG   =    1.300    factor for augmentation sphere                          
   RDEP   =    1.501    radius for radial grids                                 
   RDEPT  =    1.300    core radius for aug-charge                              
                                                                                
   Atomic configuration                                                         
    4 entries                                                                   
     n  l   j            E        occ.                                          
     1  0  0.50      -273.3789   2.0000                                         
     2  0  0.50       -13.7508   2.0000                                         
     2  1  0.50        -5.2854   2.0000                                         
     3  2  1.50        -5.4423   0.0000                                         
   Description                                                                  
     l       E           TYP  RCUT    TYP  RCUT                                 
     0    -13.7508458     23  1.200                                             
     0     -8.2022199     23  1.200                                             
     1     -5.2854383     23  1.500                                             
     1     34.0145650     23  1.500                                             
     2     -5.4423304      7  1.500                                             
  local pseudopotential read in
  partial core-charges read in
  partial kinetic energy density read in
  atomic valenz-charges read in
  non local Contribution for L=           0  read in
    real space projection operators read in
  non local Contribution for L=           0  read in
    real space projection operators read in
  non local Contribution for L=           1  read in
    real space projection operators read in
  non local Contribution for L=           1  read in
    real space projection operators read in
    PAW grid and wavefunctions read in
 
   number of l-projection  operators is LMAX  =           4
   number of lm-projection operators is LMMAX =           8
 
 POTCAR:    PAW_PBE N 08Apr2002                   
   VRHFIN =N: s2p3                                                              
   LEXCH  = PE                                                                  
   EATOM  =   264.5486 eV,   19.4438 Ry                                         
                                                                                
   TITEL  = PAW_PBE N 08Apr2002                                                 
   LULTRA =        F    use ultrasoft PP ?                                      
   IUNSCR =        1    unscreen: 0-lin 1-nonlin 2-no                           
   RPACOR =    1.200    partial core radius                                     
   POMASS =   14.001; ZVAL   =    5.000    mass and valenz                      
   RCORE  =    1.500    outmost cutoff radius                                   
   RWIGS  =    1.400; RWIGS  =    0.741    wigner-seitz radius (au A)           
   ENMAX  =  400.000; ENMIN  =  300.000 eV                                      
   ICORE  =        2    local potential                                         
   LCOR   =        T    correct aug charges                                     
   LPAW   =        T    paw PP                                                  
   EAUG   =  627.112                                                            
   DEXC   =    0.000                                                            
   RMAX   =    1.529    core radius for proj-oper                               
   RAUG   =    1.300    factor for augmentation sphere                          
   RDEP   =    1.514    radius for radial grids                                 
   RDEPT  =    1.338    core radius for aug-charge                              
                                                                                
   Atomic configuration                                                         
    4 entries                                                                   
     n  l   j            E        occ.                                          
     1  0  0.50      -384.7179   2.0000                                         
     2  0  0.50       -18.5828   2.0000                                         
     2  1  0.50        -7.0898   3.0000                                         
     3  2  1.50        -6.8029   0.0000                                         
   Description                                                                  
     l       E           TYP  RCUT    TYP  RCUT                                 
     0    -18.5828119     23  1.200                                             
     0    -13.5018863     23  1.200                                             
     1     -7.0897853     23  1.500                                             
     1      9.5240782     23  1.500                                             
     2     -6.8029130      7  1.500                                             
  local pseudopotential read in
  partial core-charges read in
  partial kinetic energy density read in
  atomic valenz-charges read in
  non local Contribution for L=           0  read in
    real space projection operators read in
  non local Contribution for L=           0  read in
    real space projection operators read in
  non local Contribution for L=           1  read in
    real space projection operators read in
  non local Contribution for L=           1  read in
    real space projection operators read in
    PAW grid and wavefunctions read in
 
   number of l-projection  operators is LMAX  =           4
   number of lm-projection operators is LMMAX =           8
 
 POTCAR:    PAW_PBE H 15Jun2001                   
   VRHFIN =H: ultrasoft test                                                    
   LEXCH  = PE                                                                  
   EATOM  =    12.4884 eV,    0.9179 Ry                                         
                                                                                
   TITEL  = PAW_PBE H 15Jun2001                                                 
   LULTRA =        F    use ultrasoft PP ?                                      
   IUNSCR =        0    unscreen: 0-lin 1-nonlin 2-no                           
   RPACOR =    0.000    partial core radius                                     
   POMASS =    1.000; ZVAL   =    1.000    mass and valenz                      
   RCORE  =    1.100    outmost cutoff radius                                   
   RWIGS  =    0.700; RWIGS  =    0.370    wigner-seitz radius (au A)           
   ENMAX  =  250.000; ENMIN  =  200.000 eV                                      
   RCLOC  =    0.701    cutoff for local pot                                    
   LCOR   =        T    correct aug charges                                     
   LPAW   =        T    paw PP                                                  
   EAUG   =  400.000                                                            
   RMAX   =    1.123    core radius for proj-oper                               
   RAUG   =    1.200    factor for augmentation sphere                          
   RDEP   =    1.112    radius for radial grids                                 
   RDEPT  =    0.926    core radius for aug-charge                              
                                                                                
   Atomic configuration                                                         
    2 entries                                                                   
     n  l   j            E        occ.                                          
     1  0  0.50        -6.4927   1.0000                                         
     2  1  0.50        -3.4015   0.0000                                         
   Description                                                                  
     l       E           TYP  RCUT    TYP  RCUT                                 
     0     -6.4927494     23  1.100                                             
     0      6.8029130     23  1.100                                             
     1     -4.0817478     23  1.100                                             
  local pseudopotential read in
  atomic valenz-charges read in
  non local Contribution for L=           0  read in
    real space projection operators read in
  non local Contribution for L=           0  read in
    real space projection operators read in
  non local Contribution for L=           1  read in
    real space projection operators read in
    PAW grid and wavefunctions read in
 
   number of l-projection  operators is LMAX  =           3
   number of lm-projection operators is LMMAX =           5
 
 POTCAR:    PAW_PBE Pb_d 06Sep2000                
   VRHFIN =Pb:                                                                  
   LEXCH  = PE                                                                  
   EATOM  =  1661.6185 eV,  122.1255 Ry                                         
                                                                                
   TITEL  = PAW_PBE Pb_d 06Sep2000                                              
   LULTRA =        F    use ultrasoft PP ?                                      
   IUNSCR =        1    unscreen: 0-lin 1-nonlin 2-no                           
   RPACOR =    2.200    partial core radius                                     
   POMASS =  207.200; ZVAL   =   14.000    mass and valenz                      
   RCORE  =    2.500    outmost cutoff radius                                   
   RWIGS  =    3.260; RWIGS  =    1.725    wigner-seitz radius (au A)           
   ENMAX  =  237.835; ENMIN  =  178.376 eV                                      
   ICORE  =        3    local potential                                         
   LCOR   =        T    correct aug charges                                     
   LPAW   =        T    paw PP                                                  
   EAUG   =  391.914                                                            
   DEXC   =    0.000                                                            
   RMAX   =    2.565    core radius for proj-oper                               
   RAUG   =    1.300    factor for augmentation sphere                          
   RDEP   =    2.643    radius for radial grids                                 
   RDEPT  =    2.092    core radius for aug-charge                              
                                                                                
   Atomic configuration                                                         
   16 entries                                                                   
     n  l   j            E        occ.                                          
     1  0  0.50    -88091.8466   2.0000                                         
     2  0  0.50    -15753.4197   2.0000                                         
     2  1  1.50    -13508.1797   6.0000                                         
     3  0  0.50     -3781.7194   2.0000                                         
     3  1  1.50     -3138.2529   6.0000                                         
     3  2  2.50     -2483.2977  10.0000                                         
     4  0  0.50      -856.2895   2.0000                                         
     4  1  1.50      -645.4942   6.0000                                         
     4  2  2.50      -401.8768  10.0000                                         
     4  3  3.50      -132.9059  14.0000                                         
     5  0  0.50      -144.0950   2.0000                                         
     5  1  1.50       -85.7879   6.0000                                         
     5  2  2.50       -21.1769  10.0000                                         
     6  0  0.50       -12.0372   2.0000                                         
     6  1  1.50        -3.4971   2.0000                                         
     5  3  2.50        -2.7212   0.0000                                         
   Description                                                                  
     l       E           TYP  RCUT    TYP  RCUT                                 
     2    -21.1768523     23  2.500                                             
     2      1.3605826     23  2.500                                             
     0    -12.0371562     23  2.500                                             
     0     13.6058260     23  2.500                                             
     1     -3.4971339     23  2.500                                             
     1     13.6058260     23  2.500                                             
     3     -1.3605826      7  2.500                                             
  local pseudopotential read in
  partial core-charges read in
  partial kinetic energy density read in
  atomic valenz-charges read in
  non local Contribution for L=           2  read in
    real space projection operators read in
  non local Contribution for L=           2  read in
    real space projection operators read in
  non local Contribution for L=           0  read in
    real space projection operators read in
  non local Contribution for L=           0  read in
    real space projection operators read in
  non local Contribution for L=           1  read in
    real space projection operators read in
  non local Contribution for L=           1  read in
    real space projection operators read in
    PAW grid and wavefunctions read in
 
   number of l-projection  operators is LMAX  =           6
   number of lm-projection operators is LMMAX =          18
 
 POTCAR:    PAW_PBE I 08Apr2002                   
   VRHFIN =I : s2p5                                                             
   LEXCH  = PE                                                                  
   EATOM  =   315.8678 eV,   23.2156 Ry                                         
                                                                                
   TITEL  = PAW_PBE I 08Apr2002                                                 
   LULTRA =        F    use ultrasoft PP ?                                      
   IUNSCR =        1    unscreen: 0-lin 1-nonlin 2-no                           
   RPACOR =    2.200    partial core radius                                     
   POMASS =  126.904; ZVAL   =    7.000    mass and valenz                      
   RCORE  =    2.300    outmost cutoff radius                                   
   RWIGS  =    2.810; RWIGS  =    1.487    wigner-seitz radius (au A)           
   ENMAX  =  175.647; ENMIN  =  131.735 eV                                      
   ICORE  =        3    local potential                                         
   LCOR   =        T    correct aug charges                                     
   LPAW   =        T    paw PP                                                  
   EAUG   =  370.139                                                            
   DEXC   =    0.000                                                            
   RMAX   =    2.359    core radius for proj-oper                               
   RAUG   =    1.300    factor for augmentation sphere                          
   RDEP   =    2.392    radius for radial grids                                 
   RDEPT  =    2.170    core radius for aug-charge                              
                                                                                
   Atomic configuration                                                         
   13 entries                                                                   
     n  l   j            E        occ.                                          
     1  0  0.50    -32976.3739   2.0000                                         
     2  0  0.50     -5094.5933   2.0000                                         
     2  1  1.50     -4572.0131   6.0000                                         
     3  0  0.50     -1028.2813   2.0000                                         
     3  1  1.50      -859.0250   6.0000                                         
     3  2  2.50      -605.7620  10.0000                                         
     4  0  0.50      -180.5540   2.0000                                         
     4  1  1.50      -127.5306   6.0000                                         
     4  2  2.50       -50.2720  10.0000                                         
     5  0  0.50       -17.4058   2.0000                                         
     5  1  0.50        -7.0851   5.0000                                         
     5  2  1.50        -7.0750   0.0000                                         
     4  3  2.50        -7.0750   0.0000                                         
   Description                                                                  
     l       E           TYP  RCUT    TYP  RCUT                                 
     0    -17.4058016     23  2.300                                             
     0    -18.7663842     23  2.300                                             
     1     -7.0850686     23  2.300                                             
     1     -4.2150896     23  2.300                                             
     2     -7.0750295     23  2.300                                             
     3     -1.3605826     23  2.300                                             
  local pseudopotential read in
  partial core-charges read in
  partial kinetic energy density read in
  atomic valenz-charges read in
  non local Contribution for L=           0  read in
    real space projection operators read in
  non local Contribution for L=           0  read in
    real space projection operators read in
  non local Contribution for L=           1  read in
    real space projection operators read in
  non local Contribution for L=           1  read in
    real space projection operators read in
  non local Contribution for L=           2  read in
    real space projection operators read in
    PAW grid and wavefunctions read in
 
   number of l-projection  operators is LMAX  =           5
   number of lm-projection operators is LMMAX =          13
 

 ----------------------------------------------------------------------------- 
|                                                                             |
|  ADVICE TO THIS USER RUNNING 'VASP/VAMP'   (HEAR YOUR MASTER'S VOICE ...):  |
|                                                                             |
|      You have a (more or less) 'large supercell' and for larger cells       |
|      it might be more efficient to use real space projection opertators     |
|      So try LREAL= Auto  in the INCAR   file.                               |
|      Mind: At the moment your POTCAR file does not contain real space       |
|       projectors, and has to be modified,  BUT if you                       |
|      want to do an extremely  accurate calculation you might also keep the  |
|      reciprocal projection scheme          (i.e. LREAL=.FALSE.)             |
|                                                                             |
 ----------------------------------------------------------------------------- 


 ----------------------------------------------------------------------------- 
|                                                                             |
|  ADVICE TO THIS USER RUNNING 'VASP/VAMP'   (HEAR YOUR MASTER'S VOICE ...):  |
|                                                                             |
|      You enforced a specific xc-type in the INCAR file,                     |
|      a different type was found on the POTCAR file                          |
|          I HOPE YOU KNOW, WHAT YOU ARE  DOING                               |
|                                                                             |
 ----------------------------------------------------------------------------- 

  PAW_PBE C 08Apr2002                   :
 energy of atom  1       EATOM= -147.1560
 kinetic energy error for atom=    0.0032 (will be added to EATOM!!)
  PAW_PBE N 08Apr2002                   :
 energy of atom  2       EATOM= -264.5486
 kinetic energy error for atom=    0.0061 (will be added to EATOM!!)
  PAW_PBE H 15Jun2001                   :
 energy of atom  3       EATOM=  -12.4884
 kinetic energy error for atom=    0.0002 (will be added to EATOM!!)
  PAW_PBE Pb_d 06Sep2000                :
 energy of atom  4       EATOM=-1661.6185
 kinetic energy error for atom=    0.0012 (will be added to EATOM!!)
  PAW_PBE I 08Apr2002                   :
 energy of atom  5       EATOM= -315.8678
 kinetic energy error for atom=    0.0003 (will be added to EATOM!!)
 
 
 POSCAR: C N H Pb I                              
  positions in direct lattice
  No initial velocities read in
 exchange correlation table for  LEXCH =       14
   RHO(1)=    0.500       N(1)  =     2000
   RHO(2)=  100.500       N(2)  =     4000
 


--------------------------------------------------------------------------------------------------------


 ion  position               nearest neighbor table
   1  0.201  0.250  0.222-  25 1.10  33 1.10  17 1.10   9 1.48
   2  0.693  0.250  0.236-  26 1.10  34 1.10  18 1.10  10 1.48
   3  0.193  0.750  0.236-  27 1.10  35 1.10  19 1.10  11 1.48
   4  0.701  0.750  0.222-  28 1.10  36 1.10  20 1.10  12 1.48
   5  0.201  0.250  0.722-  29 1.10  37 1.10  21 1.10  13 1.48
   6  0.693  0.250  0.736-  30 1.10  38 1.10  22 1.10  14 1.48
   7  0.193  0.750  0.736-  31 1.10  39 1.10  23 1.10  15 1.48
   8  0.701  0.750  0.722-  32 1.10  40 1.10  24 1.10  16 1.48
   9  0.306  0.250  0.274-  57 1.04  41 1.05  49 1.05   1 1.48
  10  0.803  0.250  0.273-  42 1.05  50 1.05  58 1.05   2 1.48
  11  0.303  0.750  0.273-  43 1.05  51 1.05  59 1.05   3 1.48
  12  0.806  0.750  0.274-  60 1.04  44 1.05  52 1.05   4 1.48
  13  0.306  0.250  0.774-  61 1.04  45 1.05  53 1.05   5 1.48
  14  0.803  0.250  0.773-  46 1.05  54 1.05  62 1.05   6 1.48
  15  0.303  0.750  0.773-  47 1.05  55 1.05  63 1.05   7 1.48
  16  0.806  0.750  0.774-  64 1.04  48 1.05  56 1.05   8 1.48
  17  0.216  0.250  0.136-   1 1.10
  18  0.695  0.250  0.149-   2 1.10
  19  0.195  0.750  0.149-   3 1.10
  20  0.716  0.750  0.136-   4 1.10
  21  0.216  0.250  0.636-   5 1.10
  22  0.695  0.250  0.649-   6 1.10
  23  0.195  0.750  0.649-   7 1.10
  24  0.716  0.750  0.636-   8 1.10
  25  0.157  0.322  0.246-   1 1.10
  26  0.652  0.322  0.265-   2 1.10
  27  0.152  0.822  0.265-   3 1.10
  28  0.657  0.822  0.246-   4 1.10
  29  0.157  0.322  0.746-   5 1.10
  30  0.652  0.322  0.765-   6 1.10
  31  0.152  0.822  0.765-   7 1.10
  32  0.657  0.822  0.746-   8 1.10
  33  0.157  0.177  0.246-   1 1.10
  34  0.652  0.177  0.265-   2 1.10
  35  0.152  0.677  0.265-   3 1.10
  36  0.657  0.677  0.246-   4 1.10
  37  0.157  0.177  0.746-   5 1.10
  38  0.652  0.177  0.765-   6 1.10
  39  0.152  0.677  0.765-   7 1.10
  40  0.657  0.677  0.746-   8 1.10
  41  0.351  0.318  0.254-   9 1.05
  42  0.845  0.318  0.247-  10 1.05
  43  0.345  0.818  0.247-  11 1.05
  44  0.851  0.818  0.254-  12 1.05
  45  0.351  0.318  0.754-  13 1.05
  46  0.845  0.318  0.747-  14 1.05
  47  0.345  0.818  0.747-  15 1.05
  48  0.851  0.818  0.754-  16 1.05
  49  0.351  0.182  0.254-   9 1.05
  50  0.846  0.182  0.248-  10 1.05
  51  0.346  0.682  0.248-  11 1.05
  52  0.851  0.682  0.254-  12 1.05
  53  0.351  0.182  0.754-  13 1.05
  54  0.846  0.182  0.748-  14 1.05
  55  0.346  0.682  0.748-  15 1.05
  56  0.851  0.682  0.754-  16 1.05
  57  0.298  0.250  0.356-   9 1.04
  58  0.808  0.250  0.355-  10 1.05
  59  0.308  0.750  0.355-  11 1.05
  60  0.798  0.750  0.356-  12 1.04
  61  0.298  0.250  0.856-  13 1.04
  62  0.808  0.250  0.855-  14 1.05
  63  0.308  0.750  0.855-  15 1.05
  64  0.798  0.750  0.856-  16 1.04
  65  0.472  0.501  0.489-  90 3.08  85 3.14  87 3.16  77 3.17  73 3.22  89 3.26
  66  0.972  0.499  0.489-  89 3.08  88 3.14  86 3.16  78 3.17  74 3.22  90 3.26
  67  0.472  0.999  0.489-  92 3.08  85 3.14  87 3.16  79 3.17  75 3.22  91 3.26
  68  0.972  0.001  0.489-  91 3.08  88 3.14  86 3.16  80 3.17  76 3.22  92 3.26
  69  0.472  0.501  0.989-  94 3.08  81 3.14  83 3.16  73 3.17  77 3.22  93 3.26
  70  0.972  0.499  0.989-  93 3.08  84 3.14  82 3.16  74 3.17  78 3.22  94 3.26
  71  0.472  0.999  0.989-  96 3.08  81 3.14  83 3.16  75 3.17  79 3.22  95 3.26
  72  0.972  0.001  0.989-  95 3.08  84 3.14  82 3.16  76 3.17  80 3.22  96 3.26
  73  0.455  0.500  0.238-  69 3.17  65 3.22
  74  0.955  0.500  0.238-  70 3.17  66 3.22
  75  0.455  1.000  0.238-  71 3.17  67 3.22
  76  0.955  0.000  0.238-  72 3.17  68 3.22
  77  0.455  0.500  0.738-  65 3.17  69 3.22
  78  0.955  0.500  0.738-  66 3.17  70 3.22
  79  0.455  1.000  0.738-  67 3.17  71 3.22
  80  0.955  0.000  0.738-  68 3.17  72 3.22
  81  0.464  0.250  0.009-  71 3.14  69 3.14
  82  0.936  0.250  0.014-  72 3.16  70 3.16
  83  0.436  0.750  0.014-  69 3.16  71 3.16
  84  0.964  0.750  0.009-  70 3.14  72 3.14
  85  0.464  0.250  0.509-  67 3.14  65 3.14
  86  0.936  0.250  0.514-  68 3.16  66 3.16
  87  0.436  0.750  0.514-  65 3.16  67 3.16
  88  0.964  0.750  0.509-  66 3.14  68 3.14
  89  0.216  0.483  0.461-  66 3.08  65 3.26
  90  0.716  0.517  0.461-  65 3.08  66 3.26
  91  0.216  0.017  0.461-  68 3.08  67 3.26
  92  0.716  0.983  0.461-  67 3.08  68 3.26
  93  0.216  0.483  0.961-  70 3.08  69 3.26
  94  0.716  0.517  0.961-  69 3.08  70 3.26
  95  0.216  0.017  0.961-  72 3.08  71 3.26
  96  0.716  0.983  0.961-  71 3.08  72 3.26
 
  LATTYP: Found a triclinic cell.
 ALAT       =    17.8238589327
 B/A-ratio  =     0.6989248630
 C/A-ratio  =     1.0156975818
 COS(alpha) =     0.0001355172
 COS(beta)  =     0.5146378593
 COS(gamma) =     0.6988877578
  
  Lattice vectors:
  
 A1 = (  -0.1406063366, -12.4576271275, -12.7466742118)
 A2 = (  -0.0011956322, -12.4575380825,   0.0007464135)
 A3 = ( -12.7162481321,  -0.0020049566, -12.8856194186)


Analysis of symmetry for initial positions (statically):
=====================================================================
 Subroutine PRICEL returns following result:
 
  LATTYP: Found a triclinic cell.
 ALAT       =     8.8502626515
 B/A-ratio  =     1.4075896561
 C/A-ratio  =     0.7202149489
 COS(alpha) =     0.0000518785
 COS(beta)  =     0.0156138721
 COS(gamma) =     0.7036188608
  
  Lattice vectors:
  
 A1 = (  -6.2878208978,   6.2278110854,  -0.0694726034)
 A2 = (   0.0011956322,  12.4575380825,  -0.0007464135)
 A3 = (  -0.0697053522,  -0.0000445225,  -6.3737103126)
 
   4 primitive cells build up your supercell.
 

 Routine SETGRP: Setting up the symmetry group for a 
 triclinic supercell.


 Subroutine GETGRP returns: Found  1 space group operations
 (whereof  1 operations were pure point group operations)
 out of a pool of  2 trial point group operations.


The static configuration has the point symmetry C_1 .


Analysis of symmetry for dynamics (positions and initial velocities):
=====================================================================
 Subroutine PRICEL returns following result:
 
  LATTYP: Found a triclinic cell.
 ALAT       =     8.8502626515
 B/A-ratio  =     1.4075896561
 C/A-ratio  =     0.7202149489
 COS(alpha) =     0.0000518785
 COS(beta)  =     0.0156138721
 COS(gamma) =     0.7036188608
  
  Lattice vectors:
  
 A1 = (  -6.2878208978,   6.2278110854,  -0.0694726034)
 A2 = (   0.0011956322,  12.4575380825,  -0.0007464135)
 A3 = (  -0.0697053522,  -0.0000445225,  -6.3737103126)
 
   4 primitive cells build up your supercell.
 

 Routine SETGRP: Setting up the symmetry group for a 
 triclinic supercell.


 Subroutine GETGRP returns: Found  1 space group operations
 (whereof  1 operations were pure point group operations)
 out of a pool of  2 trial point group operations.


The dynamic configuration has the point symmetry C_1 .


Analysis of structural, dynamic, and magnetic symmetry:
=====================================================================
 Subroutine PRICEL returns following result:
 
  LATTYP: Found a triclinic cell.
 ALAT       =     8.8502626515
 B/A-ratio  =     1.4075896561
 C/A-ratio  =     0.7202149489
 COS(alpha) =     0.0000518785
 COS(beta)  =     0.0156138721
 COS(gamma) =     0.7036188608
  
  Lattice vectors:
  
 A1 = (  -6.2878208978,   6.2278110854,  -0.0694726034)
 A2 = (   0.0011956322,  12.4575380825,  -0.0007464135)
 A3 = (  -0.0697053522,  -0.0000445225,  -6.3737103126)
 
   4 primitive cells build up your supercell.
 

 Routine SETGRP: Setting up the symmetry group for a 
 triclinic supercell.


 Subroutine GETGRP returns: Found  1 space group operations
 (whereof  1 operations were pure point group operations)
 out of a pool of  2 trial point group operations.


The (compounded) configuration has the point symmetry C_1 .


 Subroutine INISYM returns: Found  1 space group operations
 (whereof  1 operations are pure point group operations),
 and found     4 'primitive' translations

 
 
 KPOINTS: Automatic 3x3x3                         

Automatic generation of k-mesh.
Space group operators:
 irot       det(A)        alpha          n_x          n_y          n_z        tau_x        tau_y        tau_z
    1     1.000000     0.000000     1.000000     0.000000     0.000000     0.000000     0.000000     0.000000
 
 Subroutine IBZKPT returns following result:
 ===========================================
 
 Found     27 irreducible k-points:
 
 Following reciprocal coordinates:
            Coordinates               Weight
  0.000000  0.000000  0.000000      1.000000
  0.333333 -0.000000 -0.000000      1.000000
 -0.333333  0.000000  0.000000      1.000000
  0.000000  0.333333 -0.000000      1.000000
  0.333333  0.333333  0.000000      1.000000
 -0.333333  0.333333  0.000000      1.000000
 -0.000000 -0.333333  0.000000      1.000000
  0.333333 -0.333333 -0.000000      1.000000
 -0.333333 -0.333333 -0.000000      1.000000
  0.000000  0.000000  0.333333      1.000000
  0.333333  0.000000  0.333333      1.000000
 -0.333333  0.000000  0.333333      1.000000
  0.000000  0.333333  0.333333      1.000000
  0.333333  0.333333  0.333333      1.000000
 -0.333333  0.333333  0.333333      1.000000
  0.000000 -0.333333  0.333333      1.000000
  0.333333 -0.333333  0.333333      1.000000
 -0.333333 -0.333333  0.333333      1.000000
  0.000000  0.000000 -0.333333      1.000000
  0.333333 -0.000000 -0.333333      1.000000
 -0.333333 -0.000000 -0.333333      1.000000
 -0.000000  0.333333 -0.333333      1.000000
  0.333333  0.333333 -0.333333      1.000000
 -0.333333  0.333333 -0.333333      1.000000
 -0.000000 -0.333333 -0.333333      1.000000
  0.333333 -0.333333 -0.333333      1.000000
 -0.333333 -0.333333 -0.333333      1.000000
 
 Following cartesian coordinates:
            Coordinates               Weight
  0.000000  0.000000  0.000000      1.000000
  0.026507 -0.000003 -0.000290      1.000000
 -0.026507  0.000003  0.000290      1.000000
 -0.000004  0.026758 -0.000000      1.000000
  0.026503  0.026755 -0.000290      1.000000
 -0.026511  0.026760  0.000290      1.000000
  0.000004 -0.026758  0.000000      1.000000
  0.026511 -0.026760 -0.000290      1.000000
 -0.026503 -0.026755  0.000290      1.000000
 -0.000287  0.000002  0.026152      1.000000
  0.026220 -0.000001  0.025862      1.000000
 -0.026794  0.000004  0.026442      1.000000
 -0.000291  0.026759  0.026152      1.000000
  0.026215  0.026757  0.025862      1.000000
 -0.026798  0.026762  0.026442      1.000000
 -0.000283 -0.026756  0.026152      1.000000
  0.026224 -0.026759  0.025862      1.000000
 -0.026790 -0.026753  0.026442      1.000000
  0.000287 -0.000002 -0.026152      1.000000
  0.026794 -0.000004 -0.026442      1.000000
 -0.026220  0.000001 -0.025862      1.000000
  0.000283  0.026756 -0.026152      1.000000
  0.026790  0.026753 -0.026442      1.000000
 -0.026224  0.026759 -0.025862      1.000000
  0.000291 -0.026759 -0.026152      1.000000
  0.026798 -0.026762 -0.026442      1.000000
 -0.026215 -0.026757 -0.025862      1.000000
 


--------------------------------------------------------------------------------------------------------




 Dimension of arrays:
   k-points           NKPTS =     27   k-points in BZ     NKDIM =     27   number of bands    NBANDS=    600
   number of dos      NEDOS =    301   number of ions     NIONS =     96
   non local maximal  LDIM  =      6   non local SUM 2l+1 LMDIM =     18
   total plane-waves  NPLWV = ******
   max r-space proj   IRMAX =      1   max aug-charges    IRDMAX= 314103
   dimension x,y,z NGX =   112 NGY =  108 NGZ =  112
   dimension x,y,z NGXF=   224 NGYF=  216 NGZF=  224
   support grid    NGXF=   448 NGYF=  432 NGZF=  448
   ions per type =               8   8  48   8  24
 NGX,Y,Z   is equivalent  to a cutoff of  14.80, 14.41, 14.61 a.u.
 NGXF,Y,Z  is equivalent  to a cutoff of  29.61, 28.83, 29.21 a.u.


 I would recommend the setting:
   dimension x,y,z NGX =   109 NGY =  107 NGZ =  110
 SYSTEM =  MAPbI3-Cubic                            
 POSCAR =  C N H Pb I                              

 Startparameter for this run:
   NWRITE =      2    write-flag & timer
   PREC   = accura    normal or accurate (medium, high low for compatibility)
   ISTART =      0    job   : 0-new  1-cont  2-samecut
   ICHARG =      2    charge: 1-file 2-atom 10-const
   ISPIN  =      1    spin polarized calculation?
   LNONCOLLINEAR =      T non collinear calculations
   LSORBIT =      T    spin-orbit coupling
   INIWAV =      1    electr: 0-lowe 1-rand  2-diag
   LASPH  =      F    aspherical Exc in radial PAW
   METAGGA=      F    non-selfconsistent MetaGGA calc.

 Electronic Relaxation 1
   ENCUT  =  700.0 eV  51.45 Ry    7.17 a.u.  27.13 26.87 27.50*2*pi/ulx,y,z
   ENINI  =  700.0     initial cutoff
   ENAUG  =  644.9 eV  augmentation charge cutoff
   NELM   =     60;   NELMIN=  2; NELMDL= -5     # of ELM steps 
   EDIFF  = 0.1E-07   stopping-criterion for ELM
   LREAL  =      F    real-space projection
   NLSPLINE    = F    spline interpolate recip. space projectors
   LCOMPAT=      F    compatible to vasp.4.4
   GGA_COMPAT  = T    GGA compatible to vasp.4.4-vasp.4.6
   LMAXPAW     = -100 max onsite density
   LMAXMIX     =    2 max onsite mixed and CHGCAR
   VOSKOWN=      0    Vosko Wilk Nusair interpolation
   ROPT   =    0.00000   0.00000   0.00000   0.00000
   ROPT   =    0.00000
 Ionic relaxation
   EDIFFG = 0.1E-06   stopping-criterion for IOM
   NSW    =      0    number of steps for IOM
   NBLOCK =      1;   KBLOCK =      1    inner block; outer block 
   IBRION =     -1    ionic relax: 0-MD 1-quasi-New 2-CG
   NFREE  =      0    steps in history (QN), initial steepest desc. (CG)
   ISIF   =      2    stress and relaxation
   IWAVPR =     10    prediction:  0-non 1-charg 2-wave 3-comb
   ISYM   =      2    0-nonsym 1-usesym 2-fastsym
   LCORR  =      T    Harris-Foulkes like correction to forces

   POTIM  = 0.5000    time-step for ionic-motion
   TEIN   =    0.0    initial temperature
   TEBEG  =    0.0;   TEEND  =   0.0 temperature during run
   SMASS  =  -3.00    Nose mass-parameter (am)
   estimated Nose-frequenzy (Omega)   =  0.10E-29 period in steps =****** mass=  -0.362E-26a.u.
   SCALEE = 1.0000    scale energy and forces
   NPACO  =    256;   APACO  = 16.0  distance and # of slots for P.C.
   PSTRESS=    0.0 pullay stress

  Mass of Ions in am
   POMASS =  12.01 14.00  1.00207.20126.90
  Ionic Valenz
   ZVAL   =   4.00  5.00  1.00 14.00  7.00
  Atomic Wigner-Seitz radii
   RWIGS  =  -1.00 -1.00 -1.00 -1.00 -1.00
  virtual crystal weights 
   VCA    =   1.00  1.00  1.00  1.00  1.00
   NELECT =     400.0000    total number of electrons
   NUPDOWN=      -1.0000    fix difference up-down

 DOS related values:
   EMIN   =  10.00;   EMAX   =-10.00  energy-range for DOS
   EFERMI =   0.00
   ISMEAR =     0;   SIGMA  =   0.00  broadening in eV -4-tet -1-fermi 0-gaus

 Electronic relaxation 2 (details)
   IALGO  =     38    algorithm
   LDIAG  =      T    sub-space diagonalisation (order eigenvalues)
   LSUBROT=      F    optimize rotation matrix (better conditioning)
   TURBO    =      0    0=normal 1=particle mesh
   IRESTART =      0    0=no restart 2=restart with 2 vectors
   NREBOOT  =      0    no. of reboots
   NMIN     =      0    reboot dimension
   EREF     =   0.00    reference energy to select bands
   IMIX   =      4    mixing-type and parameters
     AMIX     =   0.40;   BMIX     =  1.00
     AMIX_MAG =   1.60;   BMIX_MAG =  1.00
     AMIN     =   0.10
     WC   =   100.;   INIMIX=   1;  MIXPRE=   1;  MAXMIX= -45

 Intra band minimization:
   WEIMIN = 0.0000     energy-eigenvalue tresh-hold
   EBREAK =  0.42E-11  absolut break condition
   DEPER  =   0.30     relativ break condition  

   TIME   =   0.40     timestep for ELM

  volume/ion in A,a.u.               =      20.80       140.38
  Fermi-wavevector in a.u.,A,eV,Ry     =   0.957863  1.810099 12.483376  0.917502
  Thomas-Fermi vector in A             =   2.086919
 
 Write flags
   LWAVE  =      F    write WAVECAR
   LCHARG =      F    write CHGCAR
   LVTOT  =      F    write LOCPOT, total local potential
   LVHAR  =      F    write LOCPOT, Hartree potential only
   LELF   =      F    write electronic localiz. function (ELF)
   LORBIT =      0    0 simple, 1 ext, 2 COOP (PROOUT)


 Dipole corrections
   LMONO  =      F    monopole corrections only (constant potential shift)
   LDIPOL =      F    correct potential (dipole corrections)
   IDIPOL =      0    1-x, 2-y, 3-z, 4-all directions 
   EPSILON=  1.0000000 bulk dielectric constant

 Core level calculations are selected ICORELEVEL =  1
 Exchange correlation treatment:
   GGA     =    PS    GGA type
   LEXCH   =    14    internal setting for exchange type
   VOSKOWN=      0    Vosko Wilk Nusair interpolation
   LHFCALC =     F    Hartree Fock is set to
   LHFONE  =     F    Hartree Fock one center treatment
   AEXX    =    0.0000 exact exchange contribution

 Linear response parameters
   LEPSILON=     F    determine dielectric tensor
   LRPA    =     F    only Hartree local field effects (RPA)
   LNABLA  =     F    use nabla operator in PAW spheres
   LVEL    =     F    velocity operator in full k-point grid
   LINTERFAST=   F  fast interpolation
   KINTER  =     0    interpolate to denser k-point grid
   CSHIFT  =0.1000    complex shift for real part using Kramers Kronig
   OMEGAMAX=  -1.0    maximum frequency
   DEG_THRESHOLD= 0.2000000E-02 threshold for treating states as degnerate
   RTIME   =    0.100 relaxation time in fs

 Orbital magnetization related:
   ORBITALMAG=     F  switch on orbital magnetization
   LCHIMAG   =     F  perturbation theory with respect to B field
   DQ        =  0.001000  dq finite difference perturbation B field



--------------------------------------------------------------------------------------------------------


 Static calculation
 charge density and potential will be updated during run
 non collinear spin polarized calculation
 Variant of blocked Davidson
 Davidson routine will perform the subspace rotation
 perform sub-space diagonalisation
    after iterative eigenvector-optimisation
 modified Broyden-mixing scheme, WC =      100.0
 initial mixing is a Kerker type mixing with AMIX =  0.4000 and BMIX =      1.0000
 Hartree-type preconditioning will be used
 using additional bands          400
 reciprocal scheme for non local part
 use partial core corrections
 calculate Harris-corrections to forces 
   (improved forces if not selfconsistent)
 use gradient corrections 
 use of overlap-Matrix (Vanderbilt PP)
 Gauss-broadening in eV      SIGMA  =   0.00


--------------------------------------------------------------------------------------------------------


  energy-cutoff  :      700.00
  volume of cell :     1996.98
      direct lattice vectors                 reciprocal lattice vectors
    12.576837428  0.001915912  0.138198793     0.079520802 -0.000007684 -0.000869670
     0.001195632 12.457538083 -0.000746413    -0.000012224  0.080272684 -0.000000427
     0.139410704  0.000089045 12.747420625    -0.000862111  0.000004784  0.078456671

  length of vectors
    12.577596840 12.457538162 12.748182927     0.079525558  0.080272685  0.078461408


 
 k-points in units of 2pi/SCALE and weight: Automatic 3x3x3                         
   0.00000000  0.00000000  0.00000000       0.037
   0.02650693 -0.00000256 -0.00028989       0.037
  -0.02650693  0.00000256  0.00028989       0.037
  -0.00000407  0.02675756 -0.00000014       0.037
   0.02650286  0.02675500 -0.00029003       0.037
  -0.02651101  0.02676012  0.00028975       0.037
   0.00000407 -0.02675756  0.00000014       0.037
   0.02651101 -0.02676012 -0.00028975       0.037
  -0.02650286 -0.02675500  0.00029003       0.037
  -0.00028737  0.00000159  0.02615222       0.037
   0.02621956 -0.00000097  0.02586233       0.037
  -0.02679430  0.00000416  0.02644211       0.037
  -0.00029144  0.02675916  0.02615208       0.037
   0.02621549  0.02675659  0.02586219       0.037
  -0.02679838  0.02676172  0.02644197       0.037
  -0.00028330 -0.02675597  0.02615237       0.037
   0.02622364 -0.02675853  0.02586248       0.037
  -0.02679023 -0.02675341  0.02644226       0.037
   0.00028737 -0.00000159 -0.02615222       0.037
   0.02679430 -0.00000416 -0.02644211       0.037
  -0.02621956  0.00000097 -0.02586233       0.037
   0.00028330  0.02675597 -0.02615237       0.037
   0.02679023  0.02675341 -0.02644226       0.037
  -0.02622364  0.02675853 -0.02586248       0.037
   0.00029144 -0.02675916 -0.02615208       0.037
   0.02679838 -0.02676172 -0.02644197       0.037
  -0.02621549 -0.02675659 -0.02586219       0.037
 
 k-points in reciprocal lattice and weights: Automatic 3x3x3                         
   0.00000000  0.00000000  0.00000000       0.037
   0.33333333 -0.00000000 -0.00000000       0.037
  -0.33333333  0.00000000  0.00000000       0.037
   0.00000000  0.33333333 -0.00000000       0.037
   0.33333333  0.33333333  0.00000000       0.037
  -0.33333333  0.33333333  0.00000000       0.037
  -0.00000000 -0.33333333  0.00000000       0.037
   0.33333333 -0.33333333 -0.00000000       0.037
  -0.33333333 -0.33333333 -0.00000000       0.037
   0.00000000  0.00000000  0.33333333       0.037
   0.33333333  0.00000000  0.33333333       0.037
  -0.33333333  0.00000000  0.33333333       0.037
   0.00000000  0.33333333  0.33333333       0.037
   0.33333333  0.33333333  0.33333333       0.037
  -0.33333333  0.33333333  0.33333333       0.037
   0.00000000 -0.33333333  0.33333333       0.037
   0.33333333 -0.33333333  0.33333333       0.037
  -0.33333333 -0.33333333  0.33333333       0.037
   0.00000000  0.00000000 -0.33333333       0.037
   0.33333333 -0.00000000 -0.33333333       0.037
  -0.33333333 -0.00000000 -0.33333333       0.037
  -0.00000000  0.33333333 -0.33333333       0.037
   0.33333333  0.33333333 -0.33333333       0.037
  -0.33333333  0.33333333 -0.33333333       0.037
  -0.00000000 -0.33333333 -0.33333333       0.037
   0.33333333 -0.33333333 -0.33333333       0.037
  -0.33333333 -0.33333333 -0.33333333       0.037
 
 position of ions in fractional coordinates (direct lattice) 
   0.20145462  0.24992687  0.22196826
   0.69253365  0.24988968  0.23586245
   0.19253365  0.74988968  0.23586245
   0.70145462  0.74992687  0.22196826
   0.20145462  0.24992687  0.72196826
   0.69253365  0.24988968  0.73586245
   0.19253365  0.74988968  0.73586245
   0.70145462  0.74992687  0.72196826
   0.30576470  0.25001775  0.27427725
   0.80330973  0.24998953  0.27349135
   0.30330973  0.74998953  0.27349135
   0.80576470  0.75001775  0.27427725
   0.30576470  0.25001775  0.77427725
   0.80330973  0.24998953  0.77349135
   0.30330973  0.74998953  0.77349135
   0.80576470  0.75001775  0.77427725
   0.21557067  0.24982051  0.13636359
   0.69457966  0.24982169  0.14941367
   0.19457966  0.74982169  0.14941367
   0.71557067  0.74982051  0.13636359
   0.21557067  0.24982051  0.63636359
   0.69457966  0.24982169  0.64941367
   0.19457966  0.74982169  0.64941367
   0.71557067  0.74982051  0.63636359
   0.15712576  0.32242158  0.24578167
   0.65154985  0.32228280  0.26524897
   0.15154985  0.82228280  0.26524897
   0.65712576  0.82242158  0.24578167
   0.15712576  0.32242158  0.74578167
   0.65154985  0.32228280  0.76524897
   0.15154985  0.82228280  0.76524897
   0.65712576  0.82242158  0.74578167
   0.15720247  0.17746542  0.24594995
   0.65168320  0.17748673  0.26535146
   0.15168320  0.67748673  0.26535146
   0.65720247  0.67746542  0.24594995
   0.15720247  0.17746542  0.74594995
   0.65168320  0.17748673  0.76535146
   0.15168320  0.67748673  0.76535146
   0.65720247  0.67746542  0.74594995
   0.35077440  0.31802304  0.25407298
   0.84549475  0.31772552  0.24744000
   0.34549475  0.81772552  0.24744000
   0.85077440  0.81802304  0.25407298
   0.35077440  0.31802304  0.75407298
   0.84549475  0.31772552  0.74744000
   0.34549475  0.81772552  0.74744000
   0.85077440  0.81802304  0.75407298
   0.35081762  0.18196252  0.25424169
   0.84559298  0.18224725  0.24754011
   0.34559298  0.68224725  0.24754011
   0.85081762  0.68196252  0.25424169
   0.35081762  0.18196252  0.75424169
   0.84559298  0.18224725  0.74754011
   0.34559298  0.68224725  0.74754011
   0.85081762  0.68196252  0.75424169
   0.29816098  0.25013208  0.35580797
   0.80817916  0.25005496  0.35541052
   0.30817916  0.75005496  0.35541052
   0.79816098  0.75013208  0.35580797
   0.29816098  0.25013208  0.85580797
   0.80817916  0.25005496  0.85541052
   0.30817916  0.75005496  0.85541052
   0.79816098  0.75013208  0.85580797
   0.47244569  0.50071715  0.48881048
   0.97243787  0.49926244  0.48881242
   0.47243787  0.99926244  0.48881242
   0.97244569  0.00071715  0.48881048
   0.47244569  0.50071715  0.98881048
   0.97243787  0.49926244  0.98881242
   0.47243787  0.99926244  0.98881242
   0.97244569  0.00071715  0.98881048
   0.45475451  0.50037834  0.23757044
   0.95473284  0.49960376  0.23757505
   0.45473284  0.99960376  0.23757505
   0.95475451  0.00037834  0.23757044
   0.45475451  0.50037834  0.73757044
   0.95473284  0.49960376  0.73757505
   0.45473284  0.99960376  0.73757505
   0.95475451  0.00037834  0.73757044
   0.46364666  0.24997624  0.00919919
   0.93562422  0.24998178  0.01446525
   0.43562422  0.74998178  0.01446525
   0.96364666  0.74997624  0.00919919
   0.46364666  0.24997624  0.50919919
   0.93562422  0.24998178  0.51446525
   0.43562422  0.74998178  0.51446525
   0.96364666  0.74997624  0.50919919
   0.21617482  0.48327411  0.46123970
   0.71616806  0.51672076  0.46123970
   0.21616806  0.01672076  0.46123970
   0.71617482  0.98327411  0.46123970
   0.21617482  0.48327411  0.96123970
   0.71616806  0.51672076  0.96123970
   0.21616806  0.01672076  0.96123970
   0.71617482  0.98327411  0.96123970
 
 position of ions in cartesian coordinates  (Angst):
   2.56490553  3.11387929  2.85717699
   8.74306364  3.11435799  3.10215866
   2.45524274  9.34216907  3.03268606
   8.85392206  9.34360629  2.92590318
   2.63461088  3.11392381  9.23088730
   8.81276899  3.11440251  9.47586897
   2.52494809  9.34221359  9.40639637
   8.92362741  9.34365081  9.29961349
   3.88408907  3.11521590  3.53839714
  10.14152246  3.11581751  3.59713906
   3.85370156  9.34362860  3.52766646
  10.17310560  9.34494290  3.60712333
   3.95379442  3.11526042  9.91210745
  10.21122781  3.11586203  9.97084937
   3.92340691  9.34367312  9.90137677
  10.24281095  9.34498742  9.98083364
   2.73050655  3.11257361  1.76788913
   8.75674403  3.11350725  2.00044245
   2.46892314  9.34131833  1.93096984
   9.01952308  9.34230061  1.83661532
   2.80021191  3.11261813  8.14159944
   8.82644939  3.11355177  8.37415276
   2.53862849  9.34136285  8.30468016
   9.08922844  9.34234513  8.21032563
   2.01079525  4.01690199  3.15455630
   8.23180044  4.01612215  3.47104298
   1.94397955 10.24393323  3.40157038
   8.29981178 10.24662899  3.22328249
   2.08050060  4.01694651  9.52826661
   8.30150580  4.01616667  9.84475329
   2.01368490 10.24397776  9.77528069
   8.36951713 10.24667351  9.59699280
   2.01161016  2.21110532  3.15682018
   8.23331865  2.21231986  3.47247609
   1.94549776  8.44013094  3.40300348
   8.30062669  8.44083231  3.22554637
   2.08131551  2.21114984  9.53053049
   8.30302401  2.21236438  9.84618640
   2.01520311  8.44017546  9.77671380
   8.37033204  8.44087683  9.59925668
   4.44743334  3.96247884  3.28701439
  10.66852574  3.95971974  3.27083096
   4.38070485 10.18753082  3.20135836
  10.73644987 10.19220583  3.35574058
   4.51713869  3.96252336  9.66072470
  10.73823110  3.95976426  9.64454128
   4.45041020 10.18757534  9.57506867
  10.80615522 10.19225036  9.72945089
   4.44783776  2.26749985  3.28927255
  10.66961307  2.27199419  3.27222176
   4.38179218  8.49980528  3.20274916
  10.73685429  8.49722685  3.35799874
   4.51754311  2.26754437  9.66298287
  10.73931843  2.27203871  9.64593207
   4.45149753  8.49984980  9.57645947
  10.80655964  8.49727137  9.73170906
   3.79982473  3.11663285  4.57665265
  10.21418494  3.11664927  4.64207012
   3.92636404  9.34446036  4.57259751
  10.08884126  9.34635985  4.64537884
   3.86953008  3.11667737 10.95036296
  10.28389029  3.11669379 11.01578043
   3.99606939  9.34450488 10.94630783
  10.15854661  9.34640437 11.01908915
   6.01061668  6.23865167  6.29599044
  12.29893556  6.22148747  6.36511456
   6.01111467 12.44929855  6.29564196
  12.29843757  0.01084059  6.36546305
   6.08032203  6.23869620 12.66970076
  12.36864092  6.22153199 12.73882488
   6.08082002 12.44934308 12.66935227
  12.36814293  0.01088511 12.73917336
   5.75309171  6.23437466  3.09088332
  12.04123751  6.22568318  3.16003907
   5.75341661 12.45349427  3.09056647
  12.04091261  0.00656357  3.16035593
   5.82279706  6.23441918  9.46459364
  12.11094286  6.22572771  9.53374938
   5.82312196 12.45353879  9.46427678
  12.11061796  0.00660810  9.53406624
   5.83278997  3.11497769  0.18115471
  11.76950923  3.11595138  0.31351017
   5.48168834  9.34376247  0.24403757
  12.12180650  9.34470469  0.24988090
   5.90249532  3.11502221  6.55486502
  11.83921459  3.11599591  6.68722049
   5.55139369  9.34380699  6.61774788
  12.19151185  9.34474921  6.62359121
   2.78367514  6.02086091  5.90913083
   9.07204877  6.43848173  5.97820439
   2.78303224  0.20875474  5.90947820
   9.07269167 12.25058790  5.97785702
   2.85338050  6.02090543 12.28284115
   9.14175413  6.43852626 12.35191471
   2.85273760  0.20879926 12.28318852
   9.14239703 12.25063242 12.35156734
 
 Euler angles ALPHA=     0.0000000  BETA=     0.0000000

 transformation matrix from SAXIS to cartesian coordinates
 ---------------------------------------------------------
     1.0000000 m_x     0.0000000 m_y     0.0000000 m_z
     0.0000000 m_x     1.0000000 m_y     0.0000000 m_z
     0.0000000 m_x     0.0000000 m_y     1.0000000 m_z

 transformation matrix from cartesian coordinates to SAXIS
 ---------------------------------------------------------
     1.0000000 m_x     0.0000000 m_y     0.0000000 m_z
     0.0000000 m_x     1.0000000 m_y     0.0000000 m_z
     0.0000000 m_x     0.0000000 m_y     1.0000000 m_z




--------------------------------------------------------------------------------------------------------


 k-point  1 :   0.0000 0.0000 0.0000  plane waves:  168014
 k-point  2 :   0.3333-0.0000-0.0000  plane waves:  168006
 k-point  3 :  -0.3333 0.0000 0.0000  plane waves:  168006
 k-point  4 :   0.0000 0.3333-0.0000  plane waves:  167990
 k-point  5 :   0.3333 0.3333 0.0000  plane waves:  168036
 k-point  6 :  -0.3333 0.3333 0.0000  plane waves:  168038
 k-point  7 :  -0.0000-0.3333 0.0000  plane waves:  167990
 k-point  8 :   0.3333-0.3333-0.0000  plane waves:  168038
 k-point  9 :  -0.3333-0.3333-0.0000  plane waves:  168036
 k-point 10 :   0.0000 0.0000 0.3333  plane waves:  167920
 k-point 11 :   0.3333 0.0000 0.3333  plane waves:  167874
 k-point 12 :  -0.3333 0.0000 0.3333  plane waves:  167964
 k-point 13 :   0.0000 0.3333 0.3333  plane waves:  167968
 k-point 14 :   0.3333 0.3333 0.3333  plane waves:  168024
 k-point 15 :  -0.3333 0.3333 0.3333  plane waves:  167940
 k-point 16 :   0.0000-0.3333 0.3333  plane waves:  167954
 k-point 17 :   0.3333-0.3333 0.3333  plane waves:  168026
 k-point 18 :  -0.3333-0.3333 0.3333  plane waves:  167946
 k-point 19 :   0.0000 0.0000-0.3333  plane waves:  167920
 k-point 20 :   0.3333-0.0000-0.3333  plane waves:  167964
 k-point 21 :  -0.3333-0.0000-0.3333  plane waves:  167874
 k-point 22 :  -0.0000 0.3333-0.3333  plane waves:  167954
 k-point 23 :   0.3333 0.3333-0.3333  plane waves:  167946
 k-point 24 :  -0.3333 0.3333-0.3333  plane waves:  168026
 k-point 25 :  -0.0000-0.3333-0.3333  plane waves:  167968
 k-point 26 :   0.3333-0.3333-0.3333  plane waves:  167940
 k-point 27 :  -0.3333-0.3333-0.3333  plane waves:  168024

 maximum and minimum number of plane-waves per node :      7122     6820

 maximum number of plane-waves:    168038
 maximum index in each direction: 
   IXMAX=   27   IYMAX=   27   IZMAX=   27
   IXMIN=  -27   IYMIN=  -27   IZMIN=  -27

 NGX is ok and might be reduce to 110
 WARNING: aliasing errors must be expected set NGY to 110 to avoid them
 NGZ is ok and might be reduce to 110
 aliasing errors are usually negligible using standard VASP settings
 and one can safely disregard these warnings

 parallel 3D FFT for wavefunctions:
    minimum data exchange during FFTs selected (reduces bandwidth)
 parallel 3D FFT for charge:
    minimum data exchange during FFTs selected (reduces bandwidth)


 total amount of memory used by VASP on root node   392927. kBytes
========================================================================

   base      :      30000. kBytes
   nonl-proj :      73667. kBytes
   fftplans  :      22714. kBytes
   grid      :      35610. kBytes
   one-center:        248. kBytes
   wavefun   :     230688. kBytes
 
     INWAV:  cpu time    0.0000: real time    0.0000
 Broyden mixing: mesh for mixing (old mesh)
   NGX = 55   NGY = 53   NGZ = 55
  (NGX  =224   NGY  =216   NGZ  =224)
  gives a total of 160325 points

 initial charge density was supplied:
 charge density of overlapping atoms calculated
 number of electron     400.0000000 magnetization      96.0000000     96.0000000     96.0000000
 keeping initial charge density in first step


--------------------------------------------------------------------------------------------------------


 Maximum index for augmentation-charges         5361 (set IRDMAX)


--------------------------------------------------------------------------------------------------------


 First call to EWALD:  gamma=   0.141
 Maximum number of real-space cells 3x 3x 3
 Maximum number of reciprocal cells 3x 3x 3

 FEWALD executed in parallel
    FEWALD:  cpu time    0.0040: real time    0.0040


----------------------------------------- Iteration    1(   1)  ---------------------------------------


    POTLOK:  cpu time    0.6120: real time    0.6121
    SETDIJ:  cpu time    2.2161: real time    2.2175
     EDDAV:  cpu time  240.2630: real time  240.4217
       DOS:  cpu time    0.0080: real time    0.0074
    --------------------------------------------
      LOOP:  cpu time  243.1032: real time  243.3027

 eigenvalue-minimisations  : 32544
 total energy-change (2. order) : 0.4230429E+04  (-0.1930265E+05)
 number of electron     400.0000000 magnetization      96.0000000     96.0000000     96.0000000
 augmentation part      400.0000000 magnetization      96.0000000     96.0000000     96.0000000

 Free energy of the ion-electron system (eV)
  ---------------------------------------------------
  alpha Z        PSCENC =       370.05370877
  Ewald energy   TEWEN  =    -15521.93473335
  -Hartree energ DENC   =     -8126.22286445
  -exchange      EXHF   =         0.00000000
  -V(xc)+E(xc)   XCENC  =       673.68401885
  PAW double counting   =     20172.90621935   -19413.33347658
  entropy T*S    EENTRO =        -0.00002868
  eigenvalues    EBANDS =      1326.26911438
  atomic energy  EATOM  =     24749.00668030
  Solvation  Ediel_sol  =         0.00000000
  ---------------------------------------------------
  free energy    TOTEN  =      4230.42863859 eV

  energy without entropy =     4230.42866727  energy(sigma->0) =     4230.42865293


--------------------------------------------------------------------------------------------------------




----------------------------------------- Iteration    1(   2)  ---------------------------------------


     EDDAV:  cpu time  257.2681: real time  257.4394
       DOS:  cpu time    0.0080: real time    0.0066
    --------------------------------------------
      LOOP:  cpu time  257.2801: real time  257.4574

 eigenvalue-minimisations  : 35656
 total energy-change (2. order) :-0.3386226E+04  (-0.3135633E+04)
 number of electron     400.0000000 magnetization      96.0000000     96.0000000     96.0000000
 augmentation part      400.0000000 magnetization      96.0000000     96.0000000     96.0000000

 Free energy of the ion-electron system (eV)
  ---------------------------------------------------
  alpha Z        PSCENC =       370.05370877
  Ewald energy   TEWEN  =    -15521.93473335
  -Hartree energ DENC   =     -8126.22286445
  -exchange      EXHF   =         0.00000000
  -V(xc)+E(xc)   XCENC  =       673.68401885
  PAW double counting   =     20172.90621935   -19413.33347658
  entropy T*S    EENTRO =        -0.00001606
  eigenvalues    EBANDS =     -2059.95684638
  atomic energy  EATOM  =     24749.00668030
  Solvation  Ediel_sol  =         0.00000000
  ---------------------------------------------------
  free energy    TOTEN  =       844.20269045 eV

  energy without entropy =      844.20270650  energy(sigma->0) =      844.20269848


--------------------------------------------------------------------------------------------------------




----------------------------------------- Iteration    1(   3)  ---------------------------------------


     EDDAV:  cpu time  302.3069: real time  302.5038
       DOS:  cpu time    0.0160: real time    0.0166
    --------------------------------------------
      LOOP:  cpu time  302.3229: real time  302.5818

 eigenvalue-minimisations  : 44000
 total energy-change (2. order) :-0.6093780E+03  (-0.5892380E+03)
 number of electron     400.0000000 magnetization      96.0000000     96.0000000     96.0000000
 augmentation part      400.0000000 magnetization      96.0000000     96.0000000     96.0000000

 Free energy of the ion-electron system (eV)
  ---------------------------------------------------
  alpha Z        PSCENC =       370.05370877
  Ewald energy   TEWEN  =    -15521.93473335
  -Hartree energ DENC   =     -8126.22286445
  -exchange      EXHF   =         0.00000000
  -V(xc)+E(xc)   XCENC  =       673.68401885
  PAW double counting   =     20172.90621935   -19413.33347658
  entropy T*S    EENTRO =        -0.00004248
  eigenvalues    EBANDS =     -2669.33486512
  atomic energy  EATOM  =     24749.00668030
  Solvation  Ediel_sol  =         0.00000000
  ---------------------------------------------------
  free energy    TOTEN  =       234.82464529 eV

  energy without entropy =      234.82468777  energy(sigma->0) =      234.82466653


--------------------------------------------------------------------------------------------------------




----------------------------------------- Iteration    1(   4)  ---------------------------------------


     EDDAV:  cpu time  303.9910: real time  304.1897
       DOS:  cpu time    0.0080: real time    0.0099
    --------------------------------------------
      LOOP:  cpu time  304.0030: real time  304.2137

 eigenvalue-minimisations  : 44128
 total energy-change (2. order) :-0.4559782E+02  (-0.4455235E+02)
 number of electron     400.0000000 magnetization      96.0000000     96.0000000     96.0000000
 augmentation part      400.0000000 magnetization      96.0000000     96.0000000     96.0000000

 Free energy of the ion-electron system (eV)
  ---------------------------------------------------
  alpha Z        PSCENC =       370.05370877
  Ewald energy   TEWEN  =    -15521.93473335
  -Hartree energ DENC   =     -8126.22286445
  -exchange      EXHF   =         0.00000000
  -V(xc)+E(xc)   XCENC  =       673.68401885
  PAW double counting   =     20172.90621935   -19413.33347658
  entropy T*S    EENTRO =        -0.00024375
  eigenvalues    EBANDS =     -2714.93248025
  atomic energy  EATOM  =     24749.00668030
  Solvation  Ediel_sol  =         0.00000000
  ---------------------------------------------------
  free energy    TOTEN  =       189.22682889 eV

  energy without entropy =      189.22707264  energy(sigma->0) =      189.22695077


--------------------------------------------------------------------------------------------------------




----------------------------------------- Iteration    1(   5)  ---------------------------------------


     EDDAV:  cpu time  335.6610: real time  335.8775
       DOS:  cpu time    0.0080: real time    0.0075
    CHARGE:  cpu time   11.6767: real time   11.6871
    MIXING:  cpu time    0.0160: real time    0.0148
    --------------------------------------------
      LOOP:  cpu time  347.3657: real time  347.9657

 eigenvalue-minimisations  : 50176
 total energy-change (2. order) :-0.2268158E+01  (-0.2256670E+01)
 number of electron     400.0000000 magnetization      67.0952483     67.0938175     67.0938084
 augmentation part        7.0026561 magnetization      63.4688170     63.4720260     63.4715462

 Broyden mixing:
  rms(total) = 0.98111E+01    rms(broyden)= 0.98109E+01
  rms(prec ) = 0.10308E+02
  weight for this iteration     100.00

 Free energy of the ion-electron system (eV)
  ---------------------------------------------------
  alpha Z        PSCENC =       370.05370877
  Ewald energy   TEWEN  =    -15521.93473335
  -Hartree energ DENC   =     -8126.22286445
  -exchange      EXHF   =         0.00000000
  -V(xc)+E(xc)   XCENC  =       673.68401885
  PAW double counting   =     20172.90621935   -19413.33347658
  entropy T*S    EENTRO =        -0.00026066
  eigenvalues    EBANDS =     -2717.20062117
  atomic energy  EATOM  =     24749.00668030
  Solvation  Ediel_sol  =         0.00000000
  ---------------------------------------------------
  free energy    TOTEN  =       186.95867105 eV

  energy without entropy =      186.95893171  energy(sigma->0) =      186.95880138


--------------------------------------------------------------------------------------------------------




----------------------------------------- Iteration    1(   6)  ---------------------------------------


    POTLOK:  cpu time    0.5920: real time    0.5935
    SETDIJ:  cpu time    2.1281: real time    2.1311
     EDDAV:  cpu time  264.3485: real time  264.5245
       DOS:  cpu time    0.0080: real time    0.0053
    CHARGE:  cpu time   11.9687: real time   11.9794
    MIXING:  cpu time    0.0160: real time    0.0153
    --------------------------------------------
      LOOP:  cpu time  279.0654: real time  279.2860

 eigenvalue-minimisations  : 37064
 total energy-change (2. order) :-0.1311383E+03  (-0.1537948E+03)
 number of electron     400.0000000 magnetization      50.2168530     50.2134921     50.2161065
 augmentation part        5.9513412 magnetization      51.0115465     51.0177318     51.0092351

 Broyden mixing:
  rms(total) = 0.48445E+01    rms(broyden)= 0.48444E+01
  rms(prec ) = 0.50254E+01
  weight for this iteration     100.00

 eigenvalues of (default mixing * dielectric matrix)
  average eigenvalue GAMMA=   0.7602
  0.7602

 Free energy of the ion-electron system (eV)
  ---------------------------------------------------
  alpha Z        PSCENC =       370.05370877
  Ewald energy   TEWEN  =    -15521.93473335
  -Hartree energ DENC   =     -8484.80748264
  -exchange      EXHF   =         0.00000000
  -V(xc)+E(xc)   XCENC  =       691.51534411
  PAW double counting   =     24200.26853514   -23463.30627437
  entropy T*S    EENTRO =        -0.00000000
  eigenvalues    EBANDS =     -2484.97543233
  atomic energy  EATOM  =     24749.00668030
  Solvation  Ediel_sol  =         0.00000000
  ---------------------------------------------------
  free energy    TOTEN  =        55.82034563 eV

  energy without entropy =       55.82034563  energy(sigma->0) =       55.82034563


--------------------------------------------------------------------------------------------------------




----------------------------------------- Iteration    1(   7)  ---------------------------------------


    POTLOK:  cpu time    0.5880: real time    0.5901
    SETDIJ:  cpu time    2.1801: real time    2.1803
     EDDAV:  cpu time  276.9013: real time  277.0846
       DOS:  cpu time    0.0080: real time    0.0078
    CHARGE:  cpu time   11.9487: real time   11.9555
    MIXING:  cpu time    0.0160: real time    0.0158
    --------------------------------------------
      LOOP:  cpu time  291.6462: real time  291.8760

 eigenvalue-minimisations  : 39288
 total energy-change (2. order) :-0.1501109E+03  (-0.1595215E+02)
 number of electron     400.0000000 magnetization      34.1518679     34.1466072     34.1554785
 augmentation part        5.6168676 magnetization      35.1615813     35.1666019     35.1487678

 Broyden mixing:
  rms(total) = 0.28237E+01    rms(broyden)= 0.28237E+01
  rms(prec ) = 0.29756E+01
  weight for this iteration     100.00

 eigenvalues of (default mixing * dielectric matrix)
  average eigenvalue GAMMA=   0.8437
  0.8437  0.8437

 Free energy of the ion-electron system (eV)
  ---------------------------------------------------
  alpha Z        PSCENC =       370.05370877
  Ewald energy   TEWEN  =    -15521.93473335
  -Hartree energ DENC   =     -8533.58966291
  -exchange      EXHF   =         0.00000000
  -V(xc)+E(xc)   XCENC  =       592.35065062
  PAW double counting   =     26658.68965877   -25921.88860805
  entropy T*S    EENTRO =        -0.00001091
  eigenvalues    EBANDS =     -2486.97824353
  atomic energy  EATOM  =     24749.00668030
  Solvation  Ediel_sol  =         0.00000000
  ---------------------------------------------------
  free energy    TOTEN  =       -94.29056029 eV

  energy without entropy =      -94.29054937  energy(sigma->0) =      -94.29055483


--------------------------------------------------------------------------------------------------------




----------------------------------------- Iteration    1(   8)  ---------------------------------------


    POTLOK:  cpu time    0.6280: real time    0.6280
    SETDIJ:  cpu time    2.1601: real time    2.1602
     EDDAV:  cpu time  265.7246: real time  265.9034
       DOS:  cpu time    0.0040: real time    0.0041
    CHARGE:  cpu time   11.9607: real time   11.9645
    MIXING:  cpu time    0.0120: real time    0.0157
    --------------------------------------------
      LOOP:  cpu time  280.4935: real time  280.7072

 eigenvalue-minimisations  : 37192
 total energy-change (2. order) :-0.1088765E+03  (-0.6446910E+01)
 number of electron     400.0000000 magnetization      15.5905779     15.5801467     15.5936097
 augmentation part        6.6762876 magnetization      16.7539936     16.7610008     16.7572714

 Broyden mixing:
  rms(total) = 0.18250E+01    rms(broyden)= 0.18250E+01
  rms(prec ) = 0.18792E+01
  weight for this iteration     100.00

 eigenvalues of (default mixing * dielectric matrix)
  average eigenvalue GAMMA=   1.0138
  1.4388  0.9703  0.6323

 Free energy of the ion-electron system (eV)
  ---------------------------------------------------
  alpha Z        PSCENC =       370.05370877
  Ewald energy   TEWEN  =    -15521.93473335
  -Hartree energ DENC   =     -8567.65118002
  -exchange      EXHF   =         0.00000000
  -V(xc)+E(xc)   XCENC  =       528.86192308
  PAW double counting   =     28678.70635978   -27944.01231481
  entropy T*S    EENTRO =        -0.00000000
  eigenvalues    EBANDS =     -2496.19749786
  atomic energy  EATOM  =     24749.00668030
  Solvation  Ediel_sol  =         0.00000000
  ---------------------------------------------------
  free energy    TOTEN  =      -203.16705411 eV

  energy without entropy =     -203.16705411  energy(sigma->0) =     -203.16705411


--------------------------------------------------------------------------------------------------------




----------------------------------------- Iteration    1(   9)  ---------------------------------------


    POTLOK:  cpu time    0.5920: real time    0.5907
    SETDIJ:  cpu time    2.1441: real time    2.1459
     EDDAV:  cpu time  261.7164: real time  261.8904
       DOS:  cpu time    0.0040: real time    0.0046
    CHARGE:  cpu time   11.9207: real time   11.9290
    MIXING:  cpu time    0.0200: real time    0.0166
    --------------------------------------------
      LOOP:  cpu time  276.3973: real time  276.6047

 eigenvalue-minimisations  : 36672
 total energy-change (2. order) :-0.1320130E+03  (-0.1234368E+02)
 number of electron     400.0000000 magnetization      10.2093285     10.1970011     10.2087657
 augmentation part        7.9384237 magnetization      11.0163808     11.0248024     11.0301657

 Broyden mixing:
  rms(total) = 0.90397E+00    rms(broyden)= 0.90396E+00
  rms(prec ) = 0.95584E+00
  weight for this iteration     100.00

 eigenvalues of (default mixing * dielectric matrix)
  average eigenvalue GAMMA=   1.0840
  1.8363  1.1039  0.6978  0.6978

 Free energy of the ion-electron system (eV)
  ---------------------------------------------------
  alpha Z        PSCENC =       370.05370877
  Ewald energy   TEWEN  =    -15521.93473335
  -Hartree energ DENC   =     -8599.03892682
  -exchange      EXHF   =         0.00000000
  -V(xc)+E(xc)   XCENC  =       463.09197814
  PAW double counting   =     30766.01885934   -30032.43007402
  entropy T*S    EENTRO =         0.00000000
  eigenvalues    EBANDS =     -2529.94758191
  atomic energy  EATOM  =     24749.00668030
  Solvation  Ediel_sol  =         0.00000000
  ---------------------------------------------------
  free energy    TOTEN  =      -335.18008955 eV

  energy without entropy =     -335.18008955  energy(sigma->0) =     -335.18008955


--------------------------------------------------------------------------------------------------------




----------------------------------------- Iteration    1(  10)  ---------------------------------------


    POTLOK:  cpu time    0.5920: real time    0.5917
    SETDIJ:  cpu time    2.1561: real time    2.1591
     EDDAV:  cpu time  264.0725: real time  264.2474
       DOS:  cpu time    0.0040: real time    0.0039
    CHARGE:  cpu time   11.9247: real time   11.9343
    MIXING:  cpu time    0.0200: real time    0.0171
    --------------------------------------------
      LOOP:  cpu time  278.7694: real time  278.9998

 eigenvalue-minimisations  : 37304
 total energy-change (2. order) :-0.4783262E+02  (-0.4997804E+01)
 number of electron     400.0000000 magnetization       6.4040122      6.3945620      6.4016728
 augmentation part        8.2468547 magnetization       6.9237171      6.9222919      6.9268186

 Broyden mixing:
  rms(total) = 0.66550E+00    rms(broyden)= 0.66550E+00
  rms(prec ) = 0.74229E+00
  weight for this iteration     100.00

 eigenvalues of (default mixing * dielectric matrix)
  average eigenvalue GAMMA=   1.1359
  1.7017  1.7017  0.8309  0.8309  0.6141

 Free energy of the ion-electron system (eV)
  ---------------------------------------------------
  alpha Z        PSCENC =       370.05370877
  Ewald energy   TEWEN  =    -15521.93473335
  -Hartree energ DENC   =     -8585.09743329
  -exchange      EXHF   =         0.00000000
  -V(xc)+E(xc)   XCENC  =       442.72023433
  PAW double counting   =     31100.90057753   -30365.74335121
  entropy T*S    EENTRO =         0.00000000
  eigenvalues    EBANDS =     -2572.91839452
  atomic energy  EATOM  =     24749.00668030
  Solvation  Ediel_sol  =         0.00000000
  ---------------------------------------------------
  free energy    TOTEN  =      -383.01271145 eV

  energy without entropy =     -383.01271145  energy(sigma->0) =     -383.01271145


--------------------------------------------------------------------------------------------------------




----------------------------------------- Iteration    1(  11)  ---------------------------------------


    POTLOK:  cpu time    0.5840: real time    0.5852
    SETDIJ:  cpu time    2.2041: real time    2.2023
     EDDAV:  cpu time  267.9527: real time  268.1329
       DOS:  cpu time    0.0040: real time    0.0042
    CHARGE:  cpu time   11.8367: real time   11.8450
    MIXING:  cpu time    0.0200: real time    0.0175
    --------------------------------------------
      LOOP:  cpu time  282.6017: real time  282.8083

 eigenvalue-minimisations  : 38200
 total energy-change (2. order) :-0.2678258E+02  (-0.3597511E+01)
 number of electron     400.0000000 magnetization       3.1486335      3.1426730      3.1464619
 augmentation part        8.1007440 magnetization       3.3750689      3.3711534      3.3738942

 Broyden mixing:
  rms(total) = 0.38488E+00    rms(broyden)= 0.38487E+00
  rms(prec ) = 0.43845E+00
  weight for this iteration     100.00

 eigenvalues of (default mixing * dielectric matrix)
  average eigenvalue GAMMA=   1.2092
  2.0601  2.0601  0.9488  0.9488  0.6603  0.5769

 Free energy of the ion-electron system (eV)
  ---------------------------------------------------
  alpha Z        PSCENC =       370.05370877
  Ewald energy   TEWEN  =    -15521.93473335
  -Hartree energ DENC   =     -8532.52590023
  -exchange      EXHF   =         0.00000000
  -V(xc)+E(xc)   XCENC  =       428.98582781
  PAW double counting   =     31024.23778977   -30285.72081095
  entropy T*S    EENTRO =         0.00000000
  eigenvalues    EBANDS =     -2641.89784907
  atomic energy  EATOM  =     24749.00668030
  Solvation  Ediel_sol  =         0.00000000
  ---------------------------------------------------
  free energy    TOTEN  =      -409.79528695 eV

  energy without entropy =     -409.79528695  energy(sigma->0) =     -409.79528695


--------------------------------------------------------------------------------------------------------




----------------------------------------- Iteration    1(  12)  ---------------------------------------


    POTLOK:  cpu time    0.5880: real time    0.5879
    SETDIJ:  cpu time    2.1401: real time    2.1428
     EDDAV:  cpu time  277.8334: real time  278.0183
       DOS:  cpu time    0.0040: real time    0.0041
    CHARGE:  cpu time   11.8407: real time   11.8477
    MIXING:  cpu time    0.0160: real time    0.0185
    --------------------------------------------
      LOOP:  cpu time  292.4263: real time  293.1488

 eigenvalue-minimisations  : 39976
 total energy-change (2. order) :-0.1125673E+02  (-0.1703917E+01)
 number of electron     400.0000000 magnetization       2.5092294      2.5044201      2.5076957
 augmentation part        7.8999346 magnetization       2.5736354      2.5688290      2.5711573

 Broyden mixing:
  rms(total) = 0.25300E+00    rms(broyden)= 0.25300E+00
  rms(prec ) = 0.29102E+00
  weight for this iteration     100.00

 eigenvalues of (default mixing * dielectric matrix)
  average eigenvalue GAMMA=   1.1578
  2.0766  2.0766  0.9929  0.9929  0.6832  0.6832  0.5988

 Free energy of the ion-electron system (eV)
  ---------------------------------------------------
  alpha Z        PSCENC =       370.05370877
  Ewald energy   TEWEN  =    -15521.93473335
  -Hartree energ DENC   =     -8484.64579568
  -exchange      EXHF   =         0.00000000
  -V(xc)+E(xc)   XCENC  =       422.41747023
  PAW double counting   =     30871.53264967   -30130.25223790
  entropy T*S    EENTRO =        -0.00000000
  eigenvalues    EBANDS =     -2697.22976167
  atomic energy  EATOM  =     24749.00668030
  Solvation  Ediel_sol  =         0.00000000
  ---------------------------------------------------
  free energy    TOTEN  =      -421.05201963 eV

  energy without entropy =     -421.05201963  energy(sigma->0) =     -421.05201963


--------------------------------------------------------------------------------------------------------




----------------------------------------- Iteration    1(  13)  ---------------------------------------


    POTLOK:  cpu time    0.5720: real time    0.5733
    SETDIJ:  cpu time    2.1321: real time    2.1345
     EDDAV:  cpu time  281.0056: real time  281.1934
       DOS:  cpu time    0.0080: real time    0.0045
    CHARGE:  cpu time   11.8567: real time   11.8649
    MIXING:  cpu time    0.0160: real time    0.0180
    --------------------------------------------
      LOOP:  cpu time  295.5945: real time  295.8033

 eigenvalue-minimisations  : 40552
 total energy-change (2. order) :-0.1757387E+01  (-0.2602519E+00)
 number of electron     400.0000000 magnetization       1.7411215      1.7383300      1.7403393
 augmentation part        7.9092105 magnetization       1.7916739      1.7896287      1.7911222

 Broyden mixing:
  rms(total) = 0.20761E+00    rms(broyden)= 0.20761E+00
  rms(prec ) = 0.24446E+00
  weight for this iteration     100.00

 eigenvalues of (default mixing * dielectric matrix)
  average eigenvalue GAMMA=   1.1803
  2.2028  2.2028  1.0544  1.0544  0.8669  0.8669  0.6225  0.5715

 Free energy of the ion-electron system (eV)
  ---------------------------------------------------
  alpha Z        PSCENC =       370.05370877
  Ewald energy   TEWEN  =    -15521.93473335
  -Hartree energ DENC   =     -8473.55077195
[...]
     0.0000000     0.0000000     0.0000000     0.0000000     0.0000000     0.0000000     0.0000000
     0.0000000     0.0000000     0.0000000     0.0000000     0.0000000     0.0000000     0.0000000
     0.0000000     0.0000000     0.0000000     0.0000000     0.0000000     0.0000000     0.0000000
     0.0000000     0.0000000     0.0000000     0.0000000     0.0000000     0.0000000     0.0000000

 Ion:   82  E_soc:     -0.2785185
 l=   1
     0.0000000    -0.0479330    -0.0483195
    -0.0479330     0.0000000    -0.0430264
    -0.0483195    -0.0430264     0.0000000
 l=   2
     0.0000000    -0.0000094     0.0000000    -0.0000030     0.0000228
    -0.0000094     0.0000000     0.0000047    -0.0000026     0.0000121
     0.0000000     0.0000047     0.0000000    -0.0000034     0.0000000
    -0.0000030    -0.0000026    -0.0000034     0.0000000    -0.0000014
     0.0000228     0.0000121     0.0000000    -0.0000014     0.0000000
 l=   3
     0.0000000     0.0000000     0.0000000     0.0000000     0.0000000     0.0000000     0.0000000
     0.0000000     0.0000000     0.0000000     0.0000000     0.0000000     0.0000000     0.0000000
     0.0000000     0.0000000     0.0000000     0.0000000     0.0000000     0.0000000     0.0000000
     0.0000000     0.0000000     0.0000000     0.0000000     0.0000000     0.0000000     0.0000000
     0.0000000     0.0000000     0.0000000     0.0000000     0.0000000     0.0000000     0.0000000
     0.0000000     0.0000000     0.0000000     0.0000000     0.0000000     0.0000000     0.0000000
     0.0000000     0.0000000     0.0000000     0.0000000     0.0000000     0.0000000     0.0000000

 Ion:   83  E_soc:     -0.2785185
 l=   1
     0.0000000    -0.0479330    -0.0483195
    -0.0479330     0.0000000    -0.0430264
    -0.0483195    -0.0430264     0.0000000
 l=   2
     0.0000000    -0.0000094     0.0000000    -0.0000030     0.0000228
    -0.0000094     0.0000000     0.0000047    -0.0000026     0.0000121
     0.0000000     0.0000047     0.0000000    -0.0000034     0.0000000
    -0.0000030    -0.0000026    -0.0000034     0.0000000    -0.0000014
     0.0000228     0.0000121     0.0000000    -0.0000014     0.0000000
 l=   3
     0.0000000     0.0000000     0.0000000     0.0000000     0.0000000     0.0000000     0.0000000
     0.0000000     0.0000000     0.0000000     0.0000000     0.0000000     0.0000000     0.0000000
     0.0000000     0.0000000     0.0000000     0.0000000     0.0000000     0.0000000     0.0000000
     0.0000000     0.0000000     0.0000000     0.0000000     0.0000000     0.0000000     0.0000000
     0.0000000     0.0000000     0.0000000     0.0000000     0.0000000     0.0000000     0.0000000
     0.0000000     0.0000000     0.0000000     0.0000000     0.0000000     0.0000000     0.0000000
     0.0000000     0.0000000     0.0000000     0.0000000     0.0000000     0.0000000     0.0000000

 Ion:   84  E_soc:     -0.2808899
 l=   1
     0.0000000    -0.0487613    -0.0487653
    -0.0487613     0.0000000    -0.0429432
    -0.0487653    -0.0429432     0.0000000
 l=   2
     0.0000000    -0.0000108     0.0000000    -0.0000031     0.0000249
    -0.0000108     0.0000000     0.0000060    -0.0000023     0.0000144
     0.0000000     0.0000060     0.0000000    -0.0000032     0.0000000
    -0.0000031    -0.0000023    -0.0000032     0.0000000    -0.0000010
     0.0000249     0.0000144     0.0000000    -0.0000010     0.0000000
 l=   3
     0.0000000     0.0000000     0.0000000     0.0000000     0.0000000     0.0000000     0.0000000
     0.0000000     0.0000000     0.0000000     0.0000000     0.0000000     0.0000000     0.0000000
     0.0000000     0.0000000     0.0000000     0.0000000     0.0000000     0.0000000     0.0000000
     0.0000000     0.0000000     0.0000000     0.0000000     0.0000000     0.0000000     0.0000000
     0.0000000     0.0000000     0.0000000     0.0000000     0.0000000     0.0000000     0.0000000
     0.0000000     0.0000000     0.0000000     0.0000000     0.0000000     0.0000000     0.0000000
     0.0000000     0.0000000     0.0000000     0.0000000     0.0000000     0.0000000     0.0000000

 Ion:   85  E_soc:     -0.2808899
 l=   1
     0.0000000    -0.0487613    -0.0487653
    -0.0487613     0.0000000    -0.0429432
    -0.0487653    -0.0429432     0.0000000
 l=   2
     0.0000000    -0.0000108     0.0000000    -0.0000031     0.0000249
    -0.0000108     0.0000000     0.0000060    -0.0000023     0.0000144
     0.0000000     0.0000060     0.0000000    -0.0000032     0.0000000
    -0.0000031    -0.0000023    -0.0000032     0.0000000    -0.0000010
     0.0000249     0.0000144     0.0000000    -0.0000010     0.0000000
 l=   3
     0.0000000     0.0000000     0.0000000     0.0000000     0.0000000     0.0000000     0.0000000
     0.0000000     0.0000000     0.0000000     0.0000000     0.0000000     0.0000000     0.0000000
     0.0000000     0.0000000     0.0000000     0.0000000     0.0000000     0.0000000     0.0000000
     0.0000000     0.0000000     0.0000000     0.0000000     0.0000000     0.0000000     0.0000000
     0.0000000     0.0000000     0.0000000     0.0000000     0.0000000     0.0000000     0.0000000
     0.0000000     0.0000000     0.0000000     0.0000000     0.0000000     0.0000000     0.0000000
     0.0000000     0.0000000     0.0000000     0.0000000     0.0000000     0.0000000     0.0000000

 Ion:   86  E_soc:     -0.2785185
 l=   1
     0.0000000    -0.0479330    -0.0483195
    -0.0479330     0.0000000    -0.0430264
    -0.0483195    -0.0430264     0.0000000
 l=   2
     0.0000000    -0.0000094     0.0000000    -0.0000030     0.0000228
    -0.0000094     0.0000000     0.0000047    -0.0000026     0.0000121
     0.0000000     0.0000047     0.0000000    -0.0000034     0.0000000
    -0.0000030    -0.0000026    -0.0000034     0.0000000    -0.0000014
     0.0000228     0.0000121     0.0000000    -0.0000014     0.0000000
 l=   3
     0.0000000     0.0000000     0.0000000     0.0000000     0.0000000     0.0000000     0.0000000
     0.0000000     0.0000000     0.0000000     0.0000000     0.0000000     0.0000000     0.0000000
     0.0000000     0.0000000     0.0000000     0.0000000     0.0000000     0.0000000     0.0000000
     0.0000000     0.0000000     0.0000000     0.0000000     0.0000000     0.0000000     0.0000000
     0.0000000     0.0000000     0.0000000     0.0000000     0.0000000     0.0000000     0.0000000
     0.0000000     0.0000000     0.0000000     0.0000000     0.0000000     0.0000000     0.0000000
     0.0000000     0.0000000     0.0000000     0.0000000     0.0000000     0.0000000     0.0000000

 Ion:   87  E_soc:     -0.2785185
 l=   1
     0.0000000    -0.0479330    -0.0483195
    -0.0479330     0.0000000    -0.0430264
    -0.0483195    -0.0430264     0.0000000
 l=   2
     0.0000000    -0.0000094     0.0000000    -0.0000030     0.0000228
    -0.0000094     0.0000000     0.0000047    -0.0000026     0.0000121
     0.0000000     0.0000047     0.0000000    -0.0000034     0.0000000
    -0.0000030    -0.0000026    -0.0000034     0.0000000    -0.0000014
     0.0000228     0.0000121     0.0000000    -0.0000014     0.0000000
 l=   3
     0.0000000     0.0000000     0.0000000     0.0000000     0.0000000     0.0000000     0.0000000
     0.0000000     0.0000000     0.0000000     0.0000000     0.0000000     0.0000000     0.0000000
     0.0000000     0.0000000     0.0000000     0.0000000     0.0000000     0.0000000     0.0000000
     0.0000000     0.0000000     0.0000000     0.0000000     0.0000000     0.0000000     0.0000000
     0.0000000     0.0000000     0.0000000     0.0000000     0.0000000     0.0000000     0.0000000
     0.0000000     0.0000000     0.0000000     0.0000000     0.0000000     0.0000000     0.0000000
     0.0000000     0.0000000     0.0000000     0.0000000     0.0000000     0.0000000     0.0000000

 Ion:   88  E_soc:     -0.2808899
 l=   1
     0.0000000    -0.0487613    -0.0487653
    -0.0487613     0.0000000    -0.0429432
    -0.0487653    -0.0429432     0.0000000
 l=   2
     0.0000000    -0.0000108     0.0000000    -0.0000031     0.0000249
    -0.0000108     0.0000000     0.0000060    -0.0000023     0.0000144
     0.0000000     0.0000060     0.0000000    -0.0000032     0.0000000
    -0.0000031    -0.0000023    -0.0000032     0.0000000    -0.0000010
     0.0000249     0.0000144     0.0000000    -0.0000010     0.0000000
 l=   3
     0.0000000     0.0000000     0.0000000     0.0000000     0.0000000     0.0000000     0.0000000
     0.0000000     0.0000000     0.0000000     0.0000000     0.0000000     0.0000000     0.0000000
     0.0000000     0.0000000     0.0000000     0.0000000     0.0000000     0.0000000     0.0000000
     0.0000000     0.0000000     0.0000000     0.0000000     0.0000000     0.0000000     0.0000000
     0.0000000     0.0000000     0.0000000     0.0000000     0.0000000     0.0000000     0.0000000
     0.0000000     0.0000000     0.0000000     0.0000000     0.0000000     0.0000000     0.0000000
     0.0000000     0.0000000     0.0000000     0.0000000     0.0000000     0.0000000     0.0000000

 Ion:   89  E_soc:     -0.2859089
 l=   1
     0.0000000    -0.0429914    -0.0495272
    -0.0429914     0.0000000    -0.0504578
    -0.0495272    -0.0504578     0.0000000
 l=   2
     0.0000000    -0.0000022     0.0000000    -0.0000083     0.0000201
    -0.0000022     0.0000000    -0.0000023    -0.0000025    -0.0000014
     0.0000000    -0.0000023     0.0000000     0.0000053     0.0000000
    -0.0000083    -0.0000025     0.0000053     0.0000000     0.0000132
     0.0000201    -0.0000014     0.0000000     0.0000132     0.0000000
 l=   3
     0.0000000     0.0000000     0.0000000     0.0000000     0.0000000     0.0000000     0.0000000
     0.0000000     0.0000000     0.0000000     0.0000000     0.0000000     0.0000000     0.0000000
     0.0000000     0.0000000     0.0000000     0.0000000     0.0000000     0.0000000     0.0000000
     0.0000000     0.0000000     0.0000000     0.0000000     0.0000000     0.0000000     0.0000000
     0.0000000     0.0000000     0.0000000     0.0000000     0.0000000     0.0000000     0.0000000
     0.0000000     0.0000000     0.0000000     0.0000000     0.0000000     0.0000000     0.0000000
     0.0000000     0.0000000     0.0000000     0.0000000     0.0000000     0.0000000     0.0000000

 Ion:   90  E_soc:     -0.2859163
 l=   1
     0.0000000    -0.0429915    -0.0495296
    -0.0429915     0.0000000    -0.0504591
    -0.0495296    -0.0504591     0.0000000
 l=   2
     0.0000000    -0.0000022     0.0000000    -0.0000083     0.0000201
    -0.0000022     0.0000000    -0.0000023    -0.0000025    -0.0000014
     0.0000000    -0.0000023     0.0000000     0.0000053     0.0000000
    -0.0000083    -0.0000025     0.0000053     0.0000000     0.0000132
     0.0000201    -0.0000014     0.0000000     0.0000132     0.0000000
 l=   3
     0.0000000     0.0000000     0.0000000     0.0000000     0.0000000     0.0000000     0.0000000
     0.0000000     0.0000000     0.0000000     0.0000000     0.0000000     0.0000000     0.0000000
     0.0000000     0.0000000     0.0000000     0.0000000     0.0000000     0.0000000     0.0000000
     0.0000000     0.0000000     0.0000000     0.0000000     0.0000000     0.0000000     0.0000000
     0.0000000     0.0000000     0.0000000     0.0000000     0.0000000     0.0000000     0.0000000
     0.0000000     0.0000000     0.0000000     0.0000000     0.0000000     0.0000000     0.0000000
     0.0000000     0.0000000     0.0000000     0.0000000     0.0000000     0.0000000     0.0000000

 Ion:   91  E_soc:     -0.2859163
 l=   1
     0.0000000    -0.0429915    -0.0495296
    -0.0429915     0.0000000    -0.0504591
    -0.0495296    -0.0504591     0.0000000
 l=   2
     0.0000000    -0.0000022     0.0000000    -0.0000083     0.0000201
    -0.0000022     0.0000000    -0.0000023    -0.0000025    -0.0000014
     0.0000000    -0.0000023     0.0000000     0.0000053     0.0000000
    -0.0000083    -0.0000025     0.0000053     0.0000000     0.0000132
     0.0000201    -0.0000014     0.0000000     0.0000132     0.0000000
 l=   3
     0.0000000     0.0000000     0.0000000     0.0000000     0.0000000     0.0000000     0.0000000
     0.0000000     0.0000000     0.0000000     0.0000000     0.0000000     0.0000000     0.0000000
     0.0000000     0.0000000     0.0000000     0.0000000     0.0000000     0.0000000     0.0000000
     0.0000000     0.0000000     0.0000000     0.0000000     0.0000000     0.0000000     0.0000000
     0.0000000     0.0000000     0.0000000     0.0000000     0.0000000     0.0000000     0.0000000
     0.0000000     0.0000000     0.0000000     0.0000000     0.0000000     0.0000000     0.0000000
     0.0000000     0.0000000     0.0000000     0.0000000     0.0000000     0.0000000     0.0000000

 Ion:   92  E_soc:     -0.2859089
 l=   1
     0.0000000    -0.0429914    -0.0495272
    -0.0429914     0.0000000    -0.0504578
    -0.0495272    -0.0504578     0.0000000
 l=   2
     0.0000000    -0.0000022     0.0000000    -0.0000083     0.0000201
    -0.0000022     0.0000000    -0.0000023    -0.0000025    -0.0000014
     0.0000000    -0.0000023     0.0000000     0.0000053     0.0000000
    -0.0000083    -0.0000025     0.0000053     0.0000000     0.0000132
     0.0000201    -0.0000014     0.0000000     0.0000132     0.0000000
 l=   3
     0.0000000     0.0000000     0.0000000     0.0000000     0.0000000     0.0000000     0.0000000
     0.0000000     0.0000000     0.0000000     0.0000000     0.0000000     0.0000000     0.0000000
     0.0000000     0.0000000     0.0000000     0.0000000     0.0000000     0.0000000     0.0000000
     0.0000000     0.0000000     0.0000000     0.0000000     0.0000000     0.0000000     0.0000000
     0.0000000     0.0000000     0.0000000     0.0000000     0.0000000     0.0000000     0.0000000
     0.0000000     0.0000000     0.0000000     0.0000000     0.0000000     0.0000000     0.0000000
     0.0000000     0.0000000     0.0000000     0.0000000     0.0000000     0.0000000     0.0000000

 Ion:   93  E_soc:     -0.2859089
 l=   1
     0.0000000    -0.0429914    -0.0495272
    -0.0429914     0.0000000    -0.0504578
    -0.0495272    -0.0504578     0.0000000
 l=   2
     0.0000000    -0.0000022     0.0000000    -0.0000083     0.0000201
    -0.0000022     0.0000000    -0.0000023    -0.0000025    -0.0000014
     0.0000000    -0.0000023     0.0000000     0.0000053     0.0000000
    -0.0000083    -0.0000025     0.0000053     0.0000000     0.0000132
     0.0000201    -0.0000014     0.0000000     0.0000132     0.0000000
 l=   3
     0.0000000     0.0000000     0.0000000     0.0000000     0.0000000     0.0000000     0.0000000
     0.0000000     0.0000000     0.0000000     0.0000000     0.0000000     0.0000000     0.0000000
     0.0000000     0.0000000     0.0000000     0.0000000     0.0000000     0.0000000     0.0000000
     0.0000000     0.0000000     0.0000000     0.0000000     0.0000000     0.0000000     0.0000000
     0.0000000     0.0000000     0.0000000     0.0000000     0.0000000     0.0000000     0.0000000
     0.0000000     0.0000000     0.0000000     0.0000000     0.0000000     0.0000000     0.0000000
     0.0000000     0.0000000     0.0000000     0.0000000     0.0000000     0.0000000     0.0000000

 Ion:   94  E_soc:     -0.2859163
 l=   1
     0.0000000    -0.0429915    -0.0495296
    -0.0429915     0.0000000    -0.0504591
    -0.0495296    -0.0504591     0.0000000
 l=   2
     0.0000000    -0.0000022     0.0000000    -0.0000083     0.0000201
    -0.0000022     0.0000000    -0.0000023    -0.0000025    -0.0000014
     0.0000000    -0.0000023     0.0000000     0.0000053     0.0000000
    -0.0000083    -0.0000025     0.0000053     0.0000000     0.0000132
     0.0000201    -0.0000014     0.0000000     0.0000132     0.0000000
 l=   3
     0.0000000     0.0000000     0.0000000     0.0000000     0.0000000     0.0000000     0.0000000
     0.0000000     0.0000000     0.0000000     0.0000000     0.0000000     0.0000000     0.0000000
     0.0000000     0.0000000     0.0000000     0.0000000     0.0000000     0.0000000     0.0000000
     0.0000000     0.0000000     0.0000000     0.0000000     0.0000000     0.0000000     0.0000000
     0.0000000     0.0000000     0.0000000     0.0000000     0.0000000     0.0000000     0.0000000
     0.0000000     0.0000000     0.0000000     0.0000000     0.0000000     0.0000000     0.0000000
     0.0000000     0.0000000     0.0000000     0.0000000     0.0000000     0.0000000     0.0000000

 Ion:   95  E_soc:     -0.2859163
 l=   1
     0.0000000    -0.0429915    -0.0495296
    -0.0429915     0.0000000    -0.0504591
    -0.0495296    -0.0504591     0.0000000
 l=   2
     0.0000000    -0.0000022     0.0000000    -0.0000083     0.0000201
    -0.0000022     0.0000000    -0.0000023    -0.0000025    -0.0000014
     0.0000000    -0.0000023     0.0000000     0.0000053     0.0000000
    -0.0000083    -0.0000025     0.0000053     0.0000000     0.0000132
     0.0000201    -0.0000014     0.0000000     0.0000132     0.0000000
 l=   3
     0.0000000     0.0000000     0.0000000     0.0000000     0.0000000     0.0000000     0.0000000
     0.0000000     0.0000000     0.0000000     0.0000000     0.0000000     0.0000000     0.0000000
     0.0000000     0.0000000     0.0000000     0.0000000     0.0000000     0.0000000     0.0000000
     0.0000000     0.0000000     0.0000000     0.0000000     0.0000000     0.0000000     0.0000000
     0.0000000     0.0000000     0.0000000     0.0000000     0.0000000     0.0000000     0.0000000
     0.0000000     0.0000000     0.0000000     0.0000000     0.0000000     0.0000000     0.0000000
     0.0000000     0.0000000     0.0000000     0.0000000     0.0000000     0.0000000     0.0000000

 Ion:   96  E_soc:     -0.2859089
 l=   1
     0.0000000    -0.0429914    -0.0495272
    -0.0429914     0.0000000    -0.0504578
    -0.0495272    -0.0504578     0.0000000
 l=   2
     0.0000000    -0.0000022     0.0000000    -0.0000083     0.0000201
    -0.0000022     0.0000000    -0.0000023    -0.0000025    -0.0000014
     0.0000000    -0.0000023     0.0000000     0.0000053     0.0000000
    -0.0000083    -0.0000025     0.0000053     0.0000000     0.0000132
     0.0000201    -0.0000014     0.0000000     0.0000132     0.0000000
 l=   3
     0.0000000     0.0000000     0.0000000     0.0000000     0.0000000     0.0000000     0.0000000
     0.0000000     0.0000000     0.0000000     0.0000000     0.0000000     0.0000000     0.0000000
     0.0000000     0.0000000     0.0000000     0.0000000     0.0000000     0.0000000     0.0000000
     0.0000000     0.0000000     0.0000000     0.0000000     0.0000000     0.0000000     0.0000000
     0.0000000     0.0000000     0.0000000     0.0000000     0.0000000     0.0000000     0.0000000
     0.0000000     0.0000000     0.0000000     0.0000000     0.0000000     0.0000000     0.0000000
     0.0000000     0.0000000     0.0000000     0.0000000     0.0000000     0.0000000     0.0000000

 total amount of memory used by VASP on root node   392927. kBytes
========================================================================

   base      :      30000. kBytes
   nonl-proj :      73667. kBytes
   fftplans  :      22714. kBytes
   grid      :      35610. kBytes
   one-center:        248. kBytes
   wavefun   :     230688. kBytes
 
  
  
 General timing and accounting informations for this job:
 ========================================================
  
                  Total CPU time used (sec):     9152.996
                            User time (sec):     9138.827
                          System time (sec):       14.169
                         Elapsed time (sec):     9173.592
  
                   Maximum memory used (kb):      413040.
                   Average memory used (kb):           0.
  
                          Minor page faults:       622219
                          Major page faults:            0
                 Voluntary context switches:        14037
