 running on  192 total cores
 distrk:  each k-point on  192 cores,    1 groups
 distr:  one band on   24 cores,    8 groups
 using from now: INCAR     
 vasp.5.4.1 24Jun15 (build Nov 25 2015 16:39:35) complex                        
  
 POSCAR found type information on POSCAR  C  N  H  Pb I 
 POSCAR found :  5 types and      96 ions
 scaLAPACK will be used

 ----------------------------------------------------------------------------- 
|                                                                             |
|  ADVICE TO THIS USER RUNNING 'VASP/VAMP'   (HEAR YOUR MASTER'S VOICE ...):  |
|                                                                             |
|      You have a (more or less) 'large supercell' and for larger cells       |
|      it might be more efficient to use real space projection opertators     |
|      So try LREAL= Auto  in the INCAR   file.                               |
|      Mind: At the moment your POTCAR file does not contain real space       |
|       projectors, and has to be modified,  BUT if you                       |
|      want to do an extremely  accurate calculation you might also keep the  |
|      reciprocal projection scheme          (i.e. LREAL=.FALSE.)             |
|                                                                             |
 ----------------------------------------------------------------------------- 


 ----------------------------------------------------------------------------- 
|                                                                             |
|  ADVICE TO THIS USER RUNNING 'VASP/VAMP'   (HEAR YOUR MASTER'S VOICE ...):  |
|                                                                             |
|      You enforced a specific xc-type in the INCAR file,                     |
|      a different type was found on the POTCAR file                          |
|          I HOPE YOU KNOW, WHAT YOU ARE  DOING                               |
|                                                                             |
 ----------------------------------------------------------------------------- 

 LDA part: xc-table for Pade appr. of Perdew
 POSCAR, INCAR and KPOINTS ok, starting setup
 WARNING: small aliasing (wrap around) errors must be expected
 FFT: planning ...
 WAVECAR not read
 entering main loop
       N       E                     dE             d eps       ncg     rms          rms(c)
DAV:   1     0.423042863859E+04    0.42304E+04   -0.19303E+05 32544   0.146E+03
DAV:   2     0.844202690447E+03   -0.33862E+04   -0.31356E+04 35656   0.322E+02
DAV:   3     0.234824645292E+03   -0.60938E+03   -0.58924E+03 44000   0.157E+02
DAV:   4     0.189226828891E+03   -0.45598E+02   -0.44552E+02 44128   0.437E+01
DAV:   5     0.186958671051E+03   -0.22682E+01   -0.22567E+01 50176   0.997E+00    0.981E+01
DAV:   6     0.558203456299E+02   -0.13114E+03   -0.15379E+03 37064   0.503E+01    0.484E+01
DAV:   7    -0.942905602870E+02   -0.15011E+03   -0.15952E+02 39288   0.216E+01    0.282E+01
DAV:   8    -0.203167054107E+03   -0.10888E+03   -0.64469E+01 37192   0.130E+01    0.182E+01
DAV:   9    -0.335180089545E+03   -0.13201E+03   -0.12344E+02 36672   0.162E+01    0.904E+00
DAV:  10    -0.383012711448E+03   -0.47833E+02   -0.49978E+01 37304   0.103E+01    0.666E+00
DAV:  11    -0.409795286946E+03   -0.26783E+02   -0.35975E+01 38200   0.803E+00    0.385E+00
DAV:  12    -0.421052019631E+03   -0.11257E+02   -0.17039E+01 39976   0.547E+00    0.253E+00
DAV:  13    -0.422809406863E+03   -0.17574E+01   -0.26025E+00 40552   0.261E+00    0.208E+00
DAV:  14    -0.423455142863E+03   -0.64574E+00   -0.86494E-01 38712   0.133E+00    0.119E+00
DAV:  15    -0.423529336142E+03   -0.74193E-01   -0.20112E-01 41784   0.730E-01    0.642E-01
DAV:  16    -0.423537781737E+03   -0.84456E-02   -0.33052E-02 41416   0.334E-01    0.402E-01
DAV:  17    -0.423541017629E+03   -0.32359E-02   -0.10310E-02 39064   0.170E-01    0.231E-01
DAV:  18    -0.423542858124E+03   -0.18405E-02   -0.25776E-03 39872   0.916E-02    0.821E-02
DAV:  19    -0.423543302684E+03   -0.44456E-03   -0.64768E-04 40784   0.511E-02    0.465E-02
DAV:  20    -0.423543539681E+03   -0.23700E-03   -0.22615E-04 37736   0.274E-02    0.266E-02
DAV:  21    -0.423543688067E+03   -0.14839E-03   -0.14286E-04 37520   0.194E-02    0.150E-02
DAV:  22    -0.423543700784E+03   -0.12718E-04   -0.17393E-05 43568   0.805E-03    0.968E-03
DAV:  23    -0.423543702509E+03   -0.17243E-05   -0.75609E-06 37528   0.409E-03    0.405E-03
DAV:  24    -0.423543705587E+03   -0.30783E-05   -0.30133E-06 36080   0.310E-03    0.198E-03
DAV:  25    -0.423543705767E+03   -0.17971E-06   -0.67117E-07 39880   0.138E-03    0.116E-03
DAV:  26    -0.423543705737E+03    0.29635E-07   -0.10464E-07 43080   0.632E-04    0.914E-04
DAV:  27    -0.423543705677E+03    0.59528E-07   -0.29279E-08 34760   0.335E-04    0.330E-04
DAV:  28    -0.423543705597E+03    0.79963E-07   -0.22456E-08 30704   0.269E-04    0.233E-04
DAV:  29    -0.423543705587E+03    0.10339E-07   -0.32828E-09 28976   0.147E-04    0.158E-04
DAV:  30    -0.423543705600E+03   -0.12853E-07   -0.16710E-09 25552   0.149E-04    0.607E-05
DAV:  31    -0.423543705606E+03   -0.64756E-08   -0.85509E-10 24384   0.962E-05
   1 F= -.42354371E+03 E0= -.42354371E+03  d E =0.000000E+00  mag=     0.0000     0.0000     0.0000
Application 22254257 resources: utime ~1756438s, stime ~2819s, Rss ~417104, inblocks ~2736820, outblocks ~4027670
