    2    2    1    1
  0.3405476E+02  0.4583961E-09  0.4583961E-09  0.4583961E-09  0.5000000E-15
  1.000000000000000E-004
  CAR 
 Name                                    
     18     16     16
 
  0.0000000E+00  0.0000000E+00  0.0000000E+00  0.4629630E-02
    1       -9.084472   1.000000
    2       -6.140604   1.000000
    3       -6.140604   1.000000
    4       -6.140604   1.000000
    5       -5.877490   1.000000
    6       -5.877490   1.000000
    7        2.150928   1.000000
    8        2.150928   1.000000
    9        2.150928   1.000000
   10        2.698324   0.000000
   11        6.650036   0.000000
   12        6.650036   0.000000
   13        6.650036   0.000000
   14        9.363633   0.000000
   15       11.483309   0.000000
   16       11.483309   0.000000
 
  0.1666667E+00  0.0000000E+00  0.0000000E+00  0.3703704E-01
    1       -8.983280   1.000000
    2       -6.121788   1.000000
    3       -6.121788   1.000000
    4       -6.059162   1.000000
    5       -5.878783   1.000000
    6       -5.878783   1.000000
    7        0.345082   1.000000
    8        1.918934   1.000000
    9        1.918934   1.000000
   10        3.848878   0.000000
   11        6.739326   0.000000
   12        6.989442   0.000000
   13        6.989442   0.000000
   14       10.373584   0.000000
   15       10.552859   0.000000
   16       10.552859   0.000000
 
  0.3333333E+00  0.0000000E+00  0.0000000E+00  0.3703704E-01
    1       -8.780320   1.000000
    2       -6.089442   1.000000
    3       -6.089442   1.000000
    4       -5.874933   1.000000
    5       -5.874933   1.000000
    6       -5.782677   1.000000
    7       -1.499174   1.000000
    8        1.532720   1.000000
    9        1.532720   1.000000
   10        3.915758   0.000000
   11        7.276693   0.000000
   12        7.276693   0.000000
   13        8.236298   0.000000
   14       10.009427   0.000000
   15       10.951768   0.000000
   16       10.951768   0.000000
 
  0.5000000E+00  0.0000000E+00  0.0000000E+00  0.1851852E-01
    1       -8.680557   1.000000
    2       -6.076897   1.000000
    3       -6.076897   1.000000
    4       -5.868747   1.000000
    5       -5.868747   1.000000
    6       -5.532865   1.000000
    7       -2.344883   1.000000
    8        1.365512   1.000000
    9        1.365512   1.000000
   10        3.805651   0.000000
   11        7.243176   0.000000
   12        7.243176   0.000000
   13        9.007848   0.000000
   14       10.588716   0.000000
   15       12.361826   0.000000
   16       12.361826   0.000000
 
  0.1666667E+00  0.1666667E+00  0.0000000E+00  0.2777778E-01
    1       -8.949888   1.000000
    2       -6.102740   1.000000
    3       -6.102740   1.000000
    4       -6.060470   1.000000
    5       -5.886071   1.000000
    6       -5.869836   1.000000
    7        0.333615   1.000000
    8        1.534860   1.000000
    9        1.534860   1.000000
   10        4.512053   0.000000
   11        5.721622   0.000000
   12        7.600738   0.000000
   13        7.600738   0.000000
   14        9.213667   0.000000
   15       11.141465   0.000000
   16       11.721102   0.000000
 
  0.3333333E+00  0.1666667E+00  0.0000000E+00  0.1111111E+00
    1       -8.781905   1.000000
    2       -6.077690   1.000000
    3       -6.066090   1.000000
    4       -5.930502   1.000000
    5       -5.864088   1.000000
    6       -5.807044   1.000000
    7       -1.044936   1.000000
    8        0.999717   1.000000
    9        1.121918   1.000000
   10        4.887754   0.000000
   11        6.061125   0.000000
   12        7.742012   0.000000
   13        8.167890   0.000000
   14        9.911966   0.000000
   15       11.752839   0.000000
   16       11.843930   0.000000
 
  0.5000000E+00  0.1666667E+00  0.0000000E+00  0.1111111E+00
    1       -8.650466   1.000000
    2       -6.062985   1.000000
    3       -6.050462   1.000000
    4       -5.894504   1.000000
    5       -5.865783   1.000000
    6       -5.508761   1.000000
    7       -2.132831   1.000000
    8        0.464414   1.000000
    9        1.039751   1.000000
   10        4.794333   0.000000
   11        6.728856   0.000000
   12        7.992794   0.000000
   13        8.585607   0.000000
   14       10.795031   0.000000
   15       12.002708   0.000000
   16       12.453783   0.000000
 
 -0.3333333E+00  0.1666667E+00  0.0000000E+00  0.1111111E+00
    1       -8.682839   1.000000
    2       -6.064522   1.000000
    3       -6.064090   1.000000
    4       -5.881395   1.000000
    5       -5.880517   1.000000
    6       -5.592505   1.000000
    7       -1.867592   1.000000
    8        0.329001   1.000000
    9        1.340973   1.000000
   10        4.847357   0.000000
   11        6.972919   0.000000
   12        7.687081   0.000000
   13        8.348661   0.000000
   14       10.545182   0.000000
   15       11.154924   0.000000
   16       12.357953   0.000000
 
 -0.1666667E+00  0.1666667E+00  0.0000000E+00  0.5555556E-01
    1       -8.848466   1.000000
    2       -6.100243   1.000000
    3       -6.086115   1.000000
    4       -5.932446   1.000000
    5       -5.887551   1.000000
    6       -5.855146   1.000000
    7       -0.637329   1.000000
    8        0.872984   1.000000
    9        1.797025   1.000000
   10        4.679295   0.000000
   11        6.711461   0.000000
   12        7.218910   0.000000
   13        7.525553   0.000000
   14        9.800309   0.000000
   15       10.992504   0.000000
   16       11.740364   0.000000
 
  0.3333333E+00  0.3333333E+00  0.0000000E+00  0.2777778E-01
    1       -8.684104   1.000000
    2       -6.020461   1.000000
    3       -6.020460   1.000000
    4       -5.971149   1.000000
    5       -5.854529   1.000000
    6       -5.693591   1.000000
    7       -1.396836   1.000000
    8        0.632280   1.000000
    9        0.632280   1.000000
   10        4.748541   0.000000
   11        5.160383   0.000000
   12        9.338417   0.000000
   13        9.538012   0.000000
   14        9.538012   0.000000
   15       12.377817   0.000000
   16       13.928099   0.000000
 
  0.5000000E+00  0.3333333E+00  0.0000000E+00  0.1111111E+00
    1       -8.588814   1.000000
    2       -6.019690   1.000000
    3       -5.999039   1.000000
    4       -5.945073   1.000000
    5       -5.855650   1.000000
    6       -5.443715   1.000000
    7       -2.020405   1.000000
    8       -0.041691   1.000000
    9        0.498107   1.000000
   10        4.837722   0.000000
   11        5.734412   0.000000
   12        8.987483   0.000000
   13        9.737399   0.000000
   14       11.068719   0.000000
   15       12.755772   0.000000
   16       13.491588   0.000000
 
 -0.3333333E+00  0.3333333E+00  0.0000000E+00  0.5555556E-01
    1       -8.589195   1.000000
    2       -6.039455   1.000000
    3       -6.018395   1.000000
    4       -5.906031   1.000000
    5       -5.873124   1.000000
    6       -5.381534   1.000000
    7       -2.056976   1.000000
    8       -0.505292   1.000000
    9        0.810581   1.000000
   10        5.064218   0.000000
   11        7.148739   0.000000
   12        8.892495   0.000000
   13        8.995904   0.000000
   14        9.483276   0.000000
   15       11.071817   0.000000
   16       14.179626   0.000000
 
  0.5000000E+00  0.5000000E+00  0.0000000E+00  0.1388889E-01
    1       -8.557313   1.000000
    2       -5.985139   1.000000
    3       -5.975539   1.000000
    4       -5.975539   1.000000
    5       -5.846842   1.000000
    6       -5.397194   1.000000
    7       -2.226364   1.000000
    8        0.262706   1.000000
    9        0.262706   1.000000
   10        4.591546   0.000000
   11        4.701183   0.000000
   12       10.782246   0.000000
   13       11.127569   0.000000
   14       11.127569   0.000000
   15       12.928152   0.000000
   16       13.596188   0.000000
 
  0.5000000E+00  0.3333333E+00  0.1666667E+00  0.1111111E+00
    1       -8.651886   1.000000
    2       -6.044632   1.000000
    3       -6.036918   1.000000
    4       -5.920223   1.000000
    5       -5.865131   1.000000
    6       -5.569013   1.000000
    7       -1.703571   1.000000
    8        0.042044   1.000000
    9        0.811400   1.000000
   10        5.607417   0.000000
   11        6.152978   0.000000
   12        7.324188   0.000000
   13        9.432911   0.000000
   14       10.225238   0.000000
   15       12.294092   0.000000
   16       13.458861   0.000000
 
 -0.3333333E+00  0.3333333E+00  0.1666667E+00  0.1111111E+00
    1       -8.589190   1.000000
    2       -6.037220   1.000000
    3       -6.022020   1.000000
    4       -5.902949   1.000000
    5       -5.874928   1.000000
    6       -5.380743   1.000000
    7       -2.093589   1.000000
    8       -0.277893   1.000000
    9        0.525020   1.000000
   10        5.740942   0.000000
   11        6.645096   0.000000
   12        7.777509   0.000000
   13        9.299039   0.000000
   14        9.979901   0.000000
   15       12.496392   0.000000
   16       13.254247   0.000000
 
 -0.3333333E+00  0.5000000E+00  0.1666667E+00  0.5555556E-01
    1       -8.558587   1.000000
    2       -6.008674   1.000000
    3       -6.007751   1.000000
    4       -5.926493   1.000000
    5       -5.864999   1.000000
    6       -5.333377   1.000000
    7       -2.138552   1.000000
    8       -0.095698   1.000000
    9       -0.006989   1.000000
   10        5.757383   0.000000
   11        5.793363   0.000000
   12        8.699324   0.000000
   13        8.980746   0.000000
   14       11.572880   0.000000
   15       13.115718   0.000000
   16       13.368477   0.000000
