PROCAR new format
# of k-points:  112         # of bands:  32         # of ions:  12

 k-point    1 :    0.00000000 0.00000000 0.00000000     weight = 0.00462963

band   1 # energy  -20.84473396 # occ.  2.00000000
 
ion      s      p      d    tot
  1  0.060  0.018  0.000  0.078
  2  0.561  0.000  0.000  0.561
  3  0.003  0.000  0.000  0.004
  4  0.003  0.000  0.000  0.004
  5  0.003  0.000  0.000  0.004
  6  0.054  0.009  0.000  0.063
  7  0.054  0.009  0.000  0.063
  8  0.053  0.009  0.000  0.062
  9  0.000  0.000  0.000  0.000
 10  0.000  0.000  0.000  0.000
 11  0.000  0.000  0.000  0.000
 12  0.000  0.000  0.000  0.000
tot  0.791  0.047  0.000  0.838
 
band   2 # energy  -17.17007063 # occ.  2.00000000
 
ion      s      p      d    tot
  1  0.000  0.000  0.000  0.000
  2  0.000  0.000  0.000  0.000
  3  0.000  0.000  0.000  0.000
  4  0.000  0.000  0.000  0.000
  5  0.000  0.000  0.000  0.000
  6  0.000  0.000  0.000  0.000
  7  0.000  0.000  0.000  0.000
  8  0.000  0.000  0.000  0.000
  9  0.000  0.000  0.966  0.966
 10  0.003  0.000  0.000  0.003
 11  0.003  0.000  0.000  0.003
 12  0.000  0.000  0.000  0.000
tot  0.006  0.000  0.967  0.973
 
band   3 # energy  -17.14540955 # occ.  2.00000000
 
ion      s      p      d    tot
  1  0.000  0.000  0.000  0.000
  2  0.000  0.000  0.000  0.000
  3  0.000  0.000  0.000  0.000
  4  0.000  0.000  0.000  0.000
  5  0.000  0.000  0.000  0.000
  6  0.000  0.000  0.000  0.000
  7  0.000  0.000  0.000  0.000
  8  0.000  0.000  0.000  0.000
  9  0.000  0.000  0.967  0.967
 10  0.001  0.000  0.000  0.001
 11  0.001  0.000  0.000  0.001
 12  0.004  0.000  0.000  0.004
tot  0.006  0.000  0.967  0.973
 
band   4 # energy  -17.09744912 # occ.  2.00000000
 
ion      s      p      d    tot
  1  0.000  0.000  0.000  0.000
  2  0.000  0.000  0.000  0.000
  3  0.000  0.000  0.000  0.000
  4  0.000  0.000  0.000  0.000
  5  0.000  0.000  0.000  0.000
  6  0.000  0.000  0.000  0.000
  7  0.000  0.000  0.000  0.000
  8  0.000  0.000  0.000  0.000
  9  0.000  0.000  0.979  0.979
 10  0.000  0.000  0.000  0.000
 11  0.000  0.000  0.000  0.000
 12  0.000  0.000  0.000  0.000
tot  0.000  0.000  0.979  0.979
 
band   5 # energy  -17.07940828 # occ.  2.00000000
 
ion      s      p      d    tot
  1  0.000  0.000  0.000  0.000
  2  0.000  0.000  0.000  0.000
  3  0.000  0.000  0.000  0.000
  4  0.000  0.000  0.000  0.000
  5  0.000  0.000  0.000  0.000
  6  0.000  0.000  0.000  0.000
  7  0.000  0.000  0.000  0.000
  8  0.000  0.000  0.000  0.000
  9  0.000  0.000  0.979  0.979
 10  0.000  0.000  0.000  0.000
 11  0.000  0.000  0.000  0.000
 12  0.000  0.000  0.000  0.000
tot  0.000  0.000  0.979  0.979
 
band   6 # energy  -17.07505209 # occ.  2.00000000
 
ion      s      p      d    tot
  1  0.000  0.000  0.000  0.000
  2  0.000  0.000  0.000  0.000
  3  0.000  0.000  0.000  0.000
  4  0.000  0.000  0.000  0.000
  5  0.000  0.000  0.000  0.000
  6  0.000  0.000  0.000  0.000
  7  0.000  0.000  0.000  0.000
  8  0.000  0.000  0.000  0.000
  9  0.000  0.000  0.979  0.979
 10  0.000  0.000  0.000  0.000
 11  0.000  0.000  0.000  0.000
 12  0.000  0.000  0.000  0.000
tot  0.000  0.000  0.979  0.979
 
band   7 # energy  -13.30127444 # occ.  2.00000000
 
ion      s      p      d    tot
  1  0.343  0.000  0.000  0.344
  2  0.033  0.125  0.000  0.157
  3  0.056  0.006  0.000  0.061
  4  0.055  0.006  0.000  0.061
  5  0.055  0.006  0.000  0.061
  6  0.021  0.003  0.000  0.024
  7  0.021  0.003  0.000  0.024
  8  0.022  0.003  0.000  0.025
  9  0.000  0.000  0.000  0.000
 10  0.003  0.000  0.000  0.003
 11  0.002  0.000  0.000  0.003
 12  0.000  0.000  0.000  0.000
tot  0.613  0.152  0.000  0.764
 
band   8 # energy  -12.36627323 # occ.  2.00000000
 
ion      s      p      d    tot
  1  0.002  0.001  0.000  0.002
  2  0.003  0.000  0.000  0.003
  3  0.001  0.000  0.000  0.001
  4  0.001  0.000  0.000  0.001
  5  0.001  0.000  0.000  0.001
  6  0.000  0.000  0.000  0.000
  7  0.000  0.000  0.000  0.000
  8  0.000  0.000  0.000  0.000
  9  0.060  0.000  0.000  0.060
 10  0.273  0.000  0.000  0.274
 11  0.237  0.000  0.000  0.237
 12  0.121  0.000  0.000  0.121
tot  0.698  0.001  0.001  0.700
 
band   9 # energy  -11.57685478 # occ.  2.00000000
 
ion      s      p      d    tot
  1  0.000  0.000  0.000  0.000
  2  0.000  0.002  0.000  0.002
  3  0.000  0.000  0.000  0.000
  4  0.000  0.000  0.000  0.000
  5  0.000  0.000  0.000  0.000
  6  0.001  0.000  0.000  0.001
  7  0.001  0.000  0.000  0.001
  8  0.002  0.000  0.000  0.002
  9  0.000  0.000  0.014  0.014
 10  0.371  0.000  0.000  0.371
 11  0.373  0.000  0.000  0.373
 12  0.002  0.000  0.000  0.002
tot  0.750  0.002  0.014  0.766
 
band  10 # energy  -11.28356230 # occ.  2.00000000
 
ion      s      p      d    tot
  1  0.001  0.000  0.000  0.001
  2  0.001  0.000  0.000  0.001
  3  0.000  0.000  0.000  0.000
  4  0.000  0.000  0.000  0.000
  5  0.000  0.000  0.000  0.000
  6  0.000  0.000  0.000  0.000
  7  0.000  0.000  0.000  0.000
  8  0.000  0.000  0.000  0.000
  9  0.003  0.000  0.014  0.017
 10  0.063  0.000  0.000  0.063
 11  0.097  0.000  0.000  0.097
 12  0.586  0.000  0.000  0.586
tot  0.752  0.001  0.014  0.767
 
band  11 # energy   -9.26347788 # occ.  2.00000000
 
ion      s      p      d    tot
  1  0.000  0.042  0.000  0.042
  2  0.000  0.403  0.000  0.403
  3  0.000  0.000  0.000  0.000
  4  0.013  0.001  0.000  0.014
  5  0.013  0.001  0.000  0.014
  6  0.131  0.012  0.000  0.143
  7  0.130  0.012  0.000  0.142
  8  0.000  0.003  0.000  0.003
  9  0.000  0.000  0.000  0.000
 10  0.000  0.003  0.000  0.003
 11  0.000  0.000  0.000  0.000
 12  0.000  0.000  0.000  0.000
tot  0.287  0.477  0.000  0.764
 
band  12 # energy   -9.08955175 # occ.  2.00000000
 
ion      s      p      d    tot
  1  0.000  0.045  0.000  0.045
  2  0.000  0.398  0.000  0.398
  3  0.018  0.001  0.000  0.019
  4  0.005  0.001  0.000  0.006
  5  0.005  0.001  0.000  0.006
  6  0.040  0.006  0.000  0.046
  7  0.041  0.006  0.000  0.047
  8  0.168  0.014  0.000  0.182
  9  0.000  0.000  0.000  0.000
 10  0.003  0.000  0.000  0.003
 11  0.003  0.002  0.000  0.005
 12  0.001  0.000  0.000  0.001
tot  0.284  0.475  0.000  0.759
 
band  13 # energy   -7.04377379 # occ.  2.00000000
 
ion      s      p      d    tot
  1  0.013  0.214  0.000  0.227
  2  0.009  0.315  0.000  0.324
  3  0.037  0.003  0.000  0.040
  4  0.033  0.003  0.000  0.036
  5  0.033  0.003  0.000  0.036
  6  0.015  0.003  0.000  0.018
  7  0.015  0.003  0.000  0.018
  8  0.013  0.003  0.000  0.016
  9  0.010  0.000  0.000  0.010
 10  0.001  0.000  0.000  0.001
 11  0.001  0.000  0.000  0.001
 12  0.000  0.000  0.000  0.000
tot  0.180  0.549  0.000  0.729
 
band  14 # energy   -6.02570679 # occ.  2.00000000
 
ion      s      p      d    tot
  1  0.000  0.003  0.000  0.003
  2  0.000  0.005  0.000  0.005
  3  0.000  0.000  0.000  0.000
  4  0.000  0.000  0.000  0.000
  5  0.000  0.000  0.000  0.000
  6  0.000  0.000  0.000  0.000
  7  0.000  0.000  0.000  0.000
  8  0.000  0.000  0.000  0.000
  9  0.657  0.000  0.000  0.658
 10  0.035  0.001  0.002  0.038
 11  0.038  0.001  0.002  0.041
 12  0.042  0.002  0.002  0.047
tot  0.775  0.012  0.005  0.792
 
band  15 # energy   -4.74670886 # occ.  2.00000000
 
ion      s      p      d    tot
  1  0.000  0.274  0.000  0.274
  2  0.000  0.046  0.000  0.046
  3  0.000  0.002  0.000  0.002
  4  0.152  0.007  0.000  0.159
  5  0.155  0.007  0.000  0.163
  6  0.028  0.002  0.000  0.029
  7  0.027  0.002  0.000  0.029
  8  0.000  0.000  0.000  0.000
  9  0.000  0.000  0.000  0.000
 10  0.000  0.001  0.000  0.001
 11  0.000  0.000  0.000  0.000
 12  0.000  0.001  0.000  0.001
tot  0.362  0.343  0.000  0.705
 
band  16 # energy   -4.73014842 # occ.  2.00000000
 
ion      s      p      d    tot
  1  0.000  0.271  0.000  0.271
  2  0.000  0.050  0.000  0.050
  3  0.202  0.009  0.000  0.211
  4  0.053  0.004  0.000  0.057
  5  0.050  0.004  0.000  0.054
  6  0.009  0.001  0.000  0.010
  7  0.010  0.001  0.000  0.011
  8  0.038  0.002  0.000  0.040
  9  0.000  0.000  0.000  0.000
 10  0.000  0.000  0.000  0.001
 11  0.001  0.001  0.000  0.002
 12  0.000  0.001  0.000  0.001
tot  0.363  0.344  0.000  0.707
 
band  17 # energy   -2.82797528 # occ.  2.00000000
 
ion      s      p      d    tot
  1  0.000  0.001  0.000  0.001
  2  0.000  0.005  0.000  0.005
  3  0.000  0.000  0.000  0.000
  4  0.000  0.000  0.000  0.000
  5  0.000  0.000  0.000  0.000
  6  0.000  0.000  0.000  0.001
  7  0.000  0.000  0.000  0.001
  8  0.000  0.000  0.000  0.000
  9  0.000  0.095  0.000  0.095
 10  0.000  0.045  0.000  0.045
 11  0.000  0.294  0.000  0.294
 12  0.000  0.027  0.000  0.027
tot  0.001  0.468  0.000  0.469
 
band  18 # energy   -2.82610664 # occ.  2.00000000
 
ion      s      p      d    tot
  1  0.000  0.002  0.000  0.002
  2  0.000  0.003  0.000  0.004
  3  0.000  0.000  0.000  0.000
  4  0.000  0.000  0.000  0.000
  5  0.000  0.000  0.000  0.000
  6  0.000  0.000  0.000  0.000
  7  0.000  0.000  0.000  0.000
  8  0.000  0.000  0.000  0.001
  9  0.000  0.094  0.000  0.094
 10  0.000  0.299  0.000  0.299
 11  0.000  0.040  0.000  0.041
 12  0.000  0.028  0.000  0.028
tot  0.001  0.467  0.000  0.469
 
band  19 # energy   -2.65598972 # occ.  2.00000000
 
ion      s      p      d    tot
  1  0.001  0.000  0.000  0.001
  2  0.001  0.000  0.000  0.001
  3  0.000  0.000  0.000  0.000
  4  0.000  0.000  0.000  0.000
  5  0.000  0.000  0.000  0.000
  6  0.000  0.000  0.000  0.000
  7  0.000  0.000  0.000  0.000
  8  0.000  0.000  0.000  0.000
  9  0.005  0.097  0.000  0.102
 10  0.001  0.044  0.000  0.045
 11  0.001  0.041  0.000  0.042
 12  0.000  0.273  0.000  0.273
tot  0.010  0.456  0.000  0.466
 
band  20 # energy   -0.62802540 # occ.  2.00000000
 
ion      s      p      d    tot
  1  0.000  0.000  0.000  0.000
  2  0.000  0.018  0.000  0.018
  3  0.000  0.000  0.000  0.000
  4  0.000  0.000  0.000  0.000
  5  0.000  0.000  0.000  0.000
  6  0.000  0.002  0.000  0.002
  7  0.000  0.002  0.000  0.002
  8  0.000  0.000  0.000  0.000
  9  0.000  0.005  0.000  0.005
 10  0.000  0.454  0.000  0.454
 11  0.000  0.047  0.000  0.047
 12  0.000  0.021  0.000  0.021
tot  0.001  0.550  0.000  0.552
 
band  21 # energy   -0.60520725 # occ.  2.00000000
 
ion      s      p      d    tot
  1  0.000  0.000  0.000  0.000
  2  0.000  0.014  0.000  0.014
  3  0.001  0.000  0.000  0.001
  4  0.000  0.000  0.000  0.000
  5  0.000  0.000  0.000  0.000
  6  0.000  0.000  0.000  0.000
  7  0.000  0.000  0.000  0.000
  8  0.000  0.003  0.000  0.003
  9  0.000  0.001  0.000  0.002
 10  0.000  0.148  0.000  0.149
 11  0.000  0.360  0.000  0.361
 12  0.000  0.012  0.000  0.012
tot  0.002  0.540  0.000  0.542
 
band  22 # energy   -0.52592325 # occ.  2.00000000
 
ion      s      p      d    tot
  1  0.000  0.000  0.000  0.000
  2  0.001  0.002  0.000  0.004
  3  0.000  0.000  0.000  0.000
  4  0.000  0.000  0.000  0.000
  5  0.000  0.000  0.000  0.000
  6  0.000  0.000  0.000  0.000
  7  0.000  0.000  0.000  0.000
  8  0.000  0.001  0.000  0.001
  9  0.000  0.004  0.001  0.005
 10  0.000  0.239  0.000  0.239
 11  0.000  0.262  0.000  0.262
 12  0.000  0.030  0.000  0.031
tot  0.002  0.540  0.001  0.543
 
band  23 # energy   -0.37210164 # occ.  2.00000000
 
ion      s      p      d    tot
  1  0.000  0.000  0.000  0.000
  2  0.003  0.001  0.000  0.004
  3  0.000  0.000  0.000  0.000
  4  0.000  0.000  0.000  0.000
  5  0.000  0.000  0.000  0.000
  6  0.000  0.001  0.000  0.001
  7  0.000  0.001  0.000  0.001
  8  0.000  0.000  0.000  0.001
  9  0.002  0.012  0.001  0.015
 10  0.000  0.121  0.000  0.121
 11  0.000  0.306  0.000  0.306
 12  0.001  0.107  0.000  0.108
tot  0.006  0.549  0.001  0.556
 
band  24 # energy   -0.10891181 # occ.  2.00000000
 
ion      s      p      d    tot
  1  0.000  0.004  0.000  0.004
  2  0.000  0.000  0.000  0.000
  3  0.000  0.000  0.000  0.000
  4  0.001  0.000  0.000  0.001
  5  0.001  0.000  0.000  0.001
  6  0.000  0.000  0.000  0.000
  7  0.000  0.000  0.000  0.000
  8  0.000  0.000  0.000  0.000
  9  0.000  0.004  0.000  0.004
 10  0.000  0.005  0.000  0.005
 11  0.000  0.067  0.000  0.067
 12  0.000  0.467  0.000  0.467
tot  0.001  0.548  0.000  0.550
 
band  25 # energy   -0.09433803 # occ.  2.00000000
 
ion      s      p      d    tot
  1  0.000  0.003  0.000  0.003
  2  0.000  0.001  0.000  0.001
  3  0.001  0.000  0.000  0.001
  4  0.000  0.000  0.000  0.000
  5  0.000  0.000  0.000  0.000
  6  0.000  0.000  0.000  0.000
  7  0.000  0.000  0.000  0.000
  8  0.000  0.000  0.000  0.000
  9  0.000  0.004  0.000  0.005
 10  0.000  0.069  0.000  0.069
 11  0.000  0.008  0.000  0.008
 12  0.000  0.463  0.000  0.463
tot  0.002  0.549  0.001  0.551
 
band  26 # energy    5.53360224 # occ.  0.00000000
 
ion      s      p      d    tot
  1  0.028  0.013  0.000  0.041
  2  0.026  0.009  0.000  0.034
  3  0.000  0.004  0.000  0.004
  4  0.000  0.003  0.000  0.003
  5  0.000  0.003  0.000  0.003
  6  0.002  0.004  0.000  0.006
  7  0.002  0.004  0.000  0.006
  8  0.002  0.004  0.000  0.006
  9  0.001  0.003  0.000  0.004
 10  0.019  0.002  0.004  0.024
 11  0.019  0.001  0.004  0.024
 12  0.026  0.004  0.004  0.033
tot  0.124  0.054  0.012  0.190
 
band  27 # energy    6.45525587 # occ.  0.00000000
 
ion      s      p      d    tot
  1  0.000  0.006  0.000  0.006
  2  0.000  0.011  0.000  0.011
  3  0.000  0.001  0.000  0.001
  4  0.000  0.001  0.000  0.001
  5  0.000  0.001  0.000  0.001
  6  0.002  0.002  0.000  0.004
  7  0.002  0.002  0.000  0.004
  8  0.000  0.002  0.000  0.002
  9  0.000  0.067  0.021  0.088
 10  0.000  0.000  0.028  0.028
 11  0.000  0.030  0.032  0.062
 12  0.000  0.003  0.010  0.013
tot  0.004  0.126  0.091  0.221
 
band  28 # energy    6.61713500 # occ.  0.00000000
 
ion      s      p      d    tot
  1  0.000  0.001  0.000  0.001
  2  0.000  0.005  0.000  0.005
  3  0.001  0.000  0.000  0.001
  4  0.000  0.000  0.000  0.001
  5  0.000  0.000  0.000  0.001
  6  0.000  0.001  0.000  0.001
  7  0.000  0.001  0.000  0.001
  8  0.000  0.000  0.000  0.001
  9  0.000  0.146  0.016  0.162
 10  0.000  0.061  0.029  0.090
 11  0.003  0.004  0.006  0.013
 12  0.001  0.011  0.021  0.033
tot  0.006  0.231  0.072  0.310
 
band  29 # energy    6.86251793 # occ.  0.00000000
 
ion      s      p      d    tot
  1  0.000  0.011  0.000  0.011
  2  0.000  0.020  0.000  0.020
  3  0.002  0.002  0.000  0.004
  4  0.000  0.002  0.000  0.003
  5  0.000  0.002  0.000  0.003
  6  0.000  0.002  0.000  0.002
  7  0.000  0.002  0.000  0.002
  8  0.001  0.003  0.000  0.004
  9  0.000  0.009  0.002  0.011
 10  0.015  0.004  0.009  0.027
 11  0.006  0.000  0.013  0.019
 12  0.000  0.002  0.022  0.025
tot  0.026  0.060  0.045  0.131
 
band  30 # energy    6.99173358 # occ.  0.00000000
 
ion      s      p      d    tot
  1  0.003  0.008  0.000  0.010
  2  0.017  0.024  0.000  0.040
  3  0.001  0.000  0.000  0.001
  4  0.002  0.000  0.000  0.002
  5  0.002  0.000  0.000  0.002
  6  0.000  0.005  0.000  0.005
  7  0.001  0.004  0.000  0.005
  8  0.000  0.003  0.000  0.004
  9  0.000  0.010  0.004  0.014
 10  0.008  0.001  0.032  0.040
 11  0.009  0.000  0.022  0.031
 12  0.005  0.001  0.006  0.011
tot  0.047  0.056  0.063  0.166
 
band  31 # energy    7.01407580 # occ.  0.00000000
 
ion      s      p      d    tot
  1  0.000  0.000  0.000  0.000
  2  0.000  0.005  0.000  0.005
  3  0.000  0.000  0.000  0.000
  4  0.001  0.000  0.000  0.001
  5  0.001  0.000  0.000  0.001
  6  0.001  0.001  0.000  0.002
  7  0.001  0.001  0.000  0.002
  8  0.000  0.001  0.000  0.001
  9  0.000  0.070  0.027  0.097
 10  0.000  0.001  0.015  0.017
 11  0.000  0.036  0.038  0.074
 12  0.000  0.000  0.030  0.030
tot  0.003  0.116  0.110  0.229
 
band  32 # energy    8.70669450 # occ.  0.00000000
 
ion      s      p      d    tot
  1  0.031  0.043  0.000  0.073
  2  0.052  0.036  0.000  0.088
  3  0.000  0.005  0.000  0.005
  4  0.000  0.006  0.000  0.006
  5  0.001  0.005  0.000  0.005
  6  0.002  0.003  0.000  0.004
  7  0.003  0.003  0.000  0.006
  8  0.002  0.003  0.000  0.005
  9  0.001  0.156  0.000  0.157
 10  0.000  0.030  0.002  0.033
 11  0.001  0.020  0.002  0.023
 12  0.000  0.082  0.002  0.083
tot  0.093  0.390  0.006  0.489
 

 k-point    2 :    0.16666667 0.00000000 0.00000000     weight = 0.00925926

band   1 # energy  -20.84445370 # occ.  2.00000000
 
ion      s      p      d    tot
  1  0.060  0.018  0.000  0.078
  2  0.561  0.000  0.000  0.561
  3  0.003  0.000  0.000  0.004
  4  0.003  0.000  0.000  0.004
  5  0.003  0.000  0.000  0.004
  6  0.054  0.009  0.000  0.063
  7  0.054  0.009  0.000  0.063
  8  0.053  0.009  0.000  0.062
  9  0.000  0.000  0.000  0.000
 10  0.000  0.000  0.000  0.000
 11  0.000  0.000  0.000  0.000
 12  0.000  0.000  0.000  0.000
tot  0.791  0.047  0.000  0.838
 
band   2 # energy  -17.17006237 # occ.  2.00000000
 
ion      s      p      d    tot
  1  0.000  0.000  0.000  0.000
  2  0.000  0.000  0.000  0.000
  3  0.000  0.000  0.000  0.000
  4  0.000  0.000  0.000  0.000
  5  0.000  0.000  0.000  0.000
  6  0.000  0.000  0.000  0.000
  7  0.000  0.000  0.000  0.000
  8  0.000  0.000  0.000  0.000
  9  0.000  0.000  0.966  0.966
 10  0.003  0.000  0.000  0.003
 11  0.003  0.000  0.000  0.003
 12  0.000  0.000  0.000  0.000
tot  0.006  0.000  0.967  0.973
 
band   3 # energy  -17.14252745 # occ.  2.00000000
 
ion      s      p      d    tot
  1  0.000  0.000  0.000  0.000
  2  0.000  0.000  0.000  0.000
  3  0.000  0.000  0.000  0.000
  4  0.000  0.000  0.000  0.000
  5  0.000  0.000  0.000  0.000
  6  0.000  0.000  0.000  0.000
  7  0.000  0.000  0.000  0.000
  8  0.000  0.000  0.000  0.000
  9  0.000  0.000  0.968  0.968
 10  0.001  0.000  0.000  0.001
 11  0.001  0.000  0.000  0.001
 12  0.003  0.000  0.000  0.004
tot  0.005  0.000  0.968  0.974
 
band   4 # energy  -17.09744863 # occ.  2.00000000
 
ion      s      p      d    tot
  1  0.000  0.000  0.000  0.000
  2  0.000  0.000  0.000  0.000
  3  0.000  0.000  0.000  0.000
  4  0.000  0.000  0.000  0.000
  5  0.000  0.000  0.000  0.000
  6  0.000  0.000  0.000  0.000
  7  0.000  0.000  0.000  0.000
  8  0.000  0.000  0.000  0.000
  9  0.000  0.000  0.979  0.979
 10  0.000  0.000  0.000  0.000
 11  0.000  0.000  0.000  0.000
 12  0.000  0.000  0.000  0.000
tot  0.000  0.000  0.979  0.979
 
band   5 # energy  -17.07960060 # occ.  2.00000000
 
ion      s      p      d    tot
  1  0.000  0.000  0.000  0.000
  2  0.000  0.000  0.000  0.000
  3  0.000  0.000  0.000  0.000
  4  0.000  0.000  0.000  0.000
  5  0.000  0.000  0.000  0.000
  6  0.000  0.000  0.000  0.000
  7  0.000  0.000  0.000  0.000
  8  0.000  0.000  0.000  0.000
  9  0.000  0.000  0.979  0.979
 10  0.000  0.000  0.000  0.000
 11  0.000  0.000  0.000  0.000
 12  0.000  0.000  0.000  0.000
tot  0.000  0.000  0.979  0.979
 
band   6 # energy  -17.07522931 # occ.  2.00000000
 
ion      s      p      d    tot
  1  0.000  0.000  0.000  0.000
  2  0.000  0.000  0.000  0.000
  3  0.000  0.000  0.000  0.000
  4  0.000  0.000  0.000  0.000
  5  0.000  0.000  0.000  0.000
  6  0.000  0.000  0.000  0.000
  7  0.000  0.000  0.000  0.000
  8  0.000  0.000  0.000  0.000
  9  0.000  0.000  0.979  0.979
 10  0.000  0.000  0.000  0.000
 11  0.000  0.000  0.000  0.000
 12  0.000  0.000  0.000  0.000
tot  0.000  0.000  0.979  0.979
 
band   7 # energy  -13.31496723 # occ.  2.00000000
 
ion      s      p      d    tot
  1  0.339  0.000  0.000  0.339
  2  0.032  0.123  0.000  0.155
  3  0.055  0.006  0.000  0.061
  4  0.055  0.006  0.000  0.060
  5  0.055  0.006  0.000  0.060
  6  0.021  0.003  0.000  0.024
  7  0.021  0.003  0.000  0.024
  8  0.021  0.003  0.000  0.025
  9  0.001  0.000  0.000  0.001
 10  0.006  0.000  0.000  0.007
 11  0.006  0.000  0.000  0.006
 12  0.000  0.000  0.000  0.000
tot  0.612  0.150  0.000  0.762
 
band   8 # energy  -12.31839861 # occ.  2.00000000
 
ion      s      p      d    tot
  1  0.006  0.001  0.000  0.006
  2  0.004  0.001  0.000  0.005
  3  0.001  0.000  0.000  0.001
  4  0.001  0.000  0.000  0.001
  5  0.001  0.000  0.000  0.001
  6  0.000  0.000  0.000  0.001
  7  0.000  0.000  0.000  0.001
  8  0.000  0.000  0.000  0.000
  9  0.057  0.000  0.001  0.058
 10  0.282  0.000  0.000  0.282
 11  0.242  0.000  0.000  0.242
 12  0.106  0.000  0.000  0.106
tot  0.700  0.004  0.001  0.705
 
band   9 # energy  -11.57629500 # occ.  2.00000000
 
ion      s      p      d    tot
  1  0.000  0.000  0.000  0.000
  2  0.000  0.002  0.000  0.002
  3  0.000  0.000  0.000  0.000
  4  0.000  0.000  0.000  0.000
  5  0.000  0.000  0.000  0.000
  6  0.001  0.000  0.000  0.001
  7  0.001  0.000  0.000  0.001
  8  0.002  0.000  0.000  0.002
  9  0.000  0.000  0.014  0.014
 10  0.369  0.000  0.000  0.369
 11  0.375  0.000  0.000  0.375
 12  0.002  0.000  0.000  0.002
tot  0.750  0.002  0.014  0.766
 
band  10 # energy  -11.32387444 # occ.  2.00000000
 
ion      s      p      d    tot
  1  0.002  0.000  0.000  0.002
  2  0.001  0.000  0.000  0.001
  3  0.000  0.000  0.000  0.000
  4  0.000  0.000  0.000  0.000
  5  0.000  0.000  0.000  0.000
  6  0.000  0.000  0.000  0.000
  7  0.000  0.000  0.000  0.000
  8  0.000  0.000  0.000  0.000
  9  0.002  0.002  0.011  0.015
 10  0.052  0.000  0.000  0.052
 11  0.085  0.000  0.000  0.085
 12  0.606  0.000  0.000  0.606
tot  0.748  0.003  0.011  0.762
 
band  11 # energy   -9.26101886 # occ.  2.00000000
 
ion      s      p      d    tot
  1  0.000  0.042  0.000  0.042
  2  0.000  0.404  0.000  0.404
  3  0.000  0.000  0.000  0.000
  4  0.013  0.001  0.000  0.014
  5  0.013  0.001  0.000  0.014
  6  0.131  0.012  0.000  0.143
  7  0.130  0.012  0.000  0.142
  8  0.000  0.003  0.000  0.003
  9  0.000  0.000  0.000  0.000
 10  0.000  0.003  0.000  0.003
 11  0.000  0.000  0.000  0.000
 12  0.000  0.000  0.000  0.000
tot  0.287  0.477  0.000  0.764
 
band  12 # energy   -9.08669844 # occ.  2.00000000
 
ion      s      p      d    tot
  1  0.000  0.045  0.000  0.045
  2  0.000  0.399  0.000  0.399
  3  0.018  0.001  0.000  0.019
  4  0.005  0.001  0.000  0.006
  5  0.005  0.001  0.000  0.006
  6  0.040  0.006  0.000  0.046
  7  0.041  0.006  0.000  0.047
  8  0.168  0.014  0.000  0.182
  9  0.000  0.000  0.000  0.000
 10  0.003  0.000  0.000  0.003
 11  0.003  0.002  0.000  0.005
 12  0.001  0.000  0.000  0.001
tot  0.285  0.475  0.000  0.760
 
band  13 # energy   -7.04749970 # occ.  2.00000000
 
ion      s      p      d    tot
  1  0.013  0.213  0.000  0.226
  2  0.009  0.313  0.000  0.322
  3  0.037  0.003  0.000  0.040
  4  0.033  0.003  0.000  0.036
  5  0.033  0.003  0.000  0.036
  6  0.015  0.003  0.000  0.018
  7  0.015  0.003  0.000  0.018
  8  0.013  0.003  0.000  0.016
  9  0.014  0.000  0.000  0.014
 10  0.000  0.000  0.000  0.001
 11  0.000  0.000  0.000  0.001
 12  0.000  0.000  0.000  0.001
tot  0.182  0.545  0.000  0.727
 
band  14 # energy   -6.23621607 # occ.  2.00000000
 
ion      s      p      d    tot
  1  0.000  0.004  0.000  0.005
  2  0.000  0.007  0.000  0.007
  3  0.001  0.000  0.000  0.001
  4  0.001  0.000  0.000  0.001
  5  0.001  0.000  0.000  0.001
  6  0.000  0.000  0.000  0.000
  7  0.000  0.000  0.000  0.000
  8  0.000  0.000  0.000  0.000
  9  0.623  0.002  0.000  0.625
 10  0.037  0.001  0.002  0.040
 11  0.040  0.001  0.002  0.043
 12  0.029  0.019  0.001  0.049
tot  0.733  0.034  0.004  0.771
 
band  15 # energy   -4.76661797 # occ.  2.00000000
 
ion      s      p      d    tot
  1  0.000  0.272  0.000  0.272
  2  0.000  0.044  0.000  0.044
  3  0.000  0.002  0.000  0.002
  4  0.151  0.007  0.000  0.158
  5  0.154  0.007  0.000  0.161
  6  0.027  0.002  0.000  0.029
  7  0.026  0.002  0.000  0.028
  8  0.000  0.000  0.000  0.000
  9  0.000  0.000  0.000  0.000
 10  0.000  0.003  0.000  0.003
 11  0.000  0.001  0.000  0.001
 12  0.000  0.001  0.000  0.001
tot  0.358  0.342  0.000  0.700
 
band  16 # energy   -4.74889754 # occ.  2.00000000
 
ion      s      p      d    tot
  1  0.000  0.269  0.000  0.269
  2  0.000  0.048  0.000  0.048
  3  0.200  0.009  0.000  0.209
  4  0.053  0.004  0.000  0.057
  5  0.050  0.004  0.000  0.054
  6  0.009  0.001  0.000  0.010
  7  0.010  0.001  0.000  0.011
  8  0.037  0.002  0.000  0.039
  9  0.000  0.000  0.000  0.001
 10  0.000  0.001  0.000  0.001
 11  0.000  0.003  0.000  0.003
 12  0.000  0.001  0.000  0.001
tot  0.360  0.342  0.000  0.703
 
band  17 # energy   -2.79698797 # occ.  2.00000000
 
ion      s      p      d    tot
  1  0.000  0.002  0.000  0.002
  2  0.000  0.004  0.000  0.004
  3  0.001  0.000  0.000  0.001
  4  0.000  0.000  0.000  0.000
  5  0.000  0.000  0.000  0.000
  6  0.000  0.000  0.000  0.000
  7  0.000  0.000  0.000  0.000
  8  0.001  0.000  0.000  0.001
  9  0.001  0.095  0.000  0.096
 10  0.000  0.304  0.000  0.304
 11  0.000  0.037  0.000  0.038
 12  0.000  0.026  0.000  0.026
tot  0.004  0.469  0.001  0.473
 
band  18 # energy   -2.78783930 # occ.  2.00000000
 
ion      s      p      d    tot
  1  0.000  0.002  0.000  0.002
  2  0.000  0.006  0.000  0.006
  3  0.000  0.000  0.000  0.000
  4  0.001  0.000  0.000  0.001
  5  0.001  0.000  0.000  0.001
  6  0.001  0.000  0.000  0.001
  7  0.001  0.000  0.000  0.001
  8  0.000  0.000  0.000  0.000
  9  0.000  0.096  0.000  0.096
 10  0.000  0.042  0.000  0.042
 11  0.000  0.302  0.000  0.302
 12  0.000  0.022  0.000  0.022
tot  0.003  0.471  0.001  0.474
 
band  19 # energy   -2.19211113 # occ.  2.00000000
 
ion      s      p      d    tot
  1  0.001  0.000  0.000  0.001
  2  0.001  0.001  0.000  0.002
  3  0.000  0.000  0.000  0.000
  4  0.000  0.000  0.000  0.000
  5  0.000  0.000  0.000  0.000
  6  0.000  0.000  0.000  0.000
  7  0.000  0.000  0.000  0.000
  8  0.000  0.000  0.000  0.000
  9  0.030  0.081  0.002  0.113
 10  0.001  0.069  0.000  0.070
 11  0.001  0.062  0.000  0.063
 12  0.008  0.228  0.001  0.236
tot  0.042  0.441  0.003  0.486
 
band  20 # energy   -0.61688229 # occ.  2.00000000
 
ion      s      p      d    tot
  1  0.000  0.002  0.000  0.002
  2  0.000  0.009  0.000  0.009
  3  0.001  0.000  0.000  0.001
  4  0.000  0.000  0.000  0.000
  5  0.000  0.000  0.000  0.000
  6  0.000  0.001  0.000  0.001
  7  0.000  0.001  0.000  0.001
  8  0.000  0.002  0.000  0.002
  9  0.000  0.000  0.000  0.001
 10  0.000  0.240  0.000  0.240
 11  0.000  0.256  0.000  0.256
 12  0.000  0.022  0.000  0.022
tot  0.002  0.531  0.001  0.534
 
band  21 # energy   -0.60391423 # occ.  2.00000000
 
ion      s      p      d    tot
  1  0.000  0.001  0.000  0.001
  2  0.000  0.019  0.000  0.019
  3  0.000  0.000  0.000  0.000
  4  0.001  0.000  0.000  0.001
  5  0.001  0.000  0.000  0.001
  6  0.000  0.002  0.000  0.002
  7  0.000  0.002  0.000  0.002
  8  0.000  0.000  0.000  0.000
  9  0.000  0.005  0.000  0.005
 10  0.000  0.453  0.000  0.453
 11  0.000  0.049  0.000  0.049
 12  0.000  0.022  0.000  0.022
tot  0.003  0.553  0.000  0.556
 
band  22 # energy   -0.51834872 # occ.  2.00000000
 
ion      s      p      d    tot
  1  0.000  0.001  0.000  0.001
  2  0.001  0.008  0.000  0.009
  3  0.001  0.000  0.000  0.001
  4  0.000  0.000  0.000  0.000
  5  0.000  0.000  0.000  0.000
  6  0.000  0.000  0.000  0.000
  7  0.000  0.000  0.000  0.000
  8  0.000  0.002  0.000  0.002
  9  0.001  0.005  0.000  0.006
 10  0.000  0.101  0.000  0.101
 11  0.000  0.396  0.000  0.396
 12  0.000  0.032  0.000  0.032
tot  0.003  0.545  0.001  0.549
 
band  23 # energy   -0.33398760 # occ.  2.00000000
 
ion      s      p      d    tot
  1  0.001  0.001  0.000  0.001
  2  0.002  0.002  0.000  0.004
  3  0.000  0.000  0.000  0.000
  4  0.000  0.000  0.000  0.000
  5  0.000  0.000  0.000  0.000
  6  0.000  0.001  0.000  0.001
  7  0.000  0.000  0.000  0.001
  8  0.000  0.000  0.000  0.001
  9  0.011  0.017  0.001  0.029
 10  0.000  0.128  0.000  0.128
 11  0.000  0.250  0.000  0.250
 12  0.001  0.145  0.000  0.147
tot  0.016  0.545  0.002  0.562
 
band  24 # energy   -0.17645433 # occ.  2.00000000
 
ion      s      p      d    tot
  1  0.000  0.004  0.000  0.004
  2  0.000  0.000  0.000  0.000
  3  0.000  0.000  0.000  0.000
  4  0.001  0.000  0.000  0.001
  5  0.001  0.000  0.000  0.001
  6  0.000  0.000  0.000  0.000
  7  0.000  0.000  0.000  0.000
  8  0.000  0.000  0.000  0.000
  9  0.000  0.004  0.001  0.005
 10  0.000  0.008  0.000  0.008
 11  0.000  0.055  0.000  0.055
 12  0.000  0.468  0.000  0.468
tot  0.002  0.539  0.001  0.542
 
band  25 # energy   -0.15204863 # occ.  2.00000000
 
ion      s      p      d    tot
  1  0.000  0.003  0.000  0.003
  2  0.000  0.001  0.000  0.001
  3  0.001  0.000  0.000  0.001
  4  0.000  0.000  0.000  0.000
  5  0.000  0.000  0.000  0.000
  6  0.000  0.000  0.000  0.000
  7  0.000  0.000  0.000  0.000
  8  0.000  0.000  0.000  0.000
  9  0.001  0.004  0.001  0.006
 10  0.000  0.069  0.000  0.069
 11  0.000  0.009  0.000  0.009
 12  0.000  0.454  0.000  0.454
tot  0.002  0.540  0.002  0.544
 
band  26 # energy    5.66466615 # occ.  0.00000000
 
ion      s      p      d    tot
  1  0.022  0.014  0.000  0.036
  2  0.035  0.009  0.000  0.044
  3  0.000  0.004  0.000  0.004
  4  0.000  0.003  0.000  0.003
  5  0.000  0.003  0.000  0.003
  6  0.003  0.005  0.000  0.007
  7  0.003  0.005  0.000  0.007
  8  0.002  0.004  0.000  0.007
  9  0.001  0.011  0.000  0.013
 10  0.020  0.006  0.004  0.030
 11  0.020  0.006  0.004  0.030
 12  0.022  0.008  0.003  0.033
tot  0.129  0.077  0.012  0.218
 
band  27 # energy    6.44455950 # occ.  0.00000000
 
ion      s      p      d    tot
  1  0.000  0.005  0.000  0.005
  2  0.000  0.010  0.000  0.010
  3  0.000  0.001  0.000  0.001
  4  0.000  0.001  0.000  0.001
  5  0.000  0.001  0.000  0.001
  6  0.003  0.002  0.000  0.005
  7  0.003  0.002  0.000  0.005
  8  0.000  0.002  0.000  0.002
  9  0.000  0.078  0.021  0.099
 10  0.000  0.000  0.026  0.026
 11  0.000  0.043  0.030  0.074
 12  0.000  0.002  0.011  0.013
tot  0.006  0.147  0.088  0.241
 
band  28 # energy    6.56423001 # occ.  0.00000000
 