   2   2   1   0
  0.2002393E+02  0.3840297E-09  0.3840297E-09  0.3840297E-09  0.5000000E-15
  1.000000000000000E-004
  CAR 
 Name                                    
     80.44543121    -10.31993839  301      5.86655252      1.00000000
    -10.320  0.0000E+00  0.0000E+00
    -10.017  0.0000E+00  0.0000E+00
     -9.715  0.0000E+00  0.0000E+00
     -9.412  0.0000E+00  0.0000E+00
     -9.110  0.0000E+00  0.0000E+00
     -8.807  0.0000E+00  0.0000E+00
     -8.505  0.0000E+00  0.0000E+00
     -8.202  0.0000E+00  0.0000E+00
     -7.900  0.0000E+00  0.0000E+00
     -7.597  0.0000E+00  0.0000E+00
     -7.294  0.0000E+00  0.0000E+00
     -6.992  0.0000E+00  0.0000E+00
     -6.689  0.0000E+00  0.0000E+00
     -6.387  0.0000E+00  0.0000E+00
     -6.084  0.0000E+00  0.9259E-02
     -5.782  0.2448E+00  0.8333E-01
     -5.479  0.0000E+00  0.1389E+00
     -5.177  0.3672E+00  0.2500E+00
     -4.874  0.7226E+00  0.4686E+00
     -4.571  0.0000E+00  0.5463E+00
     -4.269  0.1785E+00  0.6003E+00
     -3.966  0.0000E+00  0.8241E+00
     -3.664  0.7341E+00  0.1305E+01
     -3.361  0.0000E+00  0.1306E+01
     -3.059  0.7345E+00  0.1528E+01
     -2.756  0.0000E+00  0.1861E+01
     -2.454  0.0000E+00  0.1861E+01
     -2.151  0.0000E+00  0.1861E+01
     -1.849  0.7345E+00  0.2139E+01
     -1.546  0.0000E+00  0.2139E+01
     -1.243  0.5244E-04  0.2139E+01
     -0.941  0.3672E+00  0.2509E+01
     -0.638  0.0000E+00  0.2954E+01
     -0.336  0.0000E+00  0.2954E+01
     -0.033  0.0000E+00  0.3176E+01
      0.269  0.0000E+00  0.3398E+01
      0.572  0.0000E+00  0.3472E+01
      0.874  0.0000E+00  0.3528E+01
      1.177  0.0000E+00  0.3528E+01
      1.480  0.0000E+00  0.3861E+01
      1.782  0.7345E+00  0.4083E+01
      2.085  0.3766E+00  0.4197E+01
      2.387  0.0000E+00  0.4861E+01
      2.690  0.8249E-03  0.4861E+01
      2.992  0.9538E+00  0.5372E+01
      3.295  0.7345E+00  0.5806E+01
      3.597  0.0000E+00  0.6324E+01
      3.900  0.0000E+00  0.6713E+01
      4.203  0.0000E+00  0.7157E+01
      4.505  0.7176E+00  0.7375E+01
      4.808  0.4859E+00  0.7712E+01
      5.110  0.0000E+00  0.7713E+01
      5.413  0.4897E+00  0.7972E+01
      5.715  0.0000E+00  0.7972E+01
      6.018  0.0000E+00  0.8000E+01
      6.320  0.0000E+00  0.8000E+01
      6.623  0.0000E+00  0.8111E+01
      6.925  0.0000E+00  0.8333E+01
      7.228  0.1097E-03  0.8333E+01
      7.531  0.2448E+00  0.8611E+01
      7.833  0.0000E+00  0.9111E+01
      8.136  0.2448E+00  0.9185E+01
      8.438  0.7768E+00  0.9670E+01
      8.741  0.3663E-09  0.1010E+02
      9.043  0.7471E-01  0.1038E+02
      9.346  0.1102E+01  0.1115E+02
      9.648  0.3672E+00  0.1148E+02
      9.951  0.1422E-01  0.1215E+02
     10.254  0.5465E+00  0.1292E+02
     10.556  0.0000E+00  0.1320E+02
     10.859  0.7345E+00  0.1343E+02
     11.161  0.3798E-08  0.1343E+02
     11.464  0.6707E-08  0.1361E+02
     11.766  0.1945E-10  0.1372E+02
     12.069  0.0000E+00  0.1406E+02
     12.371  0.1835E+00  0.1467E+02
     12.674  0.0000E+00  0.1489E+02
     12.977  0.2406E-03  0.1537E+02
     13.279  0.7347E+00  0.1648E+02
     13.582  0.2754E+00  0.1695E+02
     13.884  0.0000E+00  0.1710E+02
     14.187  0.0000E+00  0.1716E+02
     14.489  0.0000E+00  0.1716E+02
     14.792  0.9792E+00  0.1753E+02
     15.094  0.1287E+01  0.1836E+02
     15.397  0.1836E+00  0.1858E+02
     15.699  0.9181E+00  0.1892E+02
     16.002  0.5107E-06  0.1897E+02
     16.305  0.3829E+00  0.1964E+02
     16.607  0.0000E+00  0.2034E+02
     16.910  0.8262E+00  0.2065E+02
     17.212  0.3672E+00  0.2109E+02
     17.515  0.7345E+00  0.2131E+02
     17.817  0.0000E+00  0.2187E+02
     18.120  0.7345E+00  0.2209E+02
     18.422  0.7330E+00  0.2243E+02
     18.725  0.9472E+00  0.2338E+02
     19.028  0.6879E-02  0.2406E+02
     19.330  0.2448E+00  0.2457E+02
     19.633  0.0000E+00  0.2502E+02
     19.935  0.0000E+00  0.2502E+02
     20.238  0.0000E+00  0.2513E+02
     20.540  0.1682E-02  0.2550E+02
     20.843  0.7342E-08  0.2611E+02
     21.145  0.2184E+00  0.2641E+02
     21.448  0.4669E-01  0.2669E+02
     21.750  0.1803E+01  0.2767E+02
     22.053  0.1739E+01  0.2848E+02
     22.356  0.2969E-04  0.2895E+02
     22.658  0.7346E+00  0.2936E+02
     22.961  0.9789E+00  0.3010E+02
     23.263  0.0000E+00  0.3010E+02
     23.566  0.1187E-02  0.3036E+02
     23.868  0.0000E+00  0.3125E+02
     24.171  0.3358E+00  0.3141E+02
     24.473  0.6807E+00  0.3207E+02
     24.776  0.7345E+00  0.3269E+02
     25.079  0.1158E+00  0.3279E+02
     25.381  0.1836E+00  0.3340E+02
     25.684  0.9003E+00  0.3400E+02
     25.986  0.1836E+00  0.3442E+02
     26.289  0.8925E+00  0.3480E+02
     26.591  0.1103E-02  0.3566E+02
     26.894  0.7345E+00  0.3666E+02
     27.196  0.9179E+00  0.3694E+02
     27.499  0.9793E+00  0.3753E+02
     27.802  0.7345E+00  0.3810E+02
     28.104  0.0000E+00  0.3821E+02
     28.407  0.1113E+01  0.3877E+02
     28.709  0.7345E+00  0.3949E+02
     29.012  0.7345E+00  0.4019E+02
     29.314  0.0000E+00  0.4041E+02
     29.617  0.1361E-02  0.4069E+02
     29.919  0.2516E+00  0.4139E+02
     30.222  0.7345E+00  0.4200E+02
     30.524  0.1469E+01  0.4250E+02
     30.827  0.0000E+00  0.4272E+02
     31.130  0.4270E-11  0.4280E+02
     31.432  0.7338E+00  0.4367E+02
     31.735  0.0000E+00  0.4392E+02
     32.037  0.0000E+00  0.4414E+02
     32.340  0.1200E+01  0.4506E+02
     32.642  0.4250E-10  0.4573E+02
     32.945  0.1102E+01  0.4629E+02
     33.247  0.1499E+01  0.4707E+02
     33.550  0.2712E+00  0.4772E+02
     33.853  0.0000E+00  0.4777E+02
     34.155  0.9949E+00  0.4877E+02
     34.458  0.0000E+00  0.4881E+02
     34.760  0.0000E+00  0.4903E+02
     35.063  0.1611E+01  0.4963E+02
     35.365  0.9793E+00  0.5078E+02
     35.668  0.7345E+00  0.5152E+02
     35.970  0.1452E+01  0.5240E+02
     36.273  0.2621E+00  0.5278E+02
     36.576  0.1469E+01  0.5326E+02
     36.878  0.3185E+00  0.5339E+02
     37.181  0.3672E+00  0.5404E+02
     37.483  0.1469E+01  0.5448E+02
     37.786  0.5936E+00  0.5499E+02
     38.088  0.9793E+00  0.5628E+02
     38.391  0.3672E+00  0.5698E+02
     38.693  0.1836E+00  0.5748E+02
     38.996  0.2112E-07  0.5770E+02
     39.298  0.0000E+00  0.5793E+02
     39.601  0.2492E+01  0.5874E+02
     39.904  0.1835E+00  0.5970E+02
     40.206  0.7345E+00  0.6009E+02
     40.509  0.0000E+00  0.6076E+02
     40.811  0.5509E+00  0.6095E+02
     41.114  0.6226E+00  0.6125E+02
     41.416  0.1265E+01  0.6243E+02
     41.719  0.3670E+00  0.6262E+02
     42.021  0.2422E+00  0.6275E+02
     42.324  0.0000E+00  0.6321E+02
     42.627  0.2167E+01  0.6413E+02
     42.929  0.7345E+00  0.6492E+02
     43.232  0.1826E+01  0.6547E+02
     43.534  0.7345E+00  0.6597E+02
     43.837  0.4897E+00  0.6671E+02
     44.139  0.3671E+00  0.6689E+02
     44.442  0.7958E+00  0.6757E+02
     44.744  0.7345E+00  0.6820E+02
     45.047  0.8452E+00  0.6868E+02
     45.349  0.0000E+00  0.6926E+02
     45.652  0.1455E-02  0.6948E+02
     45.955  0.1469E+01  0.7043E+02
     46.257  0.1082E+01  0.7112E+02
     46.560  0.2448E+00  0.7217E+02
     46.862  0.8131E-04  0.7246E+02
     47.165  0.6586E+00  0.7288E+02
     47.467  0.2758E-01  0.7351E+02
     47.770  0.0000E+00  0.7356E+02
     48.072  0.1929E+01  0.7472E+02
     48.375  0.6597E+00  0.7589E+02
     48.678  0.0000E+00  0.7619E+02
     48.980  0.1463E+01  0.7671E+02
     49.283  0.7937E+00  0.7718E+02
     49.585  0.1735E+01  0.7826E+02
     49.888  0.2449E+00  0.7924E+02
     50.190  0.1982E-04  0.7946E+02
     50.493  0.6268E+00  0.8033E+02
     50.795  0.1193E+01  0.8119E+02
     51.098  0.6807E+00  0.8147E+02
     51.401  0.0000E+00  0.8192E+02
     51.703  0.2402E-03  0.8219E+02
     52.006  0.2854E-15  0.8271E+02
     52.308  0.6765E+00  0.8350E+02
     52.611  0.3673E+00  0.8437E+02
     52.913  0.5579E+00  0.8493E+02
     53.216  0.0000E+00  0.8576E+02
     53.518  0.0000E+00  0.8620E+02
     53.821  0.1052E+01  0.8697E+02
     54.123  0.2034E+01  0.8806E+02
     54.426  0.2203E+01  0.8931E+02
     54.729  0.2971E-01  0.8988E+02
     55.031  0.0000E+00  0.9019E+02
     55.334  0.9474E+00  0.9079E+02
     55.636  0.1144E-08  0.9089E+02
     55.939  0.1686E-08  0.9122E+02
     56.241  0.2355E+01  0.9239E+02
     56.544  0.3053E-05  0.9321E+02
     56.846  0.1526E-05  0.9432E+02
     57.149  0.3745E-03  0.9468E+02
     57.452  0.7570E+00  0.9545E+02
     57.754  0.0000E+00  0.9553E+02
     58.057  0.2701E-10  0.9553E+02
     58.359  0.8865E+00  0.9646E+02
     58.662  0.1787E+00  0.9654E+02
     58.964  0.6746E+00  0.9734E+02
     59.267  0.1159E+01  0.9849E+02
     59.569  0.3284E-08  0.9901E+02
     59.872  0.3672E+00  0.9997E+02
     60.174  0.1836E+01  0.1006E+03
     60.477  0.7401E+00  0.1009E+03
     60.780  0.0000E+00  0.1015E+03
     61.082  0.1224E+01  0.1025E+03
     61.385  0.9774E+00  0.1033E+03
     61.687  0.1339E+01  0.1045E+03
     61.990  0.0000E+00  0.1051E+03
     62.292  0.7344E+00  0.1054E+03
     62.595  0.7345E+00  0.1059E+03
     62.897  0.1102E+01  0.1066E+03
     63.200  0.0000E+00  0.1072E+03
     63.503  0.7655E+00  0.1080E+03
     63.805  0.1332E-01  0.1085E+03
     64.108  0.0000E+00  0.1100E+03
     64.410  0.4371E+00  0.1106E+03
     64.713  0.5936E-07  0.1115E+03
     65.015  0.8569E+00  0.1125E+03
     65.318  0.3672E+00  0.1133E+03
     65.620  0.2504E-13  0.1143E+03
     65.923  0.2141E-03  0.1151E+03
     66.226  0.1907E+00  0.1153E+03
     66.528  0.7345E+00  0.1162E+03
     66.831  0.0000E+00  0.1164E+03
     67.133  0.3540E-11  0.1169E+03
     67.436  0.9793E+00  0.1174E+03
     67.738  0.1102E+01  0.1181E+03
     68.041  0.2353E+01  0.1197E+03
     68.343  0.6614E-02  0.1204E+03
     68.646  0.0000E+00  0.1207E+03
     68.948  0.2170E+01  0.1216E+03
     69.251  0.6323E-05  0.1216E+03
     69.554  0.7318E+00  0.1224E+03
     69.856  0.1040E+01  0.1240E+03
     70.159  0.7345E+00  0.1254E+03
     70.461  0.0000E+00  0.1256E+03
     70.764  0.1244E-14  0.1260E+03
     71.066  0.0000E+00  0.1265E+03
     71.369  0.2786E-04  0.1269E+03
     71.671  0.0000E+00  0.1275E+03
     71.974  0.3672E+00  0.1277E+03
     72.277  0.0000E+00  0.1279E+03
     72.579  0.0000E+00  0.1280E+03
     72.882  0.0000E+00  0.1280E+03
     73.184  0.0000E+00  0.1280E+03
     73.487  0.0000E+00  0.1280E+03
     73.789  0.0000E+00  0.1280E+03
     74.092  0.0000E+00  0.1280E+03
     74.394  0.0000E+00  0.1280E+03
     74.697  0.0000E+00  0.1280E+03
     75.000  0.0000E+00  0.1280E+03
     75.302  0.0000E+00  0.1280E+03
     75.605  0.0000E+00  0.1280E+03
     75.907  0.0000E+00  0.1280E+03
     76.210  0.0000E+00  0.1280E+03
     76.512  0.0000E+00  0.1280E+03
     76.815  0.0000E+00  0.1280E+03
     77.117  0.0000E+00  0.1280E+03
     77.420  0.0000E+00  0.1280E+03
     77.722  0.0000E+00  0.1280E+03
     78.025  0.0000E+00  0.1280E+03
     78.328  0.0000E+00  0.1280E+03
     78.630  0.0000E+00  0.1280E+03
     78.933  0.0000E+00  0.1280E+03
     79.235  0.0000E+00  0.1280E+03
     79.538  0.0000E+00  0.1280E+03
     79.840  0.0000E+00  0.1280E+03
     80.143  0.0000E+00  0.1280E+03
     80.445  0.0000E+00  0.1280E+03
     80.44543121    -10.31993839  301      5.86655252      1.00000000
    -10.320  0.0000E+00  0.0000E+00  0.0000E+00
    -10.017  0.0000E+00  0.0000E+00  0.0000E+00
     -9.715  0.0000E+00  0.0000E+00  0.0000E+00
     -9.412  0.0000E+00  0.0000E+00  0.0000E+00
     -9.110  0.0000E+00  0.0000E+00  0.0000E+00
     -8.807  0.0000E+00  0.0000E+00  0.0000E+00
     -8.505  0.0000E+00  0.0000E+00  0.0000E+00
     -8.202  0.0000E+00  0.0000E+00  0.0000E+00
     -7.900  0.0000E+00  0.0000E+00  0.0000E+00
     -7.597  0.0000E+00  0.0000E+00  0.0000E+00
     -7.294  0.0000E+00  0.0000E+00  0.0000E+00
     -6.992  0.0000E+00  0.0000E+00  0.0000E+00
     -6.689  0.0000E+00  0.0000E+00  0.0000E+00
     -6.387  0.0000E+00  0.0000E+00  0.0000E+00
     -6.084  0.0000E+00  0.0000E+00  0.0000E+00
     -5.782  0.5171E-01  0.9462E-03  0.0000E+00
     -5.479  0.0000E+00  0.0000E+00  0.0000E+00
     -5.177  0.7681E-01  0.3613E-02  0.0000E+00
     -4.874  0.1502E+00  0.9730E-02  0.0000E+00
     -4.571  0.0000E+00  0.0000E+00  0.0000E+00
     -4.269  0.3632E-01  0.3723E-02  0.0000E+00
     -3.966  0.0000E+00  0.0000E+00  0.0000E+00
     -3.664  0.1594E+00  0.1415E-01  0.0000E+00
     -3.361  0.0000E+00  0.0000E+00  0.0000E+00
     -3.059  0.1492E+00  0.2300E-01  0.0000E+00
     -2.756  0.0000E+00  0.0000E+00  0.0000E+00
     -2.454  0.0000E+00  0.0000E+00  0.0000E+00
     -2.151  0.0000E+00  0.0000E+00  0.0000E+00
     -1.849  0.1481E+00  0.3177E-01  0.0000E+00
     -1.546  0.0000E+00  0.0000E+00  0.0000E+00
     -1.243  0.5080E-05  0.4931E-05  0.0000E+00
     -0.941  0.6455E-01  0.2311E-01  0.0000E+00
     -0.638  0.0000E+00  0.0000E+00  0.0000E+00
     -0.336  0.0000E+00  0.0000E+00  0.0000E+00
     -0.033  0.0000E+00  0.0000E+00  0.0000E+00
      0.269  0.0000E+00  0.0000E+00  0.0000E+00
      0.572  0.0000E+00  0.0000E+00  0.0000E+00
      0.874  0.0000E+00  0.0000E+00  0.0000E+00
      1.177  0.0000E+00  0.0000E+00  0.0000E+00
      1.480  0.0000E+00  0.0000E+00  0.0000E+00
      1.782  0.1521E-01  0.1092E+00  0.0000E+00
      2.085  0.4474E-01  0.4307E-01  0.0000E+00
      2.387  0.0000E+00  0.0000E+00  0.0000E+00
      2.690  0.2927E-04  0.1273E-03  0.0000E+00
      2.992  0.2421E-01  0.1603E+00  0.0000E+00
      3.295  0.3653E-14  0.1460E+00  0.0000E+00
      3.597  0.0000E+00  0.0000E+00  0.0000E+00
      3.900  0.0000E+00  0.0000E+00  0.0000E+00
      4.203  0.0000E+00  0.0000E+00  0.0000E+00
      4.505  0.8572E-17  0.1531E+00  0.0000E+00
      4.808  0.2581E-18  0.1050E+00  0.0000E+00
      5.110  0.0000E+00  0.0000E+00  0.0000E+00
      5.413  0.2140E-17  0.1043E+00  0.0000E+00
      5.715  0.0000E+00  0.0000E+00  0.0000E+00
      6.018  0.0000E+00  0.0000E+00  0.0000E+00
      6.320  0.0000E+00  0.0000E+00  0.0000E+00
      6.623  0.0000E+00  0.0000E+00  0.0000E+00
      6.925  0.0000E+00  0.0000E+00  0.0000E+00
      7.228  0.6017E-05  0.4868E-05  0.0000E+00
      7.531  0.4266E-01  0.7454E-02  0.0000E+00
      7.833  0.0000E+00  0.0000E+00  0.0000E+00
      8.136  0.3103E-01  0.1776E-01  0.0000E+00
      8.438  0.2650E-01  0.5586E-01  0.0000E+00
      8.741  0.3486E-10  0.3343E-10  0.0000E+00
      9.043  0.5934E-03  0.6365E-02  0.0000E+00
      9.346  0.4547E-01  0.1183E+00  0.0000E+00
      9.648  0.1135E-01  0.4456E-01  0.0000E+00
      9.951  0.3869E-04  0.1633E-02  0.0000E+00
     10.254  0.1536E-01  0.5536E-01  0.0000E+00
     10.556  0.0000E+00  0.0000E+00  0.0000E+00
     10.859  0.5595E-18  0.1026E+00  0.0000E+00
     11.161  0.6513E-09  0.4454E-09  0.0000E+00
     11.464  0.3775E-10  0.5125E-09  0.0000E+00
     11.766  0.3651E-12  0.1639E-11  0.0000E+00
     12.069  0.0000E+00  0.0000E+00  0.0000E+00
     12.371  0.2260E-01  0.6743E-02  0.0000E+00
     12.674  0.0000E+00  0.0000E+00  0.0000E+00
     12.977  0.9347E-05  0.3034E-04  0.0000E+00
     13.279  0.3040E-01  0.1038E+00  0.0000E+00
     13.582  0.6215E-02  0.2832E-01  0.0000E+00
     13.884  0.0000E+00  0.0000E+00  0.0000E+00
     14.187  0.0000E+00  0.0000E+00  0.0000E+00
     14.489  0.0000E+00  0.0000E+00  0.0000E+00
     14.792  0.5587E-01  0.6521E-01  0.0000E+00
     15.094  0.7247E-02  0.1215E+00  0.0000E+00
     15.397  0.1142E-01  0.1110E-01  0.0000E+00
     15.699  0.3980E-02  0.9712E-01  0.0000E+00
     16.002  0.1256E-07  0.2767E-07  0.0000E+00
     16.305  0.7592E-02  0.5920E-02  0.0000E+00
     16.607  0.0000E+00  0.0000E+00  0.0000E+00
     16.910  0.3571E-02  0.6536E-01  0.0000E+00
     17.212  0.7067E-02  0.1251E-02  0.0000E+00
     17.515  0.2135E-01  0.6562E-01  0.0000E+00
     17.817  0.0000E+00  0.0000E+00  0.0000E+00
     18.120  0.2031E-16  0.3089E-01  0.0000E+00
     18.422  0.4702E-01  0.1104E+00  0.0000E+00
     18.725  0.2235E-01  0.1111E+00  0.0000E+00
     19.028  0.7667E-04  0.2067E-03  0.0000E+00
     19.330  0.4675E-02  0.3934E-01  0.0000E+00
     19.633  0.0000E+00  0.0000E+00  0.0000E+00
     19.935  0.0000E+00  0.0000E+00  0.0000E+00
     20.238  0.0000E+00  0.0000E+00  0.0000E+00
     20.540  0.2319E-04  0.8029E-04  0.0000E+00
     20.843  0.3000E-09  0.5730E-26  0.0000E+00
     21.145  0.2337E-17  0.1102E-01  0.0000E+00
     21.448  0.4005E-03  0.1066E-01  0.0000E+00
     21.750  0.2413E-16  0.6851E-01  0.0000E+00
     22.053  0.2440E-01  0.1960E+00  0.0000E+00
     22.356  0.1050E-21  0.3053E-05  0.0000E+00
     22.658  0.2462E-02  0.1018E+00  0.0000E+00
     22.961  0.9335E-02  0.4802E-01  0.0000E+00
     23.263  0.0000E+00  0.0000E+00  0.0000E+00
     23.566  0.3082E-04  0.2769E-04  0.0000E+00
     23.868  0.0000E+00  0.0000E+00  0.0000E+00
     24.171  0.1475E-01  0.2823E-01  0.0000E+00
     24.473  0.1471E-01  0.4567E-01  0.0000E+00
     24.776  0.6650E-18  0.1823E-01  0.0000E+00
     25.079  0.5950E-02  0.1368E-02  0.0000E+00
     25.381  0.1094E-19  0.9842E-02  0.0000E+00
     25.684  0.1628E-02  0.4855E-01  0.0000E+00
     25.986  0.5885E-18  0.7538E-02  0.0000E+00
     26.289  0.2263E-02  0.8820E-01  0.0000E+00
     26.591  0.2221E-05  0.4609E-04  0.0000E+00
     26.894  0.5406E-17  0.2979E-01  0.0000E+00
     27.196  0.1323E-01  0.5743E-01  0.0000E+00
     27.499  0.9899E-02  0.6714E-01  0.0000E+00
     27.802  0.5165E-17  0.5567E-02  0.0000E+00
     28.104  0.0000E+00  0.0000E+00  0.0000E+00
     28.407  0.1271E-01  0.3538E-01  0.0000E+00
     28.709  0.6428E-02  0.3368E-01  0.0000E+00
     29.012  0.1285E-01  0.3503E-01  0.0000E+00
     29.314  0.0000E+00  0.0000E+00  0.0000E+00
     29.617  0.2003E-05  0.1048E-04  0.0000E+00
     29.919  0.1110E-01  0.4861E-02  0.0000E+00
     30.222  0.1394E-01  0.1715E-01  0.0000E+00
     30.524  0.1028E-02  0.4182E-01  0.0000E+00
     30.827  0.0000E+00  0.0000E+00  0.0000E+00
     31.130  0.1030E-28  0.2165E-12  0.0000E+00
     31.432  0.7451E-03  0.1292E-01  0.0000E+00
     31.735  0.0000E+00  0.0000E+00  0.0000E+00
     32.037  0.0000E+00  0.0000E+00  0.0000E+00
     32.340  0.1203E-01  0.3912E-01  0.0000E+00
     32.642  0.5469E-28  0.2148E-11  0.0000E+00
     32.945  0.1152E-16  0.6987E-01  0.0000E+00
     33.247  0.5113E-05  0.1523E+00  0.0000E+00
     33.550  0.5323E-02  0.1947E-01  0.0000E+00
     33.853  0.0000E+00  0.0000E+00  0.0000E+00
     34.155  0.3451E-02  0.2663E-01  0.0000E+00
     34.458  0.0000E+00  0.0000E+00  0.0000E+00
     34.760  0.0000E+00  0.0000E+00  0.0000E+00
     35.063  0.9282E-02  0.9933E-01  0.0000E+00
     35.365  0.5938E-02  0.1386E-01  0.0000E+00
     35.668  0.2449E-01  0.1076E-01  0.0000E+00
     35.970  0.3196E-02  0.3917E-01  0.0000E+00
     36.273  0.4447E-19  0.5180E-02  0.0000E+00
     36.576  0.1251E-01  0.2232E-01  0.0000E+00
     36.878  0.2933E-02  0.2841E-01  0.0000E+00
     37.181  0.1349E-17  0.1178E-01  0.0000E+00
     37.483  0.8815E-03  0.4283E-01  0.0000E+00
     37.786  0.3970E-02  0.7949E-02  0.0000E+00
     38.088  0.3714E-15  0.2686E-01  0.0000E+00
     38.391  0.6064E-18  0.9938E-02  0.0000E+00
     38.693  0.6523E-26  0.4564E-17  0.0000E+00
     38.996  0.6738E-11  0.6191E-09  0.0000E+00
     39.298  0.0000E+00  0.0000E+00  0.0000E+00
     39.601  0.2184E-01  0.4772E-01  0.0000E+00
     39.904  0.1104E-06  0.1321E-01  0.0000E+00
     40.206  0.1037E-03  0.1850E-02  0.0000E+00
     40.509  0.0000E+00  0.0000E+00  0.0000E+00
     40.811  0.8769E-02  0.6792E-02  0.0000E+00
     41.114  0.1594E-01  0.2441E-01  0.0000E+00
     41.416  0.1490E-01  0.5164E-01  0.0000E+00
     41.719  0.1347E-01  0.1391E-02  0.0000E+00
     42.021  0.2462E-02  0.8319E-02  0.0000E+00
     42.324  0.0000E+00  0.0000E+00  0.0000E+00
     42.627  0.2428E-01  0.4496E-01  0.0000E+00
     42.929  0.1786E-01  0.1964E-01  0.0000E+00
     43.232  0.1107E-01  0.4126E-01  0.0000E+00
     43.534  0.1228E-01  0.2511E-01  0.0000E+00
     43.837  0.1407E-17  0.1199E-01  0.0000E+00
     44.139  0.2894E-17  0.7662E-02  0.0000E+00
     44.442  0.3453E-02  0.1698E-01  0.0000E+00
     44.744  0.1060E-01  0.2925E-01  0.0000E+00
     45.047  0.3628E-02  0.1010E-01  0.0000E+00
     45.349  0.0000E+00  0.0000E+00  0.0000E+00
     45.652  0.3960E-04  0.6101E-04  0.0000E+00
     45.955  0.2704E-02  0.4080E-01  0.0000E+00
     46.257  0.1321E-01  0.1898E-01  0.0000E+00
     46.560  0.2195E-18  0.3493E-04  0.0000E+00
     46.862  0.2176E-21  0.1826E-05  0.0000E+00
     47.165  0.4580E-10  0.1003E-01  0.0000E+00
     47.467  0.1352E-03  0.5819E-03  0.0000E+00
     47.770  0.0000E+00  0.0000E+00  0.0000E+00
     48.072  0.1309E-01  0.4058E-01  0.0000E+00
     48.375  0.6466E-05  0.1229E-01  0.0000E+00
     48.678  0.0000E+00  0.0000E+00  0.0000E+00
     48.980  0.1910E-01  0.1968E-01  0.0000E+00
     49.283  0.2947E-02  0.4016E-01  0.0000E+00
     49.585  0.2302E-01  0.7136E-01  0.0000E+00
     49.888  0.8622E-03  0.1960E-02  0.0000E+00
     50.190  0.9941E-06  0.7001E-21  0.0000E+00
     50.493  0.6039E-02  0.3136E-01  0.0000E+00
     50.795  0.1445E-01  0.9143E-02  0.0000E+00
     51.098  0.9357E-02  0.5713E-02  0.0000E+00
     51.401  0.0000E+00  0.0000E+00  0.0000E+00
     51.703  0.6632E-16  0.2153E-05  0.0000E+00
     52.006  0.1517E-20  0.9908E-17  0.0000E+00
     52.308  0.1381E-01  0.1254E-01  0.0000E+00
     52.611  0.1892E-01  0.2272E-01  0.0000E+00
     52.913  0.7429E-02  0.2002E-01  0.0000E+00
     53.216  0.0000E+00  0.0000E+00  0.0000E+00
     53.518  0.0000E+00  0.0000E+00  0.0000E+00
     53.821  0.1634E-01  0.2554E-01  0.0000E+00
     54.123  0.3229E-01  0.5038E-01  0.0000E+00
     54.426  0.9889E-03  0.6642E-01  0.0000E+00
     54.729  0.5800E-06  0.3503E-03  0.0000E+00
     55.031  0.0000E+00  0.0000E+00  0.0000E+00
     55.334  0.1246E-01  0.3119E-02  0.0000E+00
     55.636  0.1605E-10  0.2390E-10  0.0000E+00
     55.939  0.5366E-10  0.1491E-26  0.0000E+00
     56.241  0.4107E-01  0.4282E-01  0.0000E+00
     56.544  0.2781E-09  0.6236E-07  0.0000E+00
     56.846  0.1274E-26  0.7376E-23  0.0000E+00
     57.149  0.8036E-12  0.9761E-05  0.0000E+00
     57.452  0.1502E-03  0.2516E-01  0.0000E+00
     57.754  0.0000E+00  0.0000E+00  0.0000E+00
     58.057  0.8081E-12  0.1014E-11  0.0000E+00
     58.359  0.3801E-01  0.2985E-01  0.0000E+00
     58.662  0.2057E-01  0.4741E-02  0.0000E+00
     58.964  0.4034E-02  0.1592E-01  0.0000E+00
     59.267  0.2124E-03  0.8117E-02  0.0000E+00
     59.569  0.2394E-10  0.5884E-10  0.0000E+00
     59.872  0.4044E-02  0.1032E-01  0.0000E+00
     60.174  0.5541E-01  0.4534E-01  0.0000E+00
     60.477  0.3793E-01  0.3637E-01  0.0000E+00
     60.780  0.0000E+00  0.0000E+00  0.0000E+00
     61.082  0.1563E-02  0.1027E-01  0.0000E+00
     61.385  0.1418E-01  0.3543E-01  0.0000E+00
     61.687  0.4756E-04  0.4454E-01  0.0000E+00
     61.990  0.0000E+00  0.0000E+00  0.0000E+00
     62.292  0.3736E-09  0.1348E-02  0.0000E+00
     62.595  0.1514E-01  0.1561E-01  0.0000E+00
     62.897  0.9815E-02  0.4547E-01  0.0000E+00
     63.200  0.0000E+00  0.0000E+00  0.0000E+00
     63.503  0.2632E-01  0.1671E-02  0.0000E+00
     63.805  0.8959E-17  0.1042E-03  0.0000E+00
     64.108  0.0000E+00  0.0000E+00  0.0000E+00
     64.410  0.9487E-02  0.3856E-02  0.0000E+00
     64.713  0.1334E-08  0.1937E-08  0.0000E+00
     65.015  0.2104E-01  0.8784E-01  0.0000E+00
     65.318  0.1434E-01  0.4683E-01  0.0000E+00
     65.620  0.2144E-17  0.2296E-15  0.0000E+00
     65.923  0.1243E-04  0.1076E-05  0.0000E+00
     66.226  0.1212E-01  0.6976E-02  0.0000E+00
     66.528  0.4243E-01  0.2134E-01  0.0000E+00
     66.831  0.0000E+00  0.0000E+00  0.0000E+00
     67.133  0.6780E-16  0.1850E-12  0.0000E+00
     67.436  0.2307E-01  0.7953E-02  0.0000E+00
     67.738  0.1604E-01  0.9050E-01  0.0000E+00
     68.041  0.1268E-01  0.8263E-01  0.0000E+00
     68.343  0.1151E-03  0.9778E-04  0.0000E+00
     68.646  0.0000E+00  0.0000E+00  0.0000E+00
     68.948  0.1112E-01  0.9479E-01  0.0000E+00
     69.251  0.5817E-07  0.3128E-06  0.0000E+00
     69.554  0.1407E-11  0.7341E-03  0.0000E+00
     69.856  0.1992E-01  0.3101E-01  0.0000E+00
     70.159  0.3182E-01  0.3329E-01  0.0000E+00
     70.461  0.0000E+00  0.0000E+00  0.0000E+00
     70.764  0.8835E-25  0.3425E-17  0.0000E+00
     71.066  0.0000E+00  0.0000E+00  0.0000E+00
     71.369  0.8813E-07  0.3277E-06  0.0000E+00
     71.671  0.0000E+00  0.0000E+00  0.0000E+00
     71.974  0.4710E-08  0.1404E-01  0.0000E+00
     72.277  0.0000E+00  0.0000E+00  0.0000E+00
     72.579  0.0000E+00  0.0000E+00  0.0000E+00
     72.882  0.0000E+00  0.0000E+00  0.0000E+00
     73.184  0.0000E+00  0.0000E+00  0.0000E+00
     73.487  0.0000E+00  0.0000E+00  0.0000E+00
     73.789  0.0000E+00  0.0000E+00  0.0000E+00
     74.092  0.0000E+00  0.0000E+00  0.0000E+00
     74.394  0.0000E+00  0.0000E+00  0.0000E+00
     74.697  0.0000E+00  0.0000E+00  0.0000E+00
     75.000  0.0000E+00  0.0000E+00  0.0000E+00
     75.302  0.0000E+00  0.0000E+00  0.0000E+00
     75.605  0.0000E+00  0.0000E+00  0.0000E+00
     75.907  0.0000E+00  0.0000E+00  0.0000E+00
     76.210  0.0000E+00  0.0000E+00  0.0000E+00
     76.512  0.0000E+00  0.0000E+00  0.0000E+00
     76.815  0.0000E+00  0.0000E+00  0.0000E+00
     77.117  0.0000E+00  0.0000E+00  0.0000E+00
     77.420  0.0000E+00  0.0000E+00  0.0000E+00
     77.722  0.0000E+00  0.0000E+00  0.0000E+00
     78.025  0.0000E+00  0.0000E+00  0.0000E+00
     78.328  0.0000E+00  0.0000E+00  0.0000E+00
     78.630  0.0000E+00  0.0000E+00  0.0000E+00
     78.933  0.0000E+00  0.0000E+00  0.0000E+00
     79.235  0.0000E+00  0.0000E+00  0.0000E+00
     79.538  0.0000E+00  0.0000E+00  0.0000E+00
     79.840  0.0000E+00  0.0000E+00  0.0000E+00
     80.143  0.0000E+00  0.0000E+00  0.0000E+00
     80.445  0.0000E+00  0.0000E+00  0.0000E+00
     80.44543121    -10.31993839  301      5.86655252      1.00000000
    -10.320  0.0000E+00  0.0000E+00  0.0000E+00
    -10.017  0.0000E+00  0.0000E+00  0.0000E+00
     -9.715  0.0000E+00  0.0000E+00  0.0000E+00
     -9.412  0.0000E+00  0.0000E+00  0.0000E+00
     -9.110  0.0000E+00  0.0000E+00  0.0000E+00
     -8.807  0.0000E+00  0.0000E+00  0.0000E+00
     -8.505  0.0000E+00  0.0000E+00  0.0000E+00
     -8.202  0.0000E+00  0.0000E+00  0.0000E+00
     -7.900  0.0000E+00  0.0000E+00  0.0000E+00
     -7.597  0.0000E+00  0.0000E+00  0.0000E+00
     -7.294  0.0000E+00  0.0000E+00  0.0000E+00
     -6.992  0.0000E+00  0.0000E+00  0.0000E+00
     -6.689  0.0000E+00  0.0000E+00  0.0000E+00
     -6.387  0.0000E+00  0.0000E+00  0.0000E+00
     -6.084  0.0000E+00  0.0000E+00  0.0000E+00
     -5.782  0.5171E-01  0.9462E-03  0.0000E+00
     -5.479  0.0000E+00  0.0000E+00  0.0000E+00
     -5.177  0.7681E-01  0.3613E-02  0.0000E+00
     -4.874  0.1502E+00  0.9730E-02  0.0000E+00
     -4.571  0.0000E+00  0.0000E+00  0.0000E+00
     -4.269  0.3632E-01  0.3723E-02  0.0000E+00
     -3.966  0.0000E+00  0.0000E+00  0.0000E+00
     -3.664  0.1594E+00  0.1415E-01  0.0000E+00
     -3.361  0.0000E+00  0.0000E+00  0.0000E+00
     -3.059  0.1492E+00  0.2300E-01  0.0000E+00
     -2.756  0.0000E+00  0.0000E+00  0.0000E+00
     -2.454  0.0000E+00  0.0000E+00  0.0000E+00
     -2.151  0.0000E+00  0.0000E+00  0.0000E+00
     -1.849  0.1481E+00  0.3177E-01  0.0000E+00
     -1.546  0.0000E+00  0.0000E+00  0.0000E+00
     -1.243  0.5080E-05  0.4931E-05  0.0000E+00
     -0.941  0.6455E-01  0.2311E-01  0.0000E+00
     -0.638  0.0000E+00  0.0000E+00  0.0000E+00
     -0.336  0.0000E+00  0.0000E+00  0.0000E+00
     -0.033  0.0000E+00  0.0000E+00  0.0000E+00
      0.269  0.0000E+00  0.0000E+00  0.0000E+00
      0.572  0.0000E+00  0.0000E+00  0.0000E+00
      0.874  0.0000E+00  0.0000E+00  0.0000E+00
      1.177  0.0000E+00  0.0000E+00  0.0000E+00
      1.480  0.0000E+00  0.0000E+00  0.0000E+00
      1.782  0.1521E-01  0.1092E+00  0.0000E+00
      2.085  0.4474E-01  0.4307E-01  0.0000E+00
      2.387  0.0000E+00  0.0000E+00  0.0000E+00
      2.690  0.2927E-04  0.1273E-03  0.0000E+00
      2.992  0.2421E-01  0.1603E+00  0.0000E+00
      3.295  0.3653E-14  0.1460E+00  0.0000E+00
      3.597  0.0000E+00  0.0000E+00  0.0000E+00
      3.900  0.0000E+00  0.0000E+00  0.0000E+00
      4.203  0.0000E+00  0.0000E+00  0.0000E+00
      4.505  0.8569E-17  0.1531E+00  0.0000E+00
      4.808  0.2580E-18  0.1050E+00  0.0000E+00
      5.110  0.0000E+00  0.0000E+00  0.0000E+00
      5.413  0.2139E-17  0.1043E+00  0.0000E+00
      5.715  0.0000E+00  0.0000E+00  0.0000E+00
      6.018  0.0000E+00  0.0000E+00  0.0000E+00
      6.320  0.0000E+00  0.0000E+00  0.0000E+00
      6.623  0.0000E+00  0.0000E+00  0.0000E+00
      6.925  0.0000E+00  0.0000E+00  0.0000E+00
      7.228  0.6017E-05  0.4868E-05  0.0000E+00
      7.531  0.4266E-01  0.7454E-02  0.0000E+00
      7.833  0.0000E+00  0.0000E+00  0.0000E+00
      8.136  0.3103E-01  0.1776E-01  0.0000E+00
      8.438  0.2650E-01  0.5586E-01  0.0000E+00
      8.741  0.3486E-10  0.3343E-10  0.0000E+00
      9.043  0.5934E-03  0.6365E-02  0.0000E+00
      9.346  0.4547E-01  0.1183E+00  0.0000E+00
      9.648  0.1135E-01  0.4456E-01  0.0000E+00
      9.951  0.3869E-04  0.1633E-02  0.0000E+00
     10.254  0.1536E-01  0.5536E-01  0.0000E+00
     10.556  0.0000E+00  0.0000E+00  0.0000E+00
     10.859  0.5571E-18  0.1026E+00  0.0000E+00
     11.161  0.6513E-09  0.4454E-09  0.0000E+00
     11.464  0.3775E-10  0.5125E-09  0.0000E+00
     11.766  0.3651E-12  0.1639E-11  0.0000E+00
     12.069  0.0000E+00  0.0000E+00  0.0000E+00
     12.371  0.2260E-01  0.6743E-02  0.0000E+00
     12.674  0.0000E+00  0.0000E+00  0.0000E+00
     12.977  0.9347E-05  0.3034E-04  0.0000E+00
     13.279  0.3040E-01  0.1038E+00  0.0000E+00
     13.582  0.6215E-02  0.2832E-01  0.0000E+00
     13.884  0.0000E+00  0.0000E+00  0.0000E+00
     14.187  0.0000E+00  0.0000E+00  0.0000E+00
     14.489  0.0000E+00  0.0000E+00  0.0000E+00
     14.792  0.5587E-01  0.6521E-01  0.0000E+00
     15.094  0.7247E-02  0.1215E+00  0.0000E+00
     15.397  0.1142E-01  0.1110E-01  0.0000E+00
     15.699  0.3980E-02  0.9712E-01  0.0000E+00
     16.002  0.1256E-07  0.2767E-07  0.0000E+00
     16.305  0.7592E-02  0.5920E-02  0.0000E+00
     16.607  0.0000E+00  0.0000E+00  0.0000E+00