    2    2    1    1
  0.2002393E+02  0.3840297E-09  0.3840297E-09  0.3840297E-09  0.5000000E-15
  1.000000000000000E-004
  CAR 
 Name                                    
      8    597     64
 
  0.0000000E+00  0.0000000E+00  0.0000000E+00  0.4629630E-02
    1       -6.194240
    2        5.797175
    3        5.797175
    4        5.797175
    5        8.310366
    6        8.310366
    7        8.310366
    8        9.119485
    9       13.480936
   10       13.480936
   11       13.503450
   12       16.887659
   13       16.887659
   14       16.887659
   15       20.878436
   16       28.794412
   17       28.794412
   18       28.794412
   19       29.961540
   20       29.961540
   21       31.507678
   22       31.507678
   23       31.507678
   24       34.990343
   25       34.990343
   26       34.990343
   27       40.580580
   28       40.580580
   29       40.580580
   30       43.903987
   31       44.388112
   32       44.388112
   33       46.322147
   34       46.322147
   35       47.919179
   36       47.919179
   37       47.919179
   38       49.653888
   39       49.653888
   40       49.653888
   41       50.213056
   42       50.653254
   43       50.653254
   44       50.653254
   45       50.751776
   46       50.751776
   47       50.751776
   48       52.120150
   49       52.120150
   50       52.120151
   51       55.976322
   52       57.167693
   53       57.167693
   54       57.167693
   55       57.392326
   56       57.392326
   57       57.392326
   58       62.363048
   59       63.474693
   60       72.144302
   61       72.144302
   62       75.197987
   63       75.197988
   64       75.197988
 
  0.1666667E+00  0.0000000E+00  0.0000000E+00  0.3703704E-01
    1       -5.831592
    2        3.396946
    3        5.341562
    4        5.341562
    5        8.084046
    6        8.962044
    7        8.962044
    8       11.200341
    9       12.815974
   10       12.815974
   11       14.662916
   12       16.263854
   13       18.802554
   14       18.802554
   15       22.888311
   16       25.671357
   17       25.671357
   18       26.286128
   19       29.636515
   20       29.636515
   21       32.170629
   22       32.170629
   23       33.520225
   24       35.318361
   25       36.896278
   26       38.178761
   27       38.178761
   28       39.709753
   29       39.709753
   30       41.266730
   31       41.266730
   32       43.763182
   33       43.763182
   34       44.609282
   35       46.690766
   36       46.922737
   37       47.317820
   38       47.317820
   39       49.287543
   40       49.678783
   41       49.678783
   42       49.852226
   43       50.907678
   44       51.164836
   45       51.164836
   46       53.963389
   47       54.074070
   48       54.074070
   49       55.123267
   50       55.123267
   51       56.877331
   52       57.233015
   53       58.684333
   54       58.684333
   55       61.003143
   56       61.003143
   57       61.768530
   58       64.819505
   59       67.370159
   60       67.864362
   61       67.864362
   62       70.365514
   63       72.028145
   64       72.028145
 
  0.3333333E+00  0.0000000E+00  0.0000000E+00  0.3703704E-01
    1       -4.810303
    2        0.429552
    3        4.790460
    4        4.790460
    5        7.486686
    6        9.241998
    7        9.241998
    8       13.501704
    9       13.718703
   10       13.718703
   11       14.769182
   12       19.252883
   13       20.360998
   14       20.360998
   15       22.532356
   16       23.334865
   17       23.334865
   18       27.453641
   19       29.777800
   20       29.777800
   21       30.942353
   22       32.561116
   23       32.561116
   24       35.071689
   25       35.071689
   26       35.575609
   27       36.168702
   28       38.490689
   29       38.490690
   30       39.608913
   31       39.608913
   32       41.345292
   33       43.598806
   34       43.673243
   35       46.077721
   36       46.077721
   37       46.887622
   38       46.887622
   39       48.737167
   40       49.584876
   41       49.584876
   42       49.771597
   43       51.758113
   44       54.136625
   45       54.136625
   46       56.269030
   47       56.269030
   48       58.101515
   49       59.259700
   50       59.259700
   51       59.839004
   52       62.779912
   53       62.779912
   54       63.109310
   55       64.471089
   56       64.471089
   57       64.508427
   58       65.825503
   59       66.441643
   60       66.441643
   61       67.185970
   62       67.643299
   63       67.643299
   64       69.750327
 
  0.5000000E+00  0.0000000E+00  0.0000000E+00  0.1851852E-01
    1       -3.844049
    2       -1.219828
    3        4.592860
    4        4.592861
    5        7.259940
    6        9.065419
    7        9.065419
    8       13.305248
    9       16.303596
   10       16.303596
   11       17.016863
   12       17.071373
   13       17.071373
   14       18.730033
   15       25.067196
   16       25.645469
   17       27.305485
   18       27.305485
   19       27.548974
   20       27.548974
   21       31.280435
   22       32.148117
   23       32.148117
   24       33.214578
   25       33.214578
   26       33.912508
   27       36.790414
   28       38.038936
   29       38.038936
   30       38.580453
   31       38.580453
   32       39.601242
   33       42.147838
   34       42.399673
   35       46.506261
   36       46.506261
   37       48.375771
   38       48.375771
   39       48.485818
   40       49.548231
   41       52.344170
   42       52.344170
   43       54.128325
   44       54.128325
   45       54.926074
   46       58.218742
   47       58.357019
   48       58.357019
   49       59.723951
   50       59.723951
   51       59.808997
   52       61.619017
   53       61.619017
   54       64.169969
   55       64.169969
   56       64.946213
   57       65.361865
   58       65.361865
   59       67.025495
   60       68.164466
   61       68.164466
   62       68.559529
   63       69.800619
   64       70.545633
 
  0.1666667E+00  0.1666667E+00  0.0000000E+00  0.2777778E-01
    1       -5.708266
    2        3.756019
    3        4.588380
    4        4.588380
    5        7.417280
    6       10.019302
    7       10.105825
    8       10.105825
    9       12.347804
   10       14.018874
   11       15.337425
   12       17.730246
   13       17.730246
   14       18.289455
   15       23.971860
   16       25.179674
   17       25.179674
   18       26.415993
   19       27.650437
   20       29.457430
   21       32.399845
   22       32.896934
   23       32.896934
   24       37.593956
   25       37.593956
   26       37.795961
   27       38.314615
   28       38.314615
   29       38.641335
   30       39.427277
   31       41.896834
   32       43.451455
   33       45.050612
   34       45.050612
   35       46.032685
   36       46.152284
   37       47.238359
   38       47.375169
   39       47.375169
   40       49.615966
   41       49.615966
   42       50.775970
   43       51.551552
   44       52.735447
   45       52.905149
   46       52.905149
   47       54.325019
   48       54.369390
   49       54.369390
   50       55.224739
   51       55.294673
   52       57.567764
   53       59.134365
   54       59.134365
   55       62.110149
   56       62.874964
   57       64.504443
   58       64.504443
   59       66.090031
   60       66.204804
   61       71.149690
   62       71.149690
   63       72.066584
   64       72.395372
 
  0.3333333E+00  0.1666667E+00  0.0000000E+00  0.1111111E+00
    1       -4.889151
    2        1.343195
    3        3.778349
    4        4.033414
    5        7.673941
    6        9.785389
    7       10.248908
    8       10.826349
    9       14.819689
   10       14.883253
   11       16.036146
   12       18.505588
   13       19.464398
   14       21.006177
   15       21.696120
   16       22.683964
   17       25.567562
   18       26.340856
   19       27.445300
   20       29.082779
   21       31.281357
   22       32.185406
   23       33.181213
   24       35.277314
   25       35.500356
   26       35.889920
   27       37.513877
   28       38.046992
   29       38.825404
   30       39.730777
   31       41.250453
   32       42.456102
   33       43.293891
   34       43.456503
   35       44.407008
   36       45.918470
   37       47.155865
   38       47.987641
   39       49.531759
   40       49.718270
   41       50.366509
   42       50.485429
   43       51.727164
   44       52.298182
   45       53.329353
   46       54.058827
   47       56.167683
   48       56.656703
   49       56.723410
   50       58.230234
   51       60.109734
   52       61.034237
   53       62.267167
   54       63.819919
   55       63.979190
   56       64.964622
   57       65.091054
   58       66.455855
   59       67.826803
   60       68.046687
   61       68.879736
   62       68.936466
   63       69.672150
   64       70.054047
 
  0.5000000E+00  0.1666667E+00  0.0000000E+00  0.1111111E+00
    1       -3.686907
    2       -0.843667
    3        2.987445
    4        4.006063
    5        7.743965
    6        9.845657
    7       10.357777
    8       12.136379
    9       15.071084
   10       16.221186
   11       17.451523
   12       17.576188
   13       18.402175
   14       21.843384
   15       23.668837
   16       24.702277
   17       25.839049
   18       26.317512
   19       26.832757
   20       28.483824
   21       29.715220
   22       31.937384
   23       32.687908
   24       32.912026
   25       33.333416
   26       35.181397
   27       35.956355
   28       36.040514
   29       37.780011
   30       39.533984
   31       40.319801
   32       41.106512
   33       42.614909
   34       42.714083
   35       44.808580
   36       46.216885
   37       48.042973
   38       48.960661
   39       50.557647
   40       51.911840
   41       52.128124
   42       52.470601
   43       53.354396
   44       53.595978
   45       53.653928
   46       56.117262
   47       56.347822
   48       58.279535
   49       59.208926
   50       59.680724
   51       61.143382
   52       61.654999
   53       62.829591
   54       63.577388
   55       64.768960
   56       65.360817
   57       65.675761
   58       66.243365
   59       67.396000
   60       67.605305
   61       68.260736
   62       69.656707
   63       69.742723
   64       69.899118
 
 -0.3333333E+00  0.1666667E+00  0.0000000E+00  0.1111111E+00
    1       -4.076321
    2       -0.238459
    3        2.711371
    4        4.490971
    5        8.167518
    6        9.842723
    7        9.965736
    8       13.000602
    9       13.056751
   10       15.089536
   11       17.127579
   12       18.549082
   13       20.574322
   14       21.149152
   15       22.024330
   16       23.612345
   17       25.685091
   18       27.705008
   19       27.755111
   20       28.667635
   21       30.497482
   22       30.556795
   23       33.039113
   24       33.360118
   25       34.052662
   26       34.137030
   27       35.461576
   28       37.920313
   29       39.034283
   30       39.574915
   31       40.276872
   32       41.407672
   33       42.718492
   34       43.162501
   35       44.699707
   36       46.274422
   37       46.475291
   38       47.959146
   39       48.269957
   40       50.745202
   41       52.660340
   42       53.113510
   43       53.810355
   44       54.084730
   45       54.639548
   46       55.803064
   47       57.202647
   48       58.956731
   49       59.167148
   50       59.391542
   51       60.590016
   52       61.270766
   53       61.524532
   54       63.310170
   55       63.967258
   56       64.510014
   57       64.860723
   58       65.351571
   59       66.610642
   60       67.665412
   61       68.716947
   62       69.990962
   63       70.090331
   64       70.669826
 
 -0.1666667E+00  0.1666667E+00  0.0000000E+00  0.5555556E-01
    1       -5.240683
    2        2.066748
    3        3.344800
    4        5.230858
    5        8.783203
    6        9.305735
    7        9.576622
    8       11.374665
    9       11.818172
   10       15.141922
   11       16.097159
   12       17.144431
   13       19.042244
   14       21.297028
   15       21.741011
   16       24.399122
   17       26.142509
   18       26.446661
   19       26.782144
   20       28.260975
   21       32.338757
   22       32.544607
   23       34.150976
   24       35.156628
   25       36.268963
   26       36.870291
   27       37.136932
   28       39.601938
   29       39.745271
   30       39.958729
   31       40.164994
   32       41.156338
   33       44.249948
   34       44.467293
   35       45.021217
   36       45.670816
   37       46.018017
   38       46.416701
   39       48.338587
   40       49.737268
   41       50.525018
   42       50.635311
   43       52.541733
   44       52.910648
   45       52.978708
   46       54.218017
   47       54.454652
   48       55.343624
   49       58.120042
   50       58.860648
   51       59.019981
   52       60.112029
   53       61.696408
   54       62.329953
   55       62.638224
   56       64.175893
   57       64.281296
   58       64.409231
   59       65.244580
   60       65.945933
   61       69.351055
   62       69.774306
   63       70.597925
   64       70.818860
 
  0.3333333E+00  0.3333333E+00  0.0000000E+00  0.2777778E-01
    1       -4.282439
    2        0.781870
    3        3.357281
    4        3.357281
    5        6.412475
    6        7.663972
    7       13.021273
    8       13.021273
    9       15.587235
   10       15.627195
   11       18.700628
   12       19.214544
   13       19.214544
   14       20.729331
   15       21.941961
   16       22.048574
   17       22.048574
   18       24.850712
   19       28.622937
   20       30.290894
   21       31.176843
   22       31.176843
   23       32.298908
   24       33.311208
   25       33.557511
   26       34.601244
   27       34.601244
   28       40.774311
   29       41.181808
   30       41.385366
   31       41.385366
   32       42.180762
   33       44.115541
   34       44.115541
   35       45.706293
   36       45.791842
   37       45.791842
   38       47.202442
   39       48.359902
   40       49.213884
   41       49.213884
   42       49.424504
   43       51.114544
   44       53.979915
   45       54.359033
   46       54.359033
   47       57.022715
   48       58.648329
   49       59.325104
   50       59.341172
   51       59.372923
   52       59.372923
   53       63.994017
   54       63.994017
   55       64.370116
   56       66.131982
   57       66.240543
   58       67.235222
   59       67.235222
   60       69.447286
   61       69.447286
   62       69.832680
   63       70.013749
   64       71.797232
 
  0.5000000E+00  0.3333333E+00  0.0000000E+00  0.1111111E+00
    1       -3.111674
    2       -0.776943
    3        2.113757
    4        3.221101
    5        6.742039
    6        8.414559
    7       13.196820
    8       13.223583
    9       16.349898
   10       16.446684
   11       18.079841
   12       18.628866
   13       20.329163
   14       21.512913
   15       21.704685
   16       24.287923
   17       24.476792
   18       25.122331
   19       26.319041
   20       28.406348
   21       28.890322
   22       29.444715
   23       30.097601
   24       32.348646
   25       35.030508
   26       35.037646
   27       37.406125
   28       37.897410
   29       37.959101
   30       40.283983
   31       41.273305
   32       42.024541
   33       42.895950
   34       44.272644
   35       45.222780
   36       46.257746
   37       47.272071
   38       48.006330
   39       49.312739
   40       49.490279
   41       50.374646
   42       52.487748
   43       53.113384
   44       54.386796
   45       55.295132
   46       56.229217
   47       56.381757
   48       58.773181
   49       59.762636
   50       60.439849
   51       61.374514
   52       61.688299
   53       62.499113
   54       63.618627
   55       63.907131
   56       64.749811
   57       65.352547
   58       66.895176
   59       67.972777
   60       68.228047
   61       69.534591
   62       69.970230
   63       70.891571
   64       71.449356
 
 -0.3333333E+00  0.3333333E+00  0.0000000E+00  0.5555556E-01
    1       -2.909673
    2       -0.986852
    3        1.319065
    4        3.667526
    5        7.252313
    6       11.502690
    7       12.225060
    8       12.818040
    9       13.159900
   10       13.394250
   11       20.008946
   12       20.558715
   13       21.456009
   14       21.472902
   15       22.382269
   16       23.334413
   17       24.161233
   18       25.568827
   19       27.941950
   20       28.272700
   21       28.561860
   22       29.642592
   23       32.251143
   24       32.504939
   25       33.112637
   26       34.637991
   27       34.883232
   28       35.126614
   29       40.158386
   30       40.762234
   31       40.845512
   32       41.695896
   33       42.663836
   34       43.217969
   35       44.307270
   36       45.020993
   37       47.870761
   38       49.262345
   39       49.541374
   40       52.073832
   41       52.638729
   42       53.750985
   43       53.897711
   44       55.240282
   45       55.677317
   46       56.627942
   47       56.699080
   48       58.809608
   49       59.043373
   50       59.746064
   51       59.946133
   52       60.964681
   53       61.164319
   54       62.633238
   55       63.524228
   56       64.418020
   57       66.275743
   58       66.407672
   59       66.924674
   60       67.712361
   61       67.933216
   62       69.280324
   63       70.247302
   64       71.930964
 
  0.5000000E+00  0.5000000E+00  0.0000000E+00  0.1388889E-01
    1       -2.033097
    2       -2.033097
    3        2.921066
    4        2.921066
    5        6.381803
    6        6.381803
    7       15.857991
    8       15.857991
    9       16.728331
   10       16.728331
   11       18.285734
   12       18.285734
   13       18.753764
   14       18.753764
   15       24.494796
   16       24.494796
   17       25.350480
   18       25.350480
   19       25.911300
   20       25.911300
   21       27.172437
   22       27.172437
   23       31.215608
   24       31.215608
   25       35.229142
   26       35.229142
   27       39.880569
   28       39.880569
   29       39.930073
   30       39.930073
   31       41.519767
   32       41.519767
   33       43.947131
   34       43.947131
   35       45.251219
   36       45.251219
   37       46.372105
   38       46.372105
   39       47.474670
   40       47.474670
   41       50.721674
   42       50.721674
   43       54.735648
   44       54.735648
   45       56.182206
   46       56.182206
   47       59.277748
   48       59.277748
   49       61.860571
   50       61.860571
   51       62.856288
   52       62.856288
   53       62.973940
   54       62.973940
   55       63.272733
   56       63.272733
   57       65.672163
   58       65.672163
   59       66.923648
   60       66.923648
   61       67.179916
   62       67.179916
   63       69.443640
   64       69.443640
 
  0.5000000E+00  0.3333333E+00  0.1666667E+00  0.1111111E+00
    1       -3.893699
    2        0.144768
    3        2.176415
    4        3.471157
    5        8.569017
    6        9.402462
    7        9.973254
    8       12.815991
    9       14.741599
   10       15.627509
   11       18.750943
   12       18.910869
   13       19.548338
   14       20.629334
   15       22.272818
   16       23.586623
   17       25.279028
   18       26.695385
   19       26.704553
   20       28.368826
   21       29.922243
   22       30.193323
   23       32.264931
   24       33.243563
   25       33.985444
   26       35.758330
   27       37.036949
   28       37.415065
   29       38.139986
   30       38.592376
   31       39.797758
   32       42.563800
   33       43.629616
   34       44.531761
   35       45.252134
   36       45.903006
   37       48.070180
   38       48.290349
   39       49.010103
   40       49.587938
   41       51.227664
   42       51.616240
   43       52.517948
   44       54.185627
   45       54.466373
   46       56.109239
   47       56.732924
   48       57.193947
   49       58.975235
   50       60.684617
   51       60.920660
   52       61.602440
   53       63.076369
   54       63.443854
   55       63.863734
   56       64.530929
   57       65.173857
   58       65.419314
   59       67.888733
   60       67.988755
   61       69.339576
   62       69.948877
   63       71.396875
   64       71.459031
 
 -0.3333333E+00  0.3333333E+00  0.1666667E+00  0.1111111E+00
    1       -2.899045
    2       -1.064534
    3        1.733294
    4        2.996146
    5        9.052346
    6        9.283404
    7       11.812707
    8       12.250690
    9       13.303334
   10       16.842596
   11       17.687377
   12       19.118746
   13       21.984646
   14       22.583634
   15       22.714242
   16       23.657329
   17       24.232440
   18       26.229742
   19       26.612294
   20       27.369047
   21       28.740472
   22       31.308970
   23       31.410084
   24       31.595580
   25       34.066243
   26       35.290085
   27       35.919064
   28       36.534254
   29       36.997049
   30       38.272141
   31       39.561602
   32       42.153777
   33       43.584580
   34       45.555694
   35       45.710208
   36       46.753248
   37       48.107217
   38       48.430353
   39       49.915779
   40       50.354842
   41       51.087811
   42       52.062627
   43       53.946310
   44       54.750918
   45       56.162715
   46       56.920725
   47       57.442246
   48       58.172765
   49       59.610052
   50       60.494226
   51       60.992894
   52       61.491419
   53       61.879192
   54       62.535397
   55       62.986062
   56       63.929525
   57       65.208281
   58       65.753859
   59       67.915934
   60       68.360108
   61       68.927129
   62       69.702082
   63       69.830594
   64       71.280665
 
 -0.3333333E+00  0.5000000E+00  0.1666667E+00  0.5555556E-01
    1       -1.908737
    2       -1.908737
    3        2.099913
    4        2.099913
    5        8.449353
    6        8.449353
    7       12.494367
    8       12.494367
    9       16.323996
   10       16.323996
   11       18.696284
   12       18.696284
   13       22.165265
   14       22.165265
   15       22.937492
   16       22.937492
   17       24.482202
   18       24.482202
   19       27.170816
   20       27.170816
   21       28.959754
   22       28.959754
   23       30.475689
   24       30.475689
   25       35.609763
   26       35.609763
   27       36.540679
   28       36.540679
   29       38.000927
   30       38.000927
   31       42.584010
   32       42.584010
   33       43.158648
   34       43.158648
   35       46.286466
   36       46.286466
   37       48.205938
   38       48.205938
   39       48.962236
   40       48.962236
   41       53.038829
   42       53.038829
   43       54.351126
   44       54.351126
   45       56.300150
   46       56.300150
   47       56.575399
   48       56.575400
   49       60.134230
   50       60.134230
   51       61.386393
   52       61.386393
   53       63.358332
   54       63.358332
   55       64.270470
   56       64.270470
   57       65.685709
   58       65.685709
   59       68.003164
   60       68.003164
   61       69.714362
   62       69.714362
   63       70.903683
   64       70.903684
 
  0.0000000E+00  0.0000000E+00  0.0000000E+00  0.0000000E+00
    1       -6.194240
    2        5.797175
    3        5.797175
    4        5.797175
    5        8.310366
    6        8.310366
    7        8.310366
    8        9.119485
    9       13.480936
   10       13.480936
   11       13.503450
   12       16.887659
   13       16.887659
   14       16.887659
   15       20.878436
   16       28.794412
   17       28.794412
   18       28.794412
   19       29.961540
   20       29.961540
   21       31.507678
   22       31.507678
   23       31.507678
   24       34.990343
   25       34.990343
   26       34.990343
   27       40.580580
   28       40.580580
   29       40.580580
   30       43.903987
   31       44.388112
   32       44.388112
   33       46.322147
   34       46.322147
   35       47.919179
   36       47.919179
   37       47.919179
   38       49.653888
   39       49.653888
   40       49.653888
   41       50.213056
   42       50.653254
   43       50.653254
   44       50.653254
   45       50.751776
   46       50.751776
   47       50.751776
   48       52.120150
   49       52.120150
   50       52.120151
   51       55.976322
   52       57.167693
   53       57.167693
   54       57.167693
   55       57.392326
   56       57.392326
   57       57.392326
   58       62.363048
   59       63.474693
   60       72.144302
   61       72.144302
   62       75.197987
   63       75.197987
   64       75.197987
 
  0.5000000E-02  0.0000000E+00  0.5000000E-02  0.0000000E+00
    1       -6.193803
    2        5.794111
    3        5.795204
    4        5.795204
    5        8.309210
    6        8.312875
    7        8.312875
    8        9.122496
    9       13.477070
   10       13.481421
   11       13.505471
   12       16.888428
   13       16.888428
   14       16.890327
   15       20.881754
   16       28.787199
   17       28.787199
   18       28.794955
   19       29.955662
   20       29.957379
   21       31.510576
   22       31.512545
   23       31.512545
   24       34.993674
   25       34.993674
   26       34.996496
   27       40.577312
   28       40.577418
   29       40.577418
   30       43.906460
   31       44.380194
   32       44.386968
   33       46.309561
   34       46.321494
   35       47.918649
   36       47.920496
   37       47.920496
   38       49.640727
   39       49.640727
   40       49.658279
   41       50.224423
   42       50.639595
   43       50.639595
   44       50.659414
   45       50.752145
   46       50.752145
   47       50.753867
   48       52.122458
   49       52.149864
   50       52.149864
   51       55.962180
   52       57.072091
   53       57.072091
   54       57.183308
   55       57.389742
   56       57.490461
   57       57.490461
   58       62.367936
   59       63.477480
   60       72.117568
   61       72.144630
   62       75.196113
   63       75.196113
   64       75.209532
 
  0.1000000E-01  0.0000000E+00  0.1000000E-01  0.0000000E+00
    1       -6.192488
    2        5.784954
    3        5.789315
    4        5.789315
    5        8.305746
    6        8.320377
    7        8.320377
    8        9.131488
    9       13.465530
   10       13.482874
   11       13.511526
   12       16.890735
   13       16.890735
   14       16.898282
   15       20.891703
   16       28.765756
   17       28.765756
   18       28.796584
   19       29.938115
   20       29.944997
   21       31.519167
   22       31.526949
   23       31.526949
   24       35.003671
   25       35.003671
   26       35.014866
   27       40.567534
   28       40.567943
   29       40.567943
   30       43.913827
   31       44.356555
   32       44.383541
   33       46.272443
   34       46.319543
   35       47.917046
   36       47.924420
   37       47.924420
   38       49.602507
   39       49.602507
   40       49.670604
   41       50.258752
   42       50.584846
   43       50.584846
   44       50.677785
   45       50.760138
   46       50.771503
   47       50.771503
   48       52.129374
   49       52.233283
   50       52.233283
   51       55.921792
   52       56.914705
   53       56.914705
   54       57.228133
   55       57.382032
   56       57.655450
   57       57.655450
   58       62.382558
   59       63.485834
   60       72.039293
   61       72.145611
   62       75.190426
   63       75.190426
   64       75.242391
 
  0.1500000E-01  0.0000000E+00  0.1500000E-01  0.0000000E+00
    1       -6.190293
    2        5.769808
    3        5.779581
    4        5.779581
    5        8.299994
    6        8.332799
    7        8.332799
    8        9.146342
    9       13.446498
   10       13.485297
   11       13.521596
   12       16.894581
   13       16.894581
   14       16.911373
   15       20.908267
   16       28.730639
   17       28.730639
   18       28.799301
   19       29.909162
   20       29.924685
   21       31.533162
   22       31.550322
   23       31.550322
   24       35.020342
   25       35.020342
   26       35.045188
   27       40.551317
   28       40.552179
   29       40.552179
   30       43.925931
   31       44.317527
   32       44.377846
   33       46.212596
   34       46.316315
   35       47.914334
   36       47.930863
   37       47.930863
   38       49.542294
   39       49.542294
   40       49.688738
   41       50.316436
   42       50.492061
   43       50.492061
   44       50.708038
   45       50.770572
   46       50.816399
   47       50.816399
   48       52.140884
   49       52.357789
   50       52.357789
   51       55.860096
   52       56.750280
   53       56.750280
   54       57.297274
   55       57.369322
   56       57.832555
   57       57.832555
   58       62.406800
   59       63.499736
   60       71.914606
   61       72.147244
   62       75.180740
   63       75.180740
   64       75.291922
 
  0.2000000E-01  0.0000000E+00  0.2000000E-01  0.0000000E+00
    1       -6.187218
    2        5.748840
    3        5.766117
    4        5.766117
    5        8.291981
    6        8.350022
    7        8.350022
    8        9.166864
    9       13.420260
   10       13.488689
   11       13.535650
   12       16.899964
   13       16.899964
   14       16.929363