  96  96   0   0
  0.2080188E+02  0.1257760E-08  0.1245754E-08  0.1274818E-08  0.5000000E-15
  1.000000000000000E-004
  CAR 
 MAPbI3-Cubic                            
      8.89270179    -19.53392216  301      1.43071300      1.00000000
    -19.534  0.0000E+00  0.0000E+00
    -19.439  0.0000E+00  0.0000E+00
    -19.344  0.0000E+00  0.0000E+00
    -19.250  0.0000E+00  0.0000E+00
    -19.155  0.0000E+00  0.0000E+00
    -19.060  0.0000E+00  0.0000E+00
    -18.965  0.0000E+00  0.0000E+00
    -18.871  0.0000E+00  0.0000E+00
    -18.776  0.0000E+00  0.0000E+00
    -18.681  0.0000E+00  0.0000E+00
    -18.586  0.0000E+00  0.0000E+00
    -18.492  0.0000E+00  0.0000E+00
    -18.397  0.0000E+00  0.0000E+00
    -18.302  0.0000E+00  0.0000E+00
    -18.207  0.0000E+00  0.1600E+02
    -18.113  0.0000E+00  0.1600E+02
    -18.018  0.0000E+00  0.1600E+02
    -17.923  0.0000E+00  0.1600E+02
    -17.828  0.0000E+00  0.1600E+02
    -17.734  0.0000E+00  0.1600E+02
    -17.639  0.0000E+00  0.1600E+02
    -17.544  0.0000E+00  0.1600E+02
    -17.449  0.0000E+00  0.1600E+02
    -17.355  0.0000E+00  0.1600E+02
    -17.260  0.0000E+00  0.1600E+02
    -17.165  0.0000E+00  0.1600E+02
    -17.070  0.0000E+00  0.1600E+02
    -16.976  0.0000E+00  0.1600E+02
    -16.881  0.0000E+00  0.1600E+02
    -16.786  0.0000E+00  0.1600E+02
    -16.691  0.0000E+00  0.1600E+02
    -16.597  0.0000E+00  0.1600E+02
    -16.502  0.0000E+00  0.1600E+02
    -16.407  0.0000E+00  0.1600E+02
    -16.312  0.0000E+00  0.1600E+02
    -16.217  0.0000E+00  0.1600E+02
    -16.123  0.0000E+00  0.1600E+02
    -16.028  0.0000E+00  0.1600E+02
    -15.933  0.0000E+00  0.1600E+02
    -15.838  0.0000E+00  0.1600E+02
    -15.744  0.0000E+00  0.1600E+02
    -15.649  0.0000E+00  0.1600E+02
    -15.554  0.0000E+00  0.1600E+02
    -15.459  0.0000E+00  0.1600E+02
    -15.365  0.0000E+00  0.1600E+02
    -15.270  0.0000E+00  0.1600E+02
    -15.175  0.0000E+00  0.1600E+02
    -15.080  0.5177E+01  0.3205E+02
    -14.986  0.0000E+00  0.9600E+02
    -14.891  0.0000E+00  0.9600E+02
    -14.796  0.0000E+00  0.9600E+02
    -14.701  0.0000E+00  0.9600E+02
    -14.607  0.0000E+00  0.9600E+02
    -14.512  0.0000E+00  0.9600E+02
    -14.417  0.0000E+00  0.9600E+02
    -14.322  0.0000E+00  0.9600E+02
    -14.228  0.0000E+00  0.9600E+02
    -14.133  0.0000E+00  0.9600E+02
    -14.038  0.0000E+00  0.9600E+02
    -13.943  0.0000E+00  0.9600E+02
    -13.849  0.0000E+00  0.9600E+02
    -13.754  0.0000E+00  0.9600E+02
    -13.659  0.0000E+00  0.9600E+02
    -13.564  0.0000E+00  0.9600E+02
    -13.470  0.0000E+00  0.9600E+02
    -13.375  0.0000E+00  0.9600E+02
    -13.280  0.0000E+00  0.9600E+02
    -13.185  0.0000E+00  0.9600E+02
    -13.091  0.0000E+00  0.9600E+02
    -12.996  0.0000E+00  0.9600E+02
    -12.901  0.0000E+00  0.9600E+02
    -12.806  0.0000E+00  0.9600E+02
    -12.712  0.0000E+00  0.9600E+02
    -12.617  0.0000E+00  0.9600E+02
    -12.522  0.0000E+00  0.9600E+02
    -12.427  0.0000E+00  0.9600E+02
    -12.333  0.0000E+00  0.9600E+02
    -12.238  0.0000E+00  0.9600E+02
    -12.143  0.0000E+00  0.9600E+02
    -12.048  0.0000E+00  0.9600E+02
    -11.953  0.0000E+00  0.9600E+02
    -11.859  0.0000E+00  0.9600E+02
    -11.764  0.0000E+00  0.9600E+02
    -11.669  0.0000E+00  0.9600E+02
    -11.574  0.0000E+00  0.9600E+02
    -11.480  0.0000E+00  0.9600E+02
    -11.385  0.0000E+00  0.9600E+02
    -11.290  0.6324E-11  0.1040E+03
    -11.195  0.0000E+00  0.1120E+03
    -11.101  0.0000E+00  0.1120E+03
    -11.006  0.0000E+00  0.1120E+03
    -10.911  0.0000E+00  0.1120E+03
    -10.816  0.0000E+00  0.1121E+03
    -10.722  0.4690E+01  0.1141E+03
    -10.627  0.4688E+01  0.1184E+03
    -10.532  0.3268E+01  0.1243E+03
    -10.437  0.1414E+01  0.1283E+03
    -10.343  0.1383E+02  0.1326E+03
    -10.248  0.1159E-05  0.1399E+03
    -10.153  0.4690E+01  0.1436E+03
    -10.058  0.2638E+02  0.1475E+03
     -9.964  0.6267E+01  0.1558E+03
     -9.869  0.0000E+00  0.1600E+03
     -9.774  0.0000E+00  0.1600E+03
     -9.679  0.0000E+00  0.1600E+03
     -9.585  0.0000E+00  0.1600E+03
     -9.490  0.0000E+00  0.1600E+03
     -9.395  0.0000E+00  0.1600E+03
     -9.300  0.0000E+00  0.1600E+03
     -9.206  0.0000E+00  0.1600E+03
     -9.111  0.0000E+00  0.1600E+03
     -9.016  0.0000E+00  0.1600E+03
     -8.921  0.0000E+00  0.1600E+03
     -8.827  0.0000E+00  0.1600E+03
     -8.732  0.0000E+00  0.1600E+03
     -8.637  0.0000E+00  0.1600E+03
     -8.542  0.0000E+00  0.1600E+03
     -8.448  0.0000E+00  0.1600E+03
     -8.353  0.0000E+00  0.1600E+03
     -8.258  0.0000E+00  0.1600E+03
     -8.163  0.0000E+00  0.1600E+03
     -8.069  0.0000E+00  0.1600E+03
     -7.974  0.0000E+00  0.1600E+03
     -7.879  0.0000E+00  0.1600E+03
     -7.784  0.0000E+00  0.1600E+03
     -7.689  0.3629E-10  0.1680E+03
     -7.595  0.0000E+00  0.1880E+03
     -7.500  0.0000E+00  0.1920E+03
     -7.405  0.0000E+00  0.1920E+03
     -7.310  0.0000E+00  0.1920E+03
     -7.216  0.0000E+00  0.1920E+03
     -7.121  0.0000E+00  0.1920E+03
     -7.026  0.0000E+00  0.1921E+03
     -6.931  0.3748E+00  0.1921E+03
     -6.837  0.0000E+00  0.1925E+03
     -6.742  0.0000E+00  0.1934E+03
     -6.647  0.4326E+00  0.1942E+03
     -6.552  0.1564E+01  0.1946E+03
     -6.458  0.0000E+00  0.1964E+03
     -6.363  0.1563E+01  0.1988E+03
     -6.268  0.2343E+01  0.1999E+03
     -6.173  0.0000E+00  0.2015E+03
     -6.079  0.1054E-11  0.2034E+03
     -5.984  0.2132E-08  0.2053E+03
     -5.889  0.4501E-01  0.2063E+03
     -5.794  0.9507E+01  0.2133E+03
     -5.700  0.0000E+00  0.2226E+03
     -5.605  0.0000E+00  0.2235E+03
     -5.510  0.0000E+00  0.2239E+03
     -5.415  0.1845E-09  0.2239E+03
     -5.321  0.0000E+00  0.2240E+03
     -5.226  0.0000E+00  0.2240E+03
     -5.131  0.0000E+00  0.2240E+03
     -5.036  0.0000E+00  0.2240E+03
     -4.942  0.0000E+00  0.2240E+03
     -4.847  0.0000E+00  0.2240E+03
     -4.752  0.0000E+00  0.2240E+03
     -4.657  0.0000E+00  0.2240E+03
     -4.563  0.0000E+00  0.2240E+03
     -4.468  0.0000E+00  0.2240E+03
     -4.373  0.0000E+00  0.2240E+03
     -4.278  0.0000E+00  0.2240E+03
     -4.184  0.0000E+00  0.2240E+03
     -4.089  0.0000E+00  0.2240E+03
     -3.994  0.0000E+00  0.2240E+03
     -3.899  0.0000E+00  0.2240E+03
     -3.805  0.0000E+00  0.2240E+03
     -3.710  0.0000E+00  0.2240E+03
     -3.615  0.7832E+00  0.2241E+03
     -3.520  0.3701E+02  0.2457E+03
     -3.426  0.0000E+00  0.2560E+03
     -3.331  0.0000E+00  0.2560E+03
     -3.236  0.0000E+00  0.2560E+03
     -3.141  0.0000E+00  0.2560E+03
     -3.046  0.0000E+00  0.2560E+03
     -2.952  0.0000E+00  0.2560E+03
     -2.857  0.0000E+00  0.2560E+03
     -2.762  0.0000E+00  0.2560E+03
     -2.667  0.0000E+00  0.2560E+03
     -2.573  0.0000E+00  0.2560E+03
     -2.478  0.0000E+00  0.2560E+03
     -2.383  0.0000E+00  0.2560E+03
     -2.288  0.0000E+00  0.2560E+03
     -2.194  0.0000E+00  0.2560E+03
     -2.099  0.4594E+01  0.2565E+03
     -2.004  0.0000E+00  0.2587E+03
     -1.909  0.0000E+00  0.2616E+03
     -1.815  0.2277E-02  0.2635E+03
     -1.720  0.6254E+01  0.2663E+03
     -1.625  0.1563E+01  0.2689E+03
     -1.530  0.8679E-16  0.2726E+03
     -1.436  0.3127E+01  0.2760E+03
     -1.341  0.1563E+01  0.2788E+03
     -1.246  0.0000E+00  0.2799E+03
     -1.151  0.0000E+00  0.2800E+03
     -1.057  0.8678E-09  0.2800E+03
     -0.962  0.1308E-02  0.2813E+03
     -0.867  0.7608E+01  0.2858E+03
     -0.772  0.6027E+01  0.2926E+03
     -0.678  0.1028E+02  0.2984E+03
     -0.583  0.3435E+01  0.3028E+03
     -0.488  0.0000E+00  0.3057E+03
     -0.393  0.6647E+01  0.3102E+03
     -0.299  0.6998E+01  0.3151E+03
     -0.204  0.3331E+01  0.3214E+03
     -0.109  0.6693E+01  0.3285E+03
     -0.014  0.4690E+01  0.3342E+03
      0.080  0.2121E+01  0.3403E+03
      0.175  0.4195E-12  0.3484E+03
      0.270  0.3125E+01  0.3581E+03
      0.365  0.6548E+01  0.3648E+03
      0.459  0.6402E+01  0.3718E+03
      0.554  0.8021E+01  0.3814E+03
      0.649  0.2551E+01  0.3875E+03
      0.744  0.3127E+01  0.3931E+03
      0.838  0.0000E+00  0.3961E+03
      0.933  0.2345E+01  0.3979E+03
      1.028  0.0000E+00  0.3993E+03
      1.123  0.0000E+00  0.3993E+03
      1.218  0.0000E+00  0.3998E+03
      1.312  0.0000E+00  0.3999E+03
      1.407  0.0000E+00  0.4000E+03
      1.502  0.0000E+00  0.4000E+03
      1.597  0.0000E+00  0.4000E+03
      1.691  0.0000E+00  0.4000E+03
      1.786  0.0000E+00  0.4000E+03
      1.881  0.0000E+00  0.4000E+03
      1.976  0.0000E+00  0.4000E+03
      2.070  0.0000E+00  0.4000E+03
      2.165  0.0000E+00  0.4000E+03
      2.260  0.0000E+00  0.4000E+03
      2.355  0.0000E+00  0.4000E+03
      2.449  0.0000E+00  0.4000E+03
      2.544  0.0000E+00  0.4000E+03
      2.639  0.0000E+00  0.4000E+03
      2.734  0.0000E+00  0.4000E+03
      2.828  0.0000E+00  0.4000E+03
      2.923  0.0000E+00  0.4000E+03
      3.018  0.0000E+00  0.4005E+03
      3.113  0.0000E+00  0.4007E+03
      3.207  0.1563E+01  0.4019E+03
      3.302  0.1563E+01  0.4030E+03
      3.397  0.3127E+01  0.4041E+03
      3.492  0.0000E+00  0.4059E+03
      3.586  0.0000E+00  0.4067E+03
      3.681  0.3378E+00  0.4077E+03
      3.776  0.0000E+00  0.4084E+03
      3.871  0.0000E+00  0.4093E+03
      3.965  0.1563E+01  0.4104E+03
      4.060  0.3127E+01  0.4116E+03
      4.155  0.1563E+01  0.4138E+03
      4.250  0.3127E+01  0.4160E+03
      4.344  0.3724E+01  0.4180E+03
      4.439  0.2338E-03  0.4207E+03
      4.534  0.0000E+00  0.4227E+03
      4.629  0.0000E+00  0.4239E+03
      4.723  0.0000E+00  0.4240E+03
      4.818  0.0000E+00  0.4240E+03
      4.913  0.0000E+00  0.4240E+03
      5.008  0.7817E+00  0.4241E+03
      5.102  0.0000E+00  0.4241E+03
      5.197  0.1563E+01  0.4247E+03
      5.292  0.3560E+01  0.4263E+03
      5.387  0.3249E+01  0.4290E+03
      5.482  0.7813E+01  0.4330E+03
      5.576  0.8785E+01  0.4364E+03
      5.671  0.3127E+01  0.4388E+03
      5.766  0.7623E+00  0.4408E+03
      5.861  0.2145E+01  0.4426E+03
      5.955  0.2934E+01  0.4461E+03
      6.050  0.8417E-02  0.4490E+03
      6.145  0.3289E+01  0.4532E+03
      6.240  0.1226E+01  0.4577E+03
      6.334  0.2345E+01  0.4612E+03
      6.429  0.1521E+01  0.4645E+03
      6.524  0.3857E+01  0.4693E+03
      6.619  0.2861E+01  0.4741E+03
      6.713  0.1310E+01  0.4783E+03
      6.808  0.4617E+01  0.4815E+03
      6.903  0.3130E+01  0.4850E+03
      6.998  0.1561E+01  0.4888E+03
      7.092  0.1598E+01  0.4930E+03
      7.187  0.4768E+01  0.4978E+03
      7.282  0.3850E+01  0.5012E+03
      7.377  0.3324E+01  0.5054E+03
      7.471  0.1515E+01  0.5093E+03
      7.566  0.6476E-02  0.5114E+03
      7.661  0.0000E+00  0.5120E+03
      7.756  0.0000E+00  0.5120E+03
      7.850  0.0000E+00  0.5120E+03
      7.945  0.0000E+00  0.5120E+03
      8.040  0.0000E+00  0.5120E+03
      8.135  0.0000E+00  0.5120E+03
      8.229  0.0000E+00  0.5120E+03
      8.324  0.0000E+00  0.5120E+03
      8.419  0.0000E+00  0.5120E+03
      8.514  0.0000E+00  0.5120E+03
      8.608  0.0000E+00  0.5120E+03
      8.703  0.0000E+00  0.5120E+03
      8.798  0.0000E+00  0.5120E+03
      8.893  0.0000E+00  0.5120E+03
