 vasp.5.4.1 24Jun15 (build Nov 25 2015 16:01:35) complex                        
  
 executed on         CrayXC-Intel date 2016.06.10  17:24:33
 running on   24 total cores
 distrk:  each k-point on   24 cores,    1 groups
 distr:  one band on NCORES_PER_BAND=   3 cores,    8 groups


--------------------------------------------------------------------------------------------------------


 INCAR:
 POTCAR:    PAW_PBE C 08Apr2002                   
 POTCAR:    PAW_PBE N 08Apr2002                   
 POTCAR:    PAW_PBE H 15Jun2001                   
 POTCAR:    PAW_PBE Pb_d 06Sep2000                
 POTCAR:    PAW_PBE I 08Apr2002                   
 POTCAR:    PAW_PBE C 08Apr2002                   
   VRHFIN =C: s2p2                                                              
   LEXCH  = PE                                                                  
   EATOM  =   147.1560 eV,   10.8157 Ry                                         
                                                                                
   TITEL  = PAW_PBE C 08Apr2002                                                 
   LULTRA =        F    use ultrasoft PP ?                                      
   IUNSCR =        1    unscreen: 0-lin 1-nonlin 2-no                           
   RPACOR =    1.200    partial core radius                                     
   POMASS =   12.011; ZVAL   =    4.000    mass and valenz                      
   RCORE  =    1.500    outmost cutoff radius                                   
   RWIGS  =    1.630; RWIGS  =    0.863    wigner-seitz radius (au A)           
   ENMAX  =  400.000; ENMIN  =  300.000 eV                                      
   ICORE  =        2    local potential                                         
   LCOR   =        T    correct aug charges                                     
   LPAW   =        T    paw PP                                                  
   EAUG   =  644.873                                                            
   DEXC   =    0.000                                                            
   RMAX   =    1.529    core radius for proj-oper                               
   RAUG   =    1.300    factor for augmentation sphere                          
   RDEP   =    1.501    radius for radial grids                                 
   RDEPT  =    1.300    core radius for aug-charge                              
                                                                                
   Atomic configuration                                                         
    4 entries                                                                   
     n  l   j            E        occ.                                          
     1  0  0.50      -273.3789   2.0000                                         
     2  0  0.50       -13.7508   2.0000                                         
     2  1  0.50        -5.2854   2.0000                                         
     3  2  1.50        -5.4423   0.0000                                         
   Description                                                                  
     l       E           TYP  RCUT    TYP  RCUT                                 
     0    -13.7508458     23  1.200                                             
     0     -8.2022199     23  1.200                                             
     1     -5.2854383     23  1.500                                             
     1     34.0145650     23  1.500                                             
     2     -5.4423304      7  1.500                                             
  local pseudopotential read in
  partial core-charges read in
  partial kinetic energy density read in
  atomic valenz-charges read in
  non local Contribution for L=           0  read in
    real space projection operators read in
  non local Contribution for L=           0  read in
    real space projection operators read in
  non local Contribution for L=           1  read in
    real space projection operators read in
  non local Contribution for L=           1  read in
    real space projection operators read in
    PAW grid and wavefunctions read in
 
   number of l-projection  operators is LMAX  =           4
   number of lm-projection operators is LMMAX =           8
 
 POTCAR:    PAW_PBE N 08Apr2002                   
   VRHFIN =N: s2p3                                                              
   LEXCH  = PE                                                                  
   EATOM  =   264.5486 eV,   19.4438 Ry                                         
                                                                                
   TITEL  = PAW_PBE N 08Apr2002                                                 
   LULTRA =        F    use ultrasoft PP ?                                      
   IUNSCR =        1    unscreen: 0-lin 1-nonlin 2-no                           
   RPACOR =    1.200    partial core radius                                     
   POMASS =   14.001; ZVAL   =    5.000    mass and valenz                      
   RCORE  =    1.500    outmost cutoff radius                                   
   RWIGS  =    1.400; RWIGS  =    0.741    wigner-seitz radius (au A)           
   ENMAX  =  400.000; ENMIN  =  300.000 eV                                      
   ICORE  =        2    local potential                                         
   LCOR   =        T    correct aug charges                                     
   LPAW   =        T    paw PP                                                  
   EAUG   =  627.112                                                            
   DEXC   =    0.000                                                            
   RMAX   =    1.529    core radius for proj-oper                               
   RAUG   =    1.300    factor for augmentation sphere                          
   RDEP   =    1.514    radius for radial grids                                 
   RDEPT  =    1.338    core radius for aug-charge                              
                                                                                
   Atomic configuration                                                         
    4 entries                                                                   
     n  l   j            E        occ.                                          
     1  0  0.50      -384.7179   2.0000                                         
     2  0  0.50       -18.5828   2.0000                                         
     2  1  0.50        -7.0898   3.0000                                         
     3  2  1.50        -6.8029   0.0000                                         
   Description                                                                  
     l       E           TYP  RCUT    TYP  RCUT                                 
     0    -18.5828119     23  1.200                                             
     0    -13.5018863     23  1.200                                             
     1     -7.0897853     23  1.500                                             
     1      9.5240782     23  1.500                                             
     2     -6.8029130      7  1.500                                             
  local pseudopotential read in
  partial core-charges read in
  partial kinetic energy density read in
  atomic valenz-charges read in
  non local Contribution for L=           0  read in
    real space projection operators read in
  non local Contribution for L=           0  read in
    real space projection operators read in
  non local Contribution for L=           1  read in
    real space projection operators read in
  non local Contribution for L=           1  read in
    real space projection operators read in
    PAW grid and wavefunctions read in
 
   number of l-projection  operators is LMAX  =           4
   number of lm-projection operators is LMMAX =           8
 
 POTCAR:    PAW_PBE H 15Jun2001                   
   VRHFIN =H: ultrasoft test                                                    
   LEXCH  = PE                                                                  
   EATOM  =    12.4884 eV,    0.9179 Ry                                         
                                                                                
   TITEL  = PAW_PBE H 15Jun2001                                                 
   LULTRA =        F    use ultrasoft PP ?                                      
   IUNSCR =        0    unscreen: 0-lin 1-nonlin 2-no                           
   RPACOR =    0.000    partial core radius                                     
   POMASS =    1.000; ZVAL   =    1.000    mass and valenz                      
   RCORE  =    1.100    outmost cutoff radius                                   
   RWIGS  =    0.700; RWIGS  =    0.370    wigner-seitz radius (au A)           
   ENMAX  =  250.000; ENMIN  =  200.000 eV                                      
   RCLOC  =    0.701    cutoff for local pot                                    
   LCOR   =        T    correct aug charges                                     
   LPAW   =        T    paw PP                                                  
   EAUG   =  400.000                                                            
   RMAX   =    1.123    core radius for proj-oper                               
   RAUG   =    1.200    factor for augmentation sphere                          
   RDEP   =    1.112    radius for radial grids                                 
   RDEPT  =    0.926    core radius for aug-charge                              
                                                                                
   Atomic configuration                                                         
    2 entries                                                                   
     n  l   j            E        occ.                                          
     1  0  0.50        -6.4927   1.0000                                         
     2  1  0.50        -3.4015   0.0000                                         
   Description                                                                  
     l       E           TYP  RCUT    TYP  RCUT                                 
     0     -6.4927494     23  1.100                                             
     0      6.8029130     23  1.100                                             
     1     -4.0817478     23  1.100                                             
  local pseudopotential read in
  atomic valenz-charges read in
  non local Contribution for L=           0  read in
    real space projection operators read in
  non local Contribution for L=           0  read in
    real space projection operators read in
  non local Contribution for L=           1  read in
    real space projection operators read in
    PAW grid and wavefunctions read in
 
   number of l-projection  operators is LMAX  =           3
   number of lm-projection operators is LMMAX =           5
 
 POTCAR:    PAW_PBE Pb_d 06Sep2000                
   VRHFIN =Pb:                                                                  
   LEXCH  = PE                                                                  
   EATOM  =  1661.6185 eV,  122.1255 Ry                                         
                                                                                
   TITEL  = PAW_PBE Pb_d 06Sep2000                                              
   LULTRA =        F    use ultrasoft PP ?                                      
   IUNSCR =        1    unscreen: 0-lin 1-nonlin 2-no                           
   RPACOR =    2.200    partial core radius                                     
   POMASS =  207.200; ZVAL   =   14.000    mass and valenz                      
   RCORE  =    2.500    outmost cutoff radius                                   
   RWIGS  =    3.260; RWIGS  =    1.725    wigner-seitz radius (au A)           
   ENMAX  =  237.835; ENMIN  =  178.376 eV                                      
   ICORE  =        3    local potential                                         
   LCOR   =        T    correct aug charges                                     
   LPAW   =        T    paw PP                                                  
   EAUG   =  391.914                                                            
   DEXC   =    0.000                                                            
   RMAX   =    2.565    core radius for proj-oper                               
   RAUG   =    1.300    factor for augmentation sphere                          
   RDEP   =    2.643    radius for radial grids                                 
   RDEPT  =    2.092    core radius for aug-charge                              
                                                                                
   Atomic configuration                                                         
   16 entries                                                                   
     n  l   j            E        occ.                                          
     1  0  0.50    -88091.8466   2.0000                                         
     2  0  0.50    -15753.4197   2.0000                                         
     2  1  1.50    -13508.1797   6.0000                                         
     3  0  0.50     -3781.7194   2.0000                                         
     3  1  1.50     -3138.2529   6.0000                                         
     3  2  2.50     -2483.2977  10.0000                                         
     4  0  0.50      -856.2895   2.0000                                         
     4  1  1.50      -645.4942   6.0000                                         
     4  2  2.50      -401.8768  10.0000                                         
     4  3  3.50      -132.9059  14.0000                                         
     5  0  0.50      -144.0950   2.0000                                         
     5  1  1.50       -85.7879   6.0000                                         
     5  2  2.50       -21.1769  10.0000                                         
     6  0  0.50       -12.0372   2.0000                                         
     6  1  1.50        -3.4971   2.0000                                         
     5  3  2.50        -2.7212   0.0000                                         
   Description                                                                  
     l       E           TYP  RCUT    TYP  RCUT                                 
     2    -21.1768523     23  2.500                                             
     2      1.3605826     23  2.500                                             
     0    -12.0371562     23  2.500                                             
     0     13.6058260     23  2.500                                             
     1     -3.4971339     23  2.500                                             
     1     13.6058260     23  2.500                                             
     3     -1.3605826      7  2.500                                             
  local pseudopotential read in
  partial core-charges read in
  partial kinetic energy density read in
  atomic valenz-charges read in
  non local Contribution for L=           2  read in
    real space projection operators read in
  non local Contribution for L=           2  read in
    real space projection operators read in
  non local Contribution for L=           0  read in
    real space projection operators read in
  non local Contribution for L=           0  read in
    real space projection operators read in
  non local Contribution for L=           1  read in
    real space projection operators read in
  non local Contribution for L=           1  read in
    real space projection operators read in
    PAW grid and wavefunctions read in
 
   number of l-projection  operators is LMAX  =           6
   number of lm-projection operators is LMMAX =          18
 
 POTCAR:    PAW_PBE I 08Apr2002                   
   VRHFIN =I : s2p5                                                             
   LEXCH  = PE                                                                  
   EATOM  =   315.8678 eV,   23.2156 Ry                                         
                                                                                
   TITEL  = PAW_PBE I 08Apr2002                                                 
   LULTRA =        F    use ultrasoft PP ?                                      
   IUNSCR =        1    unscreen: 0-lin 1-nonlin 2-no                           
   RPACOR =    2.200    partial core radius                                     
   POMASS =  126.904; ZVAL   =    7.000    mass and valenz                      
   RCORE  =    2.300    outmost cutoff radius                                   
   RWIGS  =    2.810; RWIGS  =    1.487    wigner-seitz radius (au A)           
   ENMAX  =  175.647; ENMIN  =  131.735 eV                                      
   ICORE  =        3    local potential                                         
   LCOR   =        T    correct aug charges                                     
   LPAW   =        T    paw PP                                                  
   EAUG   =  370.139                                                            
   DEXC   =    0.000                                                            
   RMAX   =    2.359    core radius for proj-oper                               
   RAUG   =    1.300    factor for augmentation sphere                          
   RDEP   =    2.392    radius for radial grids                                 
   RDEPT  =    2.170    core radius for aug-charge                              
                                                                                
   Atomic configuration                                                         
   13 entries                                                                   
     n  l   j            E        occ.                                          
     1  0  0.50    -32976.3739   2.0000                                         
     2  0  0.50     -5094.5933   2.0000                                         
     2  1  1.50     -4572.0131   6.0000                                         
     3  0  0.50     -1028.2813   2.0000                                         
     3  1  1.50      -859.0250   6.0000                                         
     3  2  2.50      -605.7620  10.0000                                         
     4  0  0.50      -180.5540   2.0000                                         
     4  1  1.50      -127.5306   6.0000                                         
     4  2  2.50       -50.2720  10.0000                                         
     5  0  0.50       -17.4058   2.0000                                         
     5  1  0.50        -7.0851   5.0000                                         
     5  2  1.50        -7.0750   0.0000                                         
     4  3  2.50        -7.0750   0.0000                                         
   Description                                                                  
     l       E           TYP  RCUT    TYP  RCUT                                 
     0    -17.4058016     23  2.300                                             
     0    -18.7663842     23  2.300                                             
     1     -7.0850686     23  2.300                                             
     1     -4.2150896     23  2.300                                             
     2     -7.0750295     23  2.300                                             
     3     -1.3605826     23  2.300                                             
  local pseudopotential read in
  partial core-charges read in
  partial kinetic energy density read in
  atomic valenz-charges read in
  non local Contribution for L=           0  read in
    real space projection operators read in
  non local Contribution for L=           0  read in
    real space projection operators read in
  non local Contribution for L=           1  read in
    real space projection operators read in
  non local Contribution for L=           1  read in
    real space projection operators read in
  non local Contribution for L=           2  read in
    real space projection operators read in
    PAW grid and wavefunctions read in
 
   number of l-projection  operators is LMAX  =           5
   number of lm-projection operators is LMMAX =          13
 

 ----------------------------------------------------------------------------- 
|                                                                             |
|  ADVICE TO THIS USER RUNNING 'VASP/VAMP'   (HEAR YOUR MASTER'S VOICE ...):  |
|                                                                             |
|      You have a (more or less) 'large supercell' and for larger cells       |
|      it might be more efficient to use real space projection opertators     |
|      So try LREAL= Auto  in the INCAR   file.                               |
|      Mind: At the moment your POTCAR file does not contain real space       |
|       projectors, and has to be modified,  BUT if you                       |
|      want to do an extremely  accurate calculation you might also keep the  |
|      reciprocal projection scheme          (i.e. LREAL=.FALSE.)             |
|                                                                             |
 ----------------------------------------------------------------------------- 


 ----------------------------------------------------------------------------- 
|                                                                             |
|  ADVICE TO THIS USER RUNNING 'VASP/VAMP'   (HEAR YOUR MASTER'S VOICE ...):  |
|                                                                             |
|      You enforced a specific xc-type in the INCAR file,                     |
|      a different type was found on the POTCAR file                          |
|          I HOPE YOU KNOW, WHAT YOU ARE  DOING                               |
|                                                                             |
 ----------------------------------------------------------------------------- 

  PAW_PBE C 08Apr2002                   :
 energy of atom  1       EATOM= -147.1560
 kinetic energy error for atom=    0.0032 (will be added to EATOM!!)
  PAW_PBE N 08Apr2002                   :
 energy of atom  2       EATOM= -264.5486
 kinetic energy error for atom=    0.0061 (will be added to EATOM!!)
  PAW_PBE H 15Jun2001                   :
 energy of atom  3       EATOM=  -12.4884
 kinetic energy error for atom=    0.0002 (will be added to EATOM!!)
  PAW_PBE Pb_d 06Sep2000                :
 energy of atom  4       EATOM=-1661.6185
 kinetic energy error for atom=    0.0012 (will be added to EATOM!!)
  PAW_PBE I 08Apr2002                   :
 energy of atom  5       EATOM= -315.8678
 kinetic energy error for atom=    0.0003 (will be added to EATOM!!)
 
 
 POSCAR: C N H Pb I                              
  positions in direct lattice
  No initial velocities read in
 exchange correlation table for  LEXCH =       14
   RHO(1)=    0.500       N(1)  =     2000
   RHO(2)=  100.500       N(2)  =     4000
 


--------------------------------------------------------------------------------------------------------


 ion  position               nearest neighbor table
   1  0.203  0.250  0.220-  33 1.10  25 1.10  17 1.10   9 1.49
   2  0.691  0.250  0.238-  34 1.10  26 1.10  18 1.10  10 1.49
   3  0.191  0.750  0.238-  35 1.10  27 1.10  19 1.10  11 1.49
   4  0.703  0.750  0.220-  36 1.10  28 1.10  20 1.10  12 1.49
   5  0.203  0.250  0.720-  37 1.10  29 1.10  21 1.10  13 1.49
   6  0.691  0.250  0.738-  38 1.10  30 1.10  22 1.10  14 1.49
   7  0.191  0.750  0.738-  39 1.10  31 1.10  23 1.10  15 1.49
   8  0.703  0.750  0.720-  40 1.10  32 1.10  24 1.10  16 1.49
   9  0.306  0.250  0.274-  57 1.04  41 1.05  49 1.05   1 1.49
  10  0.803  0.250  0.273-  42 1.05  50 1.05  58 1.05   2 1.49
  11  0.303  0.750  0.273-  43 1.05  51 1.05  59 1.05   3 1.49
  12  0.806  0.750  0.274-  60 1.04  44 1.05  52 1.05   4 1.49
  13  0.306  0.250  0.774-  61 1.04  45 1.05  53 1.05   5 1.49
  14  0.803  0.250  0.773-  46 1.05  54 1.05  62 1.05   6 1.49
  15  0.303  0.750  0.773-  47 1.05  55 1.05  63 1.05   7 1.49
  16  0.806  0.750  0.774-  64 1.04  48 1.05  56 1.05   8 1.49
  17  0.218  0.250  0.135-   1 1.10
  18  0.692  0.250  0.151-   2 1.10
  19  0.192  0.750  0.151-   3 1.10
  20  0.718  0.750  0.135-   4 1.10
  21  0.218  0.250  0.635-   5 1.10
  22  0.692  0.250  0.651-   6 1.10
  23  0.192  0.750  0.651-   7 1.10
  24  0.718  0.750  0.635-   8 1.10
  25  0.158  0.322  0.243-   1 1.10
  26  0.651  0.322  0.268-   2 1.10
  27  0.151  0.822  0.268-   3 1.10
  28  0.658  0.822  0.243-   4 1.10
  29  0.158  0.322  0.743-   5 1.10
  30  0.651  0.322  0.768-   6 1.10
  31  0.151  0.822  0.768-   7 1.10
  32  0.658  0.822  0.743-   8 1.10
  33  0.158  0.177  0.244-   1 1.10
  34  0.651  0.177  0.268-   2 1.10
  35  0.151  0.677  0.268-   3 1.10
  36  0.658  0.677  0.244-   4 1.10
  37  0.158  0.177  0.744-   5 1.10
  38  0.651  0.177  0.768-   6 1.10
  39  0.151  0.677  0.768-   7 1.10
  40  0.658  0.677  0.744-   8 1.10
  41  0.351  0.318  0.255-   9 1.05
  42  0.845  0.318  0.247-  10 1.05
  43  0.345  0.818  0.247-  11 1.05
  44  0.851  0.818  0.255-  12 1.05
  45  0.351  0.318  0.755-  13 1.05
  46  0.845  0.318  0.747-  14 1.05
  47  0.345  0.818  0.747-  15 1.05
  48  0.851  0.818  0.755-  16 1.05
  49  0.351  0.182  0.255-   9 1.05
  50  0.845  0.182  0.247-  10 1.05
  51  0.345  0.682  0.247-  11 1.05
  52  0.851  0.682  0.255-  12 1.05
  53  0.351  0.182  0.755-  13 1.05
  54  0.845  0.182  0.747-  14 1.05
  55  0.345  0.682  0.747-  15 1.05
  56  0.851  0.682  0.755-  16 1.05
  57  0.297  0.250  0.356-   9 1.04
  58  0.809  0.250  0.355-  10 1.05
  59  0.309  0.750  0.355-  11 1.05
  60  0.797  0.750  0.356-  12 1.04
  61  0.297  0.250  0.856-  13 1.04
  62  0.809  0.250  0.855-  14 1.05
  63  0.309  0.750  0.855-  15 1.05
  64  0.797  0.750  0.856-  16 1.04
  65  0.472  0.501  0.489-  90 3.09  85 3.14  87 3.16  77 3.17  73 3.22  89 3.26
  66  0.972  0.499  0.489-  89 3.09  88 3.14  86 3.16  78 3.17  74 3.22  90 3.26
  67  0.472  0.999  0.489-  92 3.09  85 3.14  87 3.16  79 3.17  75 3.22  91 3.26
  68  0.972  0.001  0.489-  91 3.09  88 3.14  86 3.16  80 3.17  76 3.22  92 3.26
  69  0.472  0.501  0.989-  94 3.09  81 3.14  83 3.16  73 3.17  77 3.22  93 3.26
  70  0.972  0.499  0.989-  93 3.09  84 3.14  82 3.16  74 3.17  78 3.22  94 3.26
  71  0.472  0.999  0.989-  96 3.09  81 3.14  83 3.16  75 3.17  79 3.22  95 3.26
  72  0.972  0.001  0.989-  95 3.09  84 3.14  82 3.16  76 3.17  80 3.22  96 3.26
  73  0.455  0.500  0.238-  69 3.17  65 3.22
  74  0.955  0.500  0.238-  70 3.17  66 3.22
  75  0.455  1.000  0.238-  71 3.17  67 3.22
  76  0.955  0.000  0.238-  72 3.17  68 3.22
  77  0.455  0.500  0.738-  65 3.17  69 3.22
  78  0.955  0.500  0.738-  66 3.17  70 3.22
  79  0.455  1.000  0.738-  67 3.17  71 3.22
  80  0.955  0.000  0.738-  68 3.17  72 3.22
  81  0.467  0.250  0.009-  71 3.14  69 3.14
  82  0.932  0.250  0.015-  72 3.16  70 3.16
  83  0.432  0.750  0.015-  69 3.16  71 3.16
  84  0.967  0.750  0.009-  70 3.14  72 3.14
  85  0.467  0.250  0.509-  67 3.14  65 3.14
  86  0.932  0.250  0.515-  68 3.16  66 3.16
  87  0.432  0.750  0.515-  65 3.16  67 3.16
  88  0.967  0.750  0.509-  66 3.14  68 3.14
  89  0.216  0.479  0.461-  66 3.09  65 3.26
  90  0.716  0.521  0.461-  65 3.09  66 3.26
  91  0.216  0.021  0.461-  68 3.09  67 3.26
  92  0.716  0.979  0.461-  67 3.09  68 3.26
  93  0.216  0.479  0.961-  70 3.09  69 3.26
  94  0.716  0.521  0.961-  69 3.09  70 3.26
  95  0.216  0.021  0.961-  72 3.09  71 3.26
  96  0.716  0.979  0.961-  71 3.09  72 3.26
 
  LATTYP: Found a triclinic cell.
 ALAT       =    17.8238589327
 B/A-ratio  =     0.6989248630
 C/A-ratio  =     1.0156975818
 COS(alpha) =     0.0001355172
 COS(beta)  =     0.5146378593
 COS(gamma) =     0.6988877578
  
  Lattice vectors:
  
 A1 = (  -0.1406063366, -12.4576271275, -12.7466742118)
 A2 = (  -0.0011956322, -12.4575380825,   0.0007464135)
 A3 = ( -12.7162481321,  -0.0020049566, -12.8856194186)


Analysis of symmetry for initial positions (statically):
=====================================================================
 Subroutine PRICEL returns following result:
 
  LATTYP: Found a triclinic cell.
 ALAT       =     8.8502626515
 B/A-ratio  =     1.4075896561
 C/A-ratio  =     0.7202149489
 COS(alpha) =     0.0000518785
 COS(beta)  =     0.0156138721
 COS(gamma) =     0.7036188608
  
  Lattice vectors:
  
 A1 = (  -6.2878208978,   6.2278110854,  -0.0694726034)
 A2 = (   0.0011956322,  12.4575380825,  -0.0007464135)
 A3 = (  -0.0697053522,  -0.0000445225,  -6.3737103126)
 
   4 primitive cells build up your supercell.
 

 Routine SETGRP: Setting up the symmetry group for a 
 triclinic supercell.


 Subroutine GETGRP returns: Found  1 space group operations
 (whereof  1 operations were pure point group operations)
 out of a pool of  2 trial point group operations.


The static configuration has the point symmetry C_1 .


Analysis of symmetry for dynamics (positions and initial velocities):
=====================================================================
 Subroutine PRICEL returns following result:
 
  LATTYP: Found a triclinic cell.
 ALAT       =     8.8502626515
 B/A-ratio  =     1.4075896561
 C/A-ratio  =     0.7202149489
 COS(alpha) =     0.0000518785
 COS(beta)  =     0.0156138721
 COS(gamma) =     0.7036188608
  
  Lattice vectors:
  
 A1 = (  -6.2878208978,   6.2278110854,  -0.0694726034)
 A2 = (   0.0011956322,  12.4575380825,  -0.0007464135)
 A3 = (  -0.0697053522,  -0.0000445225,  -6.3737103126)
 
   4 primitive cells build up your supercell.
 

 Routine SETGRP: Setting up the symmetry group for a 
 triclinic supercell.


 Subroutine GETGRP returns: Found  1 space group operations
 (whereof  1 operations were pure point group operations)
 out of a pool of  2 trial point group operations.


The dynamic configuration has the point symmetry C_1 .


 Subroutine INISYM returns: Found  1 space group operations
 (whereof  1 operations are pure point group operations),
 and found     4 'primitive' translations

 
 
 KPOINTS: Automatic 3x3x3                         

Automatic generation of k-mesh.
Space group operators:
 irot       det(A)        alpha          n_x          n_y          n_z        tau_x        tau_y        tau_z
    1     1.000000     0.000000     1.000000     0.000000     0.000000     0.000000     0.000000     0.000000
 
 Subroutine IBZKPT returns following result:
 ===========================================
 
 Found     14 irreducible k-points:
 
 Following reciprocal coordinates:
            Coordinates               Weight
  0.000000  0.000000  0.000000      1.000000
  0.333333 -0.000000 -0.000000      2.000000
  0.000000  0.333333 -0.000000      2.000000
  0.333333  0.333333  0.000000      2.000000
 -0.333333  0.333333  0.000000      2.000000
  0.000000  0.000000  0.333333      2.000000
  0.333333  0.000000  0.333333      2.000000
 -0.333333  0.000000  0.333333      2.000000
  0.000000  0.333333  0.333333      2.000000
  0.333333  0.333333  0.333333      2.000000
 -0.333333  0.333333  0.333333      2.000000
  0.000000 -0.333333  0.333333      2.000000
  0.333333 -0.333333  0.333333      2.000000
 -0.333333 -0.333333  0.333333      2.000000
 
 Following cartesian coordinates:
            Coordinates               Weight
  0.000000  0.000000  0.000000      1.000000
  0.026507 -0.000003 -0.000290      2.000000
 -0.000004  0.026758 -0.000000      2.000000
  0.026503  0.026755 -0.000290      2.000000
 -0.026511  0.026760  0.000290      2.000000
 -0.000287  0.000002  0.026152      2.000000
  0.026220 -0.000001  0.025862      2.000000
 -0.026794  0.000004  0.026442      2.000000
 -0.000291  0.026759  0.026152      2.000000
  0.026215  0.026757  0.025862      2.000000
 -0.026798  0.026762  0.026442      2.000000
 -0.000283 -0.026756  0.026152      2.000000
  0.026224 -0.026759  0.025862      2.000000
 -0.026790 -0.026753  0.026442      2.000000
 


--------------------------------------------------------------------------------------------------------




 Dimension of arrays:
   k-points           NKPTS =     14   k-points in BZ     NKDIM =     14   number of bands    NBANDS=    256
   number of dos      NEDOS =    301   number of ions     NIONS =     96
   non local maximal  LDIM  =      6   non local SUM 2l+1 LMDIM =     18
   total plane-waves  NPLWV = ******
   max r-space proj   IRMAX =      1   max aug-charges    IRDMAX= 314103
   dimension x,y,z NGX =   112 NGY =  108 NGZ =  112
   dimension x,y,z NGXF=   224 NGYF=  216 NGZF=  224
   support grid    NGXF=   448 NGYF=  432 NGZF=  448
   ions per type =               8   8  48   8  24
 NGX,Y,Z   is equivalent  to a cutoff of  14.80, 14.41, 14.61 a.u.
 NGXF,Y,Z  is equivalent  to a cutoff of  29.61, 28.83, 29.21 a.u.


 I would recommend the setting:
   dimension x,y,z NGX =   109 NGY =  107 NGZ =  110
 SYSTEM =  MAPbI3-Cubic                            
 POSCAR =  C N H Pb I                              

 Startparameter for this run:
   NWRITE =      2    write-flag & timer
   PREC   = accura    normal or accurate (medium, high low for compatibility)
   ISTART =      0    job   : 0-new  1-cont  2-samecut
   ICHARG =      2    charge: 1-file 2-atom 10-const
   ISPIN  =      1    spin polarized calculation?
   LNONCOLLINEAR =      F non collinear calculations
   LSORBIT =      F    spin-orbit coupling
   INIWAV =      1    electr: 0-lowe 1-rand  2-diag
   LASPH  =      F    aspherical Exc in radial PAW
   METAGGA=      F    non-selfconsistent MetaGGA calc.

 Electronic Relaxation 1
   ENCUT  =  700.0 eV  51.45 Ry    7.17 a.u.  27.13 26.87 27.50*2*pi/ulx,y,z
   ENINI  =  700.0     initial cutoff
   ENAUG  =  644.9 eV  augmentation charge cutoff
   NELM   =     60;   NELMIN=  2; NELMDL= -5     # of ELM steps 
   EDIFF  = 0.1E-07   stopping-criterion for ELM
   LREAL  =      F    real-space projection
   NLSPLINE    = F    spline interpolate recip. space projectors
   LCOMPAT=      F    compatible to vasp.4.4
   GGA_COMPAT  = T    GGA compatible to vasp.4.4-vasp.4.6
   LMAXPAW     = -100 max onsite density
   LMAXMIX     =    2 max onsite mixed and CHGCAR
   VOSKOWN=      0    Vosko Wilk Nusair interpolation
   ROPT   =    0.00000   0.00000   0.00000   0.00000
   ROPT   =    0.00000
 Ionic relaxation
   EDIFFG = 0.1E-06   stopping-criterion for IOM
   NSW    =      0    number of steps for IOM
   NBLOCK =      1;   KBLOCK =      1    inner block; outer block 
   IBRION =     -1    ionic relax: 0-MD 1-quasi-New 2-CG
   NFREE  =      0    steps in history (QN), initial steepest desc. (CG)
   ISIF   =      2    stress and relaxation
   IWAVPR =     10    prediction:  0-non 1-charg 2-wave 3-comb
   ISYM   =      2    0-nonsym 1-usesym 2-fastsym
   LCORR  =      T    Harris-Foulkes like correction to forces

   POTIM  = 0.5000    time-step for ionic-motion
   TEIN   =    0.0    initial temperature
   TEBEG  =    0.0;   TEEND  =   0.0 temperature during run
   SMASS  =  -3.00    Nose mass-parameter (am)
   estimated Nose-frequenzy (Omega)   =  0.10E-29 period in steps =****** mass=  -0.362E-26a.u.
   SCALEE = 1.0000    scale energy and forces
   NPACO  =    256;   APACO  = 16.0  distance and # of slots for P.C.
   PSTRESS=    0.0 pullay stress

  Mass of Ions in am
   POMASS =  12.01 14.00  1.00207.20126.90
  Ionic Valenz
   ZVAL   =   4.00  5.00  1.00 14.00  7.00
  Atomic Wigner-Seitz radii
   RWIGS  =  -1.00 -1.00 -1.00 -1.00 -1.00
  virtual crystal weights 
   VCA    =   1.00  1.00  1.00  1.00  1.00
   NELECT =     400.0000    total number of electrons
   NUPDOWN=      -1.0000    fix difference up-down

 DOS related values:
   EMIN   =  10.00;   EMAX   =-10.00  energy-range for DOS
   EFERMI =   0.00
   ISMEAR =     0;   SIGMA  =   0.00  broadening in eV -4-tet -1-fermi 0-gaus

 Electronic relaxation 2 (details)
   IALGO  =     38    algorithm
   LDIAG  =      T    sub-space diagonalisation (order eigenvalues)
   LSUBROT=      F    optimize rotation matrix (better conditioning)
   TURBO    =      0    0=normal 1=particle mesh
   IRESTART =      0    0=no restart 2=restart with 2 vectors
   NREBOOT  =      0    no. of reboots
   NMIN     =      0    reboot dimension
   EREF     =   0.00    reference energy to select bands
   IMIX   =      4    mixing-type and parameters
     AMIX     =   0.40;   BMIX     =  1.00
     AMIX_MAG =   1.60;   BMIX_MAG =  1.00
     AMIN     =   0.10
     WC   =   100.;   INIMIX=   1;  MIXPRE=   1;  MAXMIX= -45

 Intra band minimization:
   WEIMIN = 0.0000     energy-eigenvalue tresh-hold
   EBREAK =  0.98E-11  absolut break condition
   DEPER  =   0.30     relativ break condition  

   TIME   =   0.40     timestep for ELM

  volume/ion in A,a.u.               =      20.80       140.38
  Fermi-wavevector in a.u.,A,eV,Ry     =   0.957863  1.810099 12.483376  0.917502
  Thomas-Fermi vector in A             =   2.086919
 
 Write flags
   LWAVE  =      F    write WAVECAR
   LCHARG =      F    write CHGCAR
   LVTOT  =      F    write LOCPOT, total local potential
   LVHAR  =      F    write LOCPOT, Hartree potential only
   LELF   =      F    write electronic localiz. function (ELF)
   LORBIT =      0    0 simple, 1 ext, 2 COOP (PROOUT)


 Dipole corrections
   LMONO  =      F    monopole corrections only (constant potential shift)
   LDIPOL =      F    correct potential (dipole corrections)
   IDIPOL =      0    1-x, 2-y, 3-z, 4-all directions 
   EPSILON=  1.0000000 bulk dielectric constant

 Exchange correlation treatment:
   GGA     =    PS    GGA type
   LEXCH   =    14    internal setting for exchange type
   VOSKOWN=      0    Vosko Wilk Nusair interpolation
   LHFCALC =     F    Hartree Fock is set to
   LHFONE  =     F    Hartree Fock one center treatment
   AEXX    =    0.0000 exact exchange contribution

 Linear response parameters
   LEPSILON=     F    determine dielectric tensor
   LRPA    =     F    only Hartree local field effects (RPA)
   LNABLA  =     F    use nabla operator in PAW spheres
   LVEL    =     F    velocity operator in full k-point grid
   LINTERFAST=   F  fast interpolation
   KINTER  =     0    interpolate to denser k-point grid
   CSHIFT  =0.1000    complex shift for real part using Kramers Kronig
   OMEGAMAX=  -1.0    maximum frequency
   DEG_THRESHOLD= 0.2000000E-02 threshold for treating states as degnerate
   RTIME   =    0.100 relaxation time in fs

 Orbital magnetization related:
   ORBITALMAG=     F  switch on orbital magnetization
   LCHIMAG   =     F  perturbation theory with respect to B field
   DQ        =  0.001000  dq finite difference perturbation B field



--------------------------------------------------------------------------------------------------------


 Static calculation
 charge density and potential will be updated during run
 non-spin polarized calculation
 Variant of blocked Davidson
 Davidson routine will perform the subspace rotation
 perform sub-space diagonalisation
    after iterative eigenvector-optimisation
 modified Broyden-mixing scheme, WC =      100.0
 initial mixing is a Kerker type mixing with AMIX =  0.4000 and BMIX =      1.0000
 Hartree-type preconditioning will be used
 using additional bands           56
 reciprocal scheme for non local part
 use partial core corrections
 calculate Harris-corrections to forces 
   (improved forces if not selfconsistent)
 use gradient corrections 
 use of overlap-Matrix (Vanderbilt PP)
 Gauss-broadening in eV      SIGMA  =   0.00


--------------------------------------------------------------------------------------------------------


  energy-cutoff  :      700.00
  volume of cell :     1996.98
      direct lattice vectors                 reciprocal lattice vectors
    12.576837428  0.001915912  0.138198793     0.079520802 -0.000007684 -0.000869670
     0.001195632 12.457538083 -0.000746413    -0.000012224  0.080272684 -0.000000427
     0.139410704  0.000089045 12.747420625    -0.000862111  0.000004784  0.078456671

  length of vectors
    12.577596840 12.457538162 12.748182927     0.079525558  0.080272685  0.078461408


 
 k-points in units of 2pi/SCALE and weight: Automatic 3x3x3                         
   0.00000000  0.00000000  0.00000000       0.037
   0.02650693 -0.00000256 -0.00028989       0.074
  -0.00000407  0.02675756 -0.00000014       0.074
   0.02650286  0.02675500 -0.00029003       0.074
  -0.02651101  0.02676012  0.00028975       0.074
  -0.00028737  0.00000159  0.02615222       0.074
   0.02621956 -0.00000097  0.02586233       0.074
  -0.02679430  0.00000416  0.02644211       0.074
  -0.00029144  0.02675916  0.02615208       0.074
   0.02621549  0.02675659  0.02586219       0.074
  -0.02679838  0.02676172  0.02644197       0.074
  -0.00028330 -0.02675597  0.02615237       0.074
   0.02622364 -0.02675853  0.02586248       0.074
  -0.02679023 -0.02675341  0.02644226       0.074
 
 k-points in reciprocal lattice and weights: Automatic 3x3x3                         
   0.00000000  0.00000000  0.00000000       0.037
   0.33333333 -0.00000000 -0.00000000       0.074
   0.00000000  0.33333333 -0.00000000       0.074
   0.33333333  0.33333333  0.00000000       0.074
  -0.33333333  0.33333333  0.00000000       0.074
   0.00000000  0.00000000  0.33333333       0.074
   0.33333333  0.00000000  0.33333333       0.074
  -0.33333333  0.00000000  0.33333333       0.074
   0.00000000  0.33333333  0.33333333       0.074
   0.33333333  0.33333333  0.33333333       0.074
  -0.33333333  0.33333333  0.33333333       0.074
   0.00000000 -0.33333333  0.33333333       0.074
   0.33333333 -0.33333333  0.33333333       0.074
  -0.33333333 -0.33333333  0.33333333       0.074
 
 position of ions in fractional coordinates (direct lattice) 
   0.20256974  0.24993152  0.22023148
   0.69141853  0.24988503  0.23759922
   0.19141853  0.74988503  0.23759922
   0.70256974  0.74993152  0.22023148
   0.20256974  0.24993152  0.72023148
   0.69141853  0.24988503  0.73759922
   0.19141853  0.74988503  0.73759922
   0.70256974  0.74993152  0.72023148
   0.30607157  0.25002128  0.27437549
   0.80300286  0.24998600  0.27339311
   0.30300286  0.74998600  0.27339311
   0.80607157  0.75002128  0.27437549
   0.30607157  0.25002128  0.77437549
   0.80300286  0.24998600  0.77339311
   0.30300286  0.74998600  0.77339311
   0.80607157  0.75002128  0.77437549
   0.21819455  0.24982036  0.13473233
   0.69195578  0.24982184  0.15104493
   0.19195578  0.74982184  0.15104493
   0.71819455  0.74982036  0.13473233
   0.21819455  0.24982036  0.63473233
   0.69195578  0.24982184  0.65104493
   0.19195578  0.74982184  0.65104493
   0.71819455  0.74982036  0.63473233
   0.15782275  0.32243892  0.24334826
   0.65085286  0.32226545  0.26768238
   0.15085286  0.82226545  0.26768238
   0.65782275  0.82243892  0.24334826
   0.15782275  0.32243892  0.74334826
   0.65085286  0.32226545  0.76768238
   0.15085286  0.82226545  0.76768238
   0.65782275  0.82243892  0.74334826
   0.15789238  0.17746276  0.24352476
   0.65099329  0.17748939  0.26777665
   0.15099329  0.67748939  0.26777665
   0.65789238  0.67746276  0.24352476
   0.15789238  0.17746276  0.74352476
   0.65099329  0.17748939  0.76777665
   0.15099329  0.67748939  0.76777665
   0.65789238  0.67746276  0.74352476
   0.35143436  0.31806023  0.25490210
   0.84483480  0.31768833  0.24661088
   0.34483480  0.81768833  0.24661088
   0.85143436  0.81806023  0.25490210
   0.35143436  0.31806023  0.75490210
   0.84483480  0.31768833  0.74661088
   0.34483480  0.81768833  0.74661088
   0.85143436  0.81806023  0.75490210
   0.35147070  0.18192693  0.25507939
   0.84493990  0.18228284  0.24670241
   0.34493990  0.68228284  0.24670241
   0.85147070  0.68192693  0.25507939
   0.35147070  0.18192693  0.75507939
   0.84493990  0.18228284  0.74670241
   0.34493990  0.68228284  0.74670241
   0.85147070  0.68192693  0.75507939
   0.29690871  0.25014172  0.35585765
   0.80943143  0.25004532  0.35536084
   0.30943143  0.75004532  0.35536084
   0.79690871  0.75014172  0.35585765
   0.29690871  0.25014172  0.85585765
   0.80943143  0.25004532  0.85536084
   0.30943143  0.75004532  0.85536084
   0.79690871  0.75014172  0.85585765
   0.47244666  0.50089899  0.48881024
   0.97243689  0.49908060  0.48881266
   0.47243689  0.99908060  0.48881266
   0.97244666  0.00089899  0.48881024
   0.47244666  0.50089899  0.98881024
   0.97243689  0.49908060  0.98881266
   0.47243689  0.99908060  0.98881266
   0.97244666  0.00089899  0.98881024
   0.45475722  0.50047516  0.23756986
   0.95473013  0.49950694  0.23757562
   0.45473013  0.99950694  0.23757562
   0.95475722  0.00047516  0.23756986
   0.45475722  0.50047516  0.73756986
   0.95473013  0.49950694  0.73757562
   0.45473013  0.99950694  0.73757562
   0.95475722  0.00047516  0.73756986
   0.46714946  0.24997555  0.00854093
   0.93212142  0.24998247  0.01512351
   0.43212142  0.74998247  0.01512351
   0.96714946  0.74997555  0.00854093
   0.46714946  0.24997555  0.50854093
   0.93212142  0.24998247  0.51512351
   0.43212142  0.74998247  0.51512351
   0.96714946  0.74997555  0.50854093
   0.21617567  0.47909328  0.46123970
   0.71616721  0.52090159  0.46123970
   0.21616721  0.02090159  0.46123970
   0.71617567  0.97909328  0.46123970
   0.21617567  0.47909328  0.96123970
   0.71616721  0.52090159  0.96123970
   0.21616721  0.02090159  0.96123970
   0.71617567  0.97909328  0.96123970
 
 position of ions in cartesian coordinates  (Angst):
   2.57868811  3.11393920  2.83519170
   8.72928106  3.11429808  3.12414394
   2.44146016  9.34210916  3.05467134
   8.86770464  9.34366620  2.90391789
   2.64839346  3.11398372  9.20890202
   8.79898641  3.11434260  9.49785426
   2.51116552  9.34215369  9.42838165
   8.93740999  9.34371072  9.27762821
   3.88796224  3.11526044  3.53969182
  10.13764929  3.11577297  3.59584438
   3.84982839  9.34358405  3.52637177
  10.17697877  9.34498744  3.60841801
   3.95766759  3.11530497  9.91340213
  10.20735464  3.11581749  9.96955469
   3.91953375  9.34362858  9.90008209
  10.24668412  9.34503196  9.98212832
   2.76327921  3.11257665  1.74745738
   8.72397138  3.11350421  2.02087419
   2.43615048  9.34131529  1.95140159
   9.05229574  9.34230365  1.81618357
   2.83298456  3.11262117  8.12116770
   8.79367673  3.11354873  8.39458450
   2.50585583  9.34135981  8.32511190
   9.12200109  9.34234817  8.18989389
   2.01922194  4.01711922  3.12363289
   8.22337375  4.01590492  3.50196639
   1.93555286 10.24371601  3.43249379
   8.30823847 10.24684621  3.19235908
   2.08892729  4.01716374  9.49734320
   8.29307911  4.01594945  9.87567670
   2.00525821 10.24376053  9.80620410
   8.37794382 10.24689074  9.56606939
   2.01994894  2.21107324  3.12600061
   8.22497988  2.21235193  3.50329565
   1.93715898  8.44016301  3.43382305
   8.30896547  8.44080024  3.19472680
   2.08965429  2.21111776  9.49971093
   8.29468523  2.21239645  9.87700596
   2.00686433  8.44020754  9.80753336
   8.37867082  8.44084476  9.56843712
   4.45584912  3.96294347  3.29767474
  10.66010996  3.95925510  3.26017061
   4.37228906 10.18706619  3.19069801
  10.74486565 10.19267047  3.36640093
   4.52555448  3.96298799  9.67138505
  10.72981531  3.95929963  9.63388092
   4.44199441 10.18711071  9.56440832
  10.81457101 10.19271499  9.74011124
   4.45616819  2.26705780  3.30004133
  10.66128265  2.27243624  3.26145298
   4.37346175  8.50024733  3.19198038
  10.74518472  8.49678480  3.36876752
   4.52587354  2.26710232  9.67375164
  10.73098800  2.27248076  9.63516330
   4.44316710  8.50029185  9.56569069
  10.81489007  8.49682932  9.74247783
   3.78408204  3.11675054  4.57711289
  10.22992763  3.11653158  4.64160988
   3.94210673  9.34434266  4.57213727
  10.07309857  9.34647754  4.64583908
   3.85378739  3.11679507 10.95082320
  10.29963298  3.11657610 11.01532019
   4.01181208  9.34438719 10.94584759
  10.14280392  9.34652206 11.01954939
   6.01062915  6.24091694  6.29598735
  12.29892309  6.21922220  6.36511765
   6.01110219 12.44703328  6.29564505
  12.29845005  0.01310586  6.36545996
   6.08033451  6.24096147 12.66969767
  12.36862844  6.21926672 12.73882797
   6.08080754 12.44707781 12.66935536
  12.36815540  0.01315038 12.73917027
   5.75312583  6.23558084  3.09087628
  12.04120339  6.22447701  3.16004611
   5.75338250 12.45228809  3.09057351
  12.04094672  0.00776975  3.16034888
   5.82283118  6.23562536  9.46458659
  12.11090874  6.22452153  9.53375643
   5.82308785 12.45233261  9.46428382
  12.11065208  0.00781427  9.53405920
   5.87675240  3.11497572  0.17324770
  11.72554680  3.11595335  0.32141718
   5.43772590  9.34376444  0.25194458
  12.16576893  9.34470272  0.24197389
   5.94645776  3.11502024  6.54695802
  11.79525215  3.11599787  6.69512749
   5.50743126  9.34380896  6.62565489
  12.23547429  9.34474724  6.61568421
   2.78368078  5.96877805  5.90913406
   9.07204314  6.49056459  5.97820116
   2.78302661  0.26083759  5.90947497
   9.07269731 12.19850504  5.97786025
   2.85338613  5.96882257 12.28284438
   9.14174849  6.49060911 12.35191148
   2.85273196  0.26088212 12.28318529
   9.14240266 12.19854957 12.35157057
 


--------------------------------------------------------------------------------------------------------


 k-point  1 :   0.0000 0.0000 0.0000  plane waves:   84007
 k-point  2 :   0.3333-0.0000-0.0000  plane waves:   84003
 k-point  3 :   0.0000 0.3333-0.0000  plane waves:   83995
 k-point  4 :   0.3333 0.3333 0.0000  plane waves:   84018
 k-point  5 :  -0.3333 0.3333 0.0000  plane waves:   84019
 k-point  6 :   0.0000 0.0000 0.3333  plane waves:   83960
 k-point  7 :   0.3333 0.0000 0.3333  plane waves:   83937
 k-point  8 :  -0.3333 0.0000 0.3333  plane waves:   83982
 k-point  9 :   0.0000 0.3333 0.3333  plane waves:   83984
 k-point 10 :   0.3333 0.3333 0.3333  plane waves:   84012
 k-point 11 :  -0.3333 0.3333 0.3333  plane waves:   83970
 k-point 12 :   0.0000-0.3333 0.3333  plane waves:   83977
 k-point 13 :   0.3333-0.3333 0.3333  plane waves:   84013
 k-point 14 :  -0.3333-0.3333 0.3333  plane waves:   83973

 maximum and minimum number of plane-waves per node :     28039    27934

 maximum number of plane-waves:     84019
 maximum index in each direction: 
   IXMAX=   27   IYMAX=   27   IZMAX=   27
   IXMIN=  -27   IYMIN=  -27   IZMIN=  -27

 NGX is ok and might be reduce to 110
 WARNING: aliasing errors must be expected set NGY to 110 to avoid them
 NGZ is ok and might be reduce to 110
 aliasing errors are usually negligible using standard VASP settings
 and one can safely disregard these warnings

 parallel 3D FFT for wavefunctions:
    minimum data exchange during FFTs selected (reduces bandwidth)
 parallel 3D FFT for charge:
    minimum data exchange during FFTs selected (reduces bandwidth)


 total amount of memory used by VASP on root node   697522. kBytes
========================================================================

   base      :      30000. kBytes
   nonl-proj :     325712. kBytes
   fftplans  :      80881. kBytes
   grid      :      57435. kBytes
   one-center:        497. kBytes
   wavefun   :     202997. kBytes
 
     INWAV:  cpu time    0.0000: real time    0.0000
 Broyden mixing: mesh for mixing (old mesh)
   NGX = 55   NGY = 53   NGZ = 55
  (NGX  =224   NGY  =216   NGZ  =224)
  gives a total of 160325 points

 initial charge density was supplied:
 charge density of overlapping atoms calculated
 number of electron     400.0000000 magnetization 
 keeping initial charge density in first step


--------------------------------------------------------------------------------------------------------


 Maximum index for augmentation-charges        14502 (set IRDMAX)


--------------------------------------------------------------------------------------------------------


 First call to EWALD:  gamma=   0.141
 Maximum number of real-space cells 3x 3x 3
 Maximum number of reciprocal cells 3x 3x 3

 FEWALD executed in parallel
    FEWALD:  cpu time    0.0040: real time    0.0038


----------------------------------------- Iteration    1(   1)  ---------------------------------------


    POTLOK:  cpu time    0.4520: real time    0.4519
    SETDIJ:  cpu time    0.7680: real time    0.7702
     EDDAV:  cpu time  253.9559: real time  254.1172
       DOS:  cpu time    0.0000: real time    0.0005
    --------------------------------------------
      LOOP:  cpu time  255.1799: real time  255.3613

 eigenvalue-minimisations  :  7176
 total energy-change (2. order) : 0.3599767E+04  (-0.1894636E+05)
 number of electron     400.0000000 magnetization 
 augmentation part      400.0000000 magnetization 

 Free energy of the ion-electron system (eV)
  ---------------------------------------------------
  alpha Z        PSCENC =       370.05370877
  Ewald energy   TEWEN  =    -15531.61002019
  -Hartree energ DENC   =     -8118.76338229
  -exchange      EXHF   =         0.00000000
  -V(xc)+E(xc)   XCENC  =       389.83520694
  PAW double counting   =     20601.23165652   -19855.90553853
  entropy T*S    EENTRO =        -0.00000000
  eigenvalues    EBANDS =       995.91868133
  atomic energy  EATOM  =     24749.00668030
  Solvation  Ediel_sol  =         0.00000000
  ---------------------------------------------------
  free energy    TOTEN  =      3599.76699284 eV

  energy without entropy =     3599.76699284  energy(sigma->0) =     3599.76699284


--------------------------------------------------------------------------------------------------------




----------------------------------------- Iteration    1(   2)  ---------------------------------------


     EDDAV:  cpu time  276.6013: real time  276.7723
       DOS:  cpu time    0.0000: real time    0.0011
    --------------------------------------------
      LOOP:  cpu time  276.6053: real time  276.7790

 eigenvalue-minimisations  :  8024
 total energy-change (2. order) :-0.3401732E+04  (-0.3209184E+04)
 number of electron     400.0000000 magnetization 
 augmentation part      400.0000000 magnetization 

 Free energy of the ion-electron system (eV)
  ---------------------------------------------------
  alpha Z        PSCENC =       370.05370877
  Ewald energy   TEWEN  =    -15531.61002019
  -Hartree energ DENC   =     -8118.76338229
  -exchange      EXHF   =         0.00000000
  -V(xc)+E(xc)   XCENC  =       389.83520694
  PAW double counting   =     20601.23165652   -19855.90553853
  entropy T*S    EENTRO =        -0.00004179
  eigenvalues    EBANDS =     -2405.81350977
  atomic energy  EATOM  =     24749.00668030
  Solvation  Ediel_sol  =         0.00000000
  ---------------------------------------------------
  free energy    TOTEN  =       198.03475995 eV

  energy without entropy =      198.03480174  energy(sigma->0) =      198.03478084


--------------------------------------------------------------------------------------------------------




----------------------------------------- Iteration    1(   3)  ---------------------------------------


     EDDAV:  cpu time  314.4957: real time  314.6934
       DOS:  cpu time    0.0000: real time    0.0003
    --------------------------------------------
      LOOP:  cpu time  314.5037: real time  314.7274

 eigenvalue-minimisations  :  9432
 total energy-change (2. order) :-0.5962760E+03  (-0.5877186E+03)
 number of electron     400.0000000 magnetization 
 augmentation part      400.0000000 magnetization 

 Free energy of the ion-electron system (eV)
  ---------------------------------------------------
  alpha Z        PSCENC =       370.05370877
  Ewald energy   TEWEN  =    -15531.61002019
  -Hartree energ DENC   =     -8118.76338229
  -exchange      EXHF   =         0.00000000
  -V(xc)+E(xc)   XCENC  =       389.83520694
  PAW double counting   =     20601.23165652   -19855.90553853
  entropy T*S    EENTRO =         0.00000000
  eigenvalues    EBANDS =     -3002.08959399
  atomic energy  EATOM  =     24749.00668030
  Solvation  Ediel_sol  =         0.00000000
  ---------------------------------------------------
  free energy    TOTEN  =      -398.24128248 eV

  energy without entropy =     -398.24128248  energy(sigma->0) =     -398.24128248


--------------------------------------------------------------------------------------------------------




----------------------------------------- Iteration    1(   4)  ---------------------------------------


     EDDAV:  cpu time  318.9999: real time  319.2014
       DOS:  cpu time    0.0040: real time    0.0003
    --------------------------------------------
      LOOP:  cpu time  319.0039: real time  319.2580

 eigenvalue-minimisations  :  9600
 total energy-change (2. order) :-0.4025957E+02  (-0.4008587E+02)
 number of electron     400.0000000 magnetization 
 augmentation part      400.0000000 magnetization 

 Free energy of the ion-electron system (eV)
  ---------------------------------------------------
  alpha Z        PSCENC =       370.05370877
  Ewald energy   TEWEN  =    -15531.61002019
  -Hartree energ DENC   =     -8118.76338229
  -exchange      EXHF   =         0.00000000
  -V(xc)+E(xc)   XCENC  =       389.83520694
  PAW double counting   =     20601.23165652   -19855.90553853
  entropy T*S    EENTRO =         0.00000000
  eigenvalues    EBANDS =     -3042.34916849
  atomic energy  EATOM  =     24749.00668030
  Solvation  Ediel_sol  =         0.00000000
  ---------------------------------------------------
  free energy    TOTEN  =      -438.50085698 eV

  energy without entropy =     -438.50085698  energy(sigma->0) =     -438.50085698


--------------------------------------------------------------------------------------------------------




----------------------------------------- Iteration    1(   5)  ---------------------------------------


     EDDAV:  cpu time  323.4802: real time  323.6802
       DOS:  cpu time    0.0000: real time    0.0004
    CHARGE:  cpu time    9.4086: real time    9.4160
    MIXING:  cpu time    0.0160: real time    0.0133
    --------------------------------------------
      LOOP:  cpu time  332.9048: real time  333.1229

 eigenvalue-minimisations  :  9768
 total energy-change (2. order) :-0.1549423E+01  (-0.1547112E+01)
 number of electron     400.0000000 magnetization 
 augmentation part        7.5650514 magnetization 

 Broyden mixing:
  rms(total) = 0.29614E+01    rms(broyden)= 0.29614E+01
  rms(prec ) = 0.35115E+01
  weight for this iteration     100.00

 Free energy of the ion-electron system (eV)
  ---------------------------------------------------
  alpha Z        PSCENC =       370.05370877
  Ewald energy   TEWEN  =    -15531.61002019
  -Hartree energ DENC   =     -8118.76338229
  -exchange      EXHF   =         0.00000000
  -V(xc)+E(xc)   XCENC  =       389.83520694
  PAW double counting   =     20601.23165652   -19855.90553853
  entropy T*S    EENTRO =         0.00000000
  eigenvalues    EBANDS =     -3043.89859189
  atomic energy  EATOM  =     24749.00668030
  Solvation  Ediel_sol  =         0.00000000
  ---------------------------------------------------
  free energy    TOTEN  =      -440.05028037 eV

  energy without entropy =     -440.05028037  energy(sigma->0) =     -440.05028037


--------------------------------------------------------------------------------------------------------




----------------------------------------- Iteration    1(   6)  ---------------------------------------


    POTLOK:  cpu time    0.4480: real time    0.4474
    SETDIJ:  cpu time    0.7720: real time    0.7732
     EDDAV:  cpu time  315.1877: real time  315.3811
       DOS:  cpu time    0.0000: real time    0.0005
    CHARGE:  cpu time    9.4166: real time    9.4238
    MIXING:  cpu time    0.0160: real time    0.0134
    --------------------------------------------
      LOOP:  cpu time  325.8404: real time  326.0602

 eigenvalue-minimisations  :  9472
 total energy-change (2. order) : 0.2050672E+02  (-0.4135252E+01)
 number of electron     400.0000000 magnetization 
 augmentation part        7.8717400 magnetization 

 Broyden mixing:
  rms(total) = 0.15648E+01    rms(broyden)= 0.15648E+01
  rms(prec ) = 0.17427E+01
  weight for this iteration     100.00

 eigenvalues of (default mixing * dielectric matrix)
  average eigenvalue GAMMA=   1.5526
  1.5526

 Free energy of the ion-electron system (eV)
  ---------------------------------------------------
  alpha Z        PSCENC =       370.05370877
  Ewald energy   TEWEN  =    -15531.61002019
  -Hartree energ DENC   =     -8290.52677623
  -exchange      EXHF   =         0.00000000
  -V(xc)+E(xc)   XCENC  =       403.99822973
  PAW double counting   =     23056.14768191   -22308.87430439
  entropy T*S    EENTRO =        -0.00000000
  eigenvalues    EBANDS =     -2867.73875638
  atomic energy  EATOM  =     24749.00668030
  Solvation  Ediel_sol  =         0.00000000
  ---------------------------------------------------
  free energy    TOTEN  =      -419.54355648 eV

  energy without entropy =     -419.54355648  energy(sigma->0) =     -419.54355648


--------------------------------------------------------------------------------------------------------




----------------------------------------- Iteration    1(   7)  ---------------------------------------


    POTLOK:  cpu time    0.4480: real time    0.4472
    SETDIJ:  cpu time    0.7720: real time    0.7733
     EDDAV:  cpu time  335.0089: real time  335.2146
       DOS:  cpu time    0.0000: real time    0.0008
    CHARGE:  cpu time    9.4166: real time    9.4218
    MIXING:  cpu time    0.0120: real time    0.0135
    --------------------------------------------
      LOOP:  cpu time  345.6576: real time  345.9782

 eigenvalue-minimisations  : 10208
 total energy-change (2. order) : 0.2470378E+01  (-0.1469482E+01)
 number of electron     400.0000000 magnetization 
 augmentation part        8.0051784 magnetization 

 Broyden mixing:
  rms(total) = 0.77868E+00    rms(broyden)= 0.77867E+00
  rms(prec ) = 0.83095E+00
  weight for this iteration     100.00

 eigenvalues of (default mixing * dielectric matrix)
  average eigenvalue GAMMA=   1.9260
  1.4503  2.4017

 Free energy of the ion-electron system (eV)
  ---------------------------------------------------
  alpha Z        PSCENC =       370.05370877
  Ewald energy   TEWEN  =    -15531.61002019
  -Hartree energ DENC   =     -8379.39093391
  -exchange      EXHF   =         0.00000000
  -V(xc)+E(xc)   XCENC  =       413.53065755
  PAW double counting   =     26147.22083119   -25398.84420794
  entropy T*S    EENTRO =         0.00000000
  eigenvalues    EBANDS =     -2787.03989460
  atomic energy  EATOM  =     24749.00668030
  Solvation  Ediel_sol  =         0.00000000
  ---------------------------------------------------
  free energy    TOTEN  =      -417.07317882 eV

  energy without entropy =     -417.07317882  energy(sigma->0) =     -417.07317882


--------------------------------------------------------------------------------------------------------




----------------------------------------- Iteration    1(   8)  ---------------------------------------


    POTLOK:  cpu time    0.4480: real time    0.4510
    SETDIJ:  cpu time    0.7760: real time    0.7735
     EDDAV:  cpu time  291.3902: real time  291.5712
       DOS:  cpu time    0.0000: real time    0.0006
    CHARGE:  cpu time    9.4166: real time    9.4231
    MIXING:  cpu time    0.0120: real time    0.0137
    --------------------------------------------
      LOOP:  cpu time  302.0469: real time  302.2519

 eigenvalue-minimisations  :  8584
 total energy-change (2. order) : 0.1707776E+00  (-0.3078935E+00)
 number of electron     400.0000000 magnetization 
 augmentation part        7.9349861 magnetization 

 Broyden mixing:
  rms(total) = 0.18343E+00    rms(broyden)= 0.18343E+00
  rms(prec ) = 0.22267E+00
  weight for this iteration     100.00

 eigenvalues of (default mixing * dielectric matrix)
  average eigenvalue GAMMA=   1.6326
  2.3795  1.2591  1.2591

 Free energy of the ion-electron system (eV)
  ---------------------------------------------------
  alpha Z        PSCENC =       370.05370877
  Ewald energy   TEWEN  =    -15531.61002019
  -Hartree energ DENC   =     -8387.13527231
  -exchange      EXHF   =         0.00000000
  -V(xc)+E(xc)   XCENC  =       416.72134658
  PAW double counting   =     28584.49206595   -27837.12071080
  entropy T*S    EENTRO =         0.00000000
  eigenvalues    EBANDS =     -2781.31019952
  atomic energy  EATOM  =     24749.00668030
  Solvation  Ediel_sol  =         0.00000000
  ---------------------------------------------------
  free energy    TOTEN  =      -416.90240123 eV

  energy without entropy =     -416.90240123  energy(sigma->0) =     -416.90240123


--------------------------------------------------------------------------------------------------------




----------------------------------------- Iteration    1(   9)  ---------------------------------------


    POTLOK:  cpu time    0.4440: real time    0.4459
    SETDIJ:  cpu time    0.7760: real time    0.7754
     EDDAV:  cpu time  314.1076: real time  314.3017
       DOS:  cpu time    0.0040: real time    0.0007
    CHARGE:  cpu time    9.4126: real time    9.4211
    MIXING:  cpu time    0.0160: real time    0.0139
    --------------------------------------------
      LOOP:  cpu time  324.7643: real time  324.9770

 eigenvalue-minimisations  :  9432
 total energy-change (2. order) : 0.7275151E-01  (-0.7572622E-01)
 number of electron     400.0000000 magnetization 
 augmentation part        7.9463234 magnetization 

 Broyden mixing:
  rms(total) = 0.73308E-01    rms(broyden)= 0.73301E-01
  rms(prec ) = 0.82410E-01
  weight for this iteration     100.00

 eigenvalues of (default mixing * dielectric matrix)
  average eigenvalue GAMMA=   1.5470
  2.3267  1.5369  1.1092  1.2152

 Free energy of the ion-electron system (eV)
  ---------------------------------------------------
  alpha Z        PSCENC =       370.05370877
  Ewald energy   TEWEN  =    -15531.61002019
  -Hartree energ DENC   =     -8405.21693902
  -exchange      EXHF   =         0.00000000
  -V(xc)+E(xc)   XCENC  =       417.79730870
  PAW double counting   =     28603.48645819   -27856.20114357
  entropy T*S    EENTRO =        -0.00000000
  eigenvalues    EBANDS =     -2764.14570289
  atomic energy  EATOM  =     24749.00668030
  Solvation  Ediel_sol  =         0.00000000
  ---------------------------------------------------
  free energy    TOTEN  =      -416.82964972 eV

  energy without entropy =     -416.82964972  energy(sigma->0) =     -416.82964972


--------------------------------------------------------------------------------------------------------




----------------------------------------- Iteration    1(  10)  ---------------------------------------


    POTLOK:  cpu time    0.4480: real time    0.4467
    SETDIJ:  cpu time    0.7720: real time    0.7747
     EDDAV:  cpu time  300.9788: real time  301.1631
       DOS:  cpu time    0.0000: real time    0.0008
    CHARGE:  cpu time    9.4166: real time    9.4209
    MIXING:  cpu time    0.0160: real time    0.0143
    --------------------------------------------
      LOOP:  cpu time  311.6315: real time  311.9052

 eigenvalue-minimisations  :  8944
 total energy-change (2. order) :-0.1160409E-01  (-0.1085285E-01)
 number of electron     400.0000000 magnetization 
 augmentation part        7.9225304 magnetization 

 Broyden mixing:
  rms(total) = 0.46010E-01    rms(broyden)= 0.46008E-01
  rms(prec ) = 0.53028E-01
  weight for this iteration     100.00

 eigenvalues of (default mixing * dielectric matrix)
  average eigenvalue GAMMA=   1.4597
  2.3837  1.9461  1.0616  1.0616  0.8455

 Free energy of the ion-electron system (eV)
  ---------------------------------------------------
  alpha Z        PSCENC =       370.05370877
  Ewald energy   TEWEN  =    -15531.61002019
  -Hartree energ DENC   =     -8406.11569070
  -exchange      EXHF   =         0.00000000
  -V(xc)+E(xc)   XCENC  =       417.90443675
  PAW double counting   =     28645.97059831   -27898.93242288
  entropy T*S    EENTRO =         0.00000000
  eigenvalues    EBANDS =     -2763.11854416
  atomic energy  EATOM  =     24749.00668030
  Solvation  Ediel_sol  =         0.00000000
  ---------------------------------------------------
  free energy    TOTEN  =      -416.84125380 eV

  energy without entropy =     -416.84125380  energy(sigma->0) =     -416.84125380


--------------------------------------------------------------------------------------------------------




----------------------------------------- Iteration    1(  11)  ---------------------------------------


    POTLOK:  cpu time    0.4480: real time    0.4464
    SETDIJ:  cpu time    0.7720: real time    0.7756
     EDDAV:  cpu time  328.6605: real time  328.8632
       DOS:  cpu time    0.0000: real time    0.0008
    CHARGE:  cpu time    9.4166: real time    9.4205
    MIXING:  cpu time    0.0120: real time    0.0145
    --------------------------------------------
      LOOP:  cpu time  339.3092: real time  340.1142

 eigenvalue-minimisations  :  9960
 total energy-change (2. order) : 0.1244664E-03  (-0.1336210E-02)
 number of electron     400.0000000 magnetization 
 augmentation part        7.9233209 magnetization 

 Broyden mixing:
  rms(total) = 0.20165E-01    rms(broyden)= 0.20165E-01
  rms(prec ) = 0.23982E-01
  weight for this iteration     100.00

 eigenvalues of (default mixing * dielectric matrix)
  average eigenvalue GAMMA=   1.5256
  2.4390  1.9646  1.5749  1.0558  1.0597  1.0597

 Free energy of the ion-electron system (eV)
  ---------------------------------------------------
  alpha Z        PSCENC =       370.05370877
  Ewald energy   TEWEN  =    -15531.61002019
  -Hartree energ DENC   =     -8405.42174093
  -exchange      EXHF   =         0.00000000
  -V(xc)+E(xc)   XCENC  =       417.92341440
  PAW double counting   =     28681.79043568   -27934.82808817
  entropy T*S    EENTRO =         0.00000000
  eigenvalues    EBANDS =     -2763.75551920
  atomic energy  EATOM  =     24749.00668030
  Solvation  Ediel_sol  =         0.00000000
  ---------------------------------------------------
  free energy    TOTEN  =      -416.84112934 eV

  energy without entropy =     -416.84112934  energy(sigma->0) =     -416.84112934


--------------------------------------------------------------------------------------------------------




----------------------------------------- Iteration    1(  12)  ---------------------------------------


    POTLOK:  cpu time    0.4480: real time    0.4466
    SETDIJ:  cpu time    0.7760: real time    0.7752
     EDDAV:  cpu time  325.2563: real time  325.4581
       DOS:  cpu time    0.0000: real time    0.0005
    CHARGE:  cpu time    9.4166: real time    9.4218
    MIXING:  cpu time    0.0120: real time    0.0147
    --------------------------------------------
      LOOP:  cpu time  335.9130: real time  336.1697

 eigenvalue-minimisations  :  9832
 total energy-change (2. order) :-0.1366526E-02  (-0.9427627E-03)
 number of electron     400.0000000 magnetization 
 augmentation part        7.9344754 magnetization 

 Broyden mixing:
  rms(total) = 0.10675E-01    rms(broyden)= 0.10675E-01
  rms(prec ) = 0.12780E-01
  weight for this iteration     100.00

 eigenvalues of (default mixing * dielectric matrix)
  average eigenvalue GAMMA=   1.4776
  2.6181  2.3064  1.3014  1.3014  0.9292  0.9434  0.9434

 Free energy of the ion-electron system (eV)
  ---------------------------------------------------
  alpha Z        PSCENC =       370.05370877
  Ewald energy   TEWEN  =    -15531.61002019
  -Hartree energ DENC   =     -8405.84687554
  -exchange      EXHF   =         0.00000000
  -V(xc)+E(xc)   XCENC  =       417.98225468
  PAW double counting   =     28673.65649388   -27926.71753866
  entropy T*S    EENTRO =         0.00000000
  eigenvalues    EBANDS =     -2763.36719910
  atomic energy  EATOM  =     24749.00668030
  Solvation  Ediel_sol  =         0.00000000
  ---------------------------------------------------
  free energy    TOTEN  =      -416.84249586 eV

  energy without entropy =     -416.84249586  energy(sigma->0) =     -416.84249586


--------------------------------------------------------------------------------------------------------




----------------------------------------- Iteration    1(  13)  ---------------------------------------


    POTLOK:  cpu time    0.4480: real time    0.4469
    SETDIJ:  cpu time    0.7760: real time    0.7762
     EDDAV:  cpu time  287.4140: real time  287.5927
       DOS:  cpu time    0.0000: real time    0.0006
    CHARGE:  cpu time    9.4166: real time    9.4206
    MIXING:  cpu time    0.0120: real time    0.0150
    --------------------------------------------
      LOOP:  cpu time  298.0706: real time  298.5114

 eigenvalue-minimisations  :  8424
 total energy-change (2. order) :-0.1464780E-03  (-0.1404598E-03)
 number of electron     400.0000000 magnetization 
 augmentation part        7.9330112 magnetization 

 Broyden mixing:
  rms(total) = 0.72940E-02    rms(broyden)= 0.72937E-02
  rms(prec ) = 0.83098E-02
  weight for this iteration     100.00

 eigenvalues of (default mixing * dielectric matrix)
  average eigenvalue GAMMA=   1.4453
  2.6116  2.3505  1.5010  1.2253  0.9530  0.9530  0.9842  0.9842

 Free energy of the ion-electron system (eV)
  ---------------------------------------------------
  alpha Z        PSCENC =       370.05370877
  Ewald energy   TEWEN  =    -15531.61002019
  -Hartree energ DENC   =     -8406.14677843
  -exchange      EXHF   =         0.00000000
  -V(xc)+E(xc)   XCENC  =       418.00789043
  PAW double counting   =     28673.86673420   -27926.94111494
  entropy T*S    EENTRO =         0.00000000
  eigenvalues    EBANDS =     -2763.07974248
  atomic energy  EATOM  =     24749.00668030
  Solvation  Ediel_sol  =         0.00000000
  ---------------------------------------------------
  free energy    TOTEN  =      -416.84264234 eV

  energy without entropy =     -416.84264234  energy(sigma->0) =     -416.84264234


--------------------------------------------------------------------------------------------------------




----------------------------------------- Iteration    1(  14)  ---------------------------------------


    POTLOK:  cpu time    0.4440: real time    0.4462
    SETDIJ:  cpu time    0.7760: real time    0.7751
     EDDAV:  cpu time  294.0624: real time  294.2453
       DOS:  cpu time    0.0000: real time    0.0008
    CHARGE:  cpu time    9.4126: real time    9.4181
    MIXING:  cpu time    0.0160: real time    0.0153
    --------------------------------------------
      LOOP:  cpu time  304.7150: real time  305.0320

 eigenvalue-minimisations  :  8672
 total energy-change (2. order) :-0.4191785E-04  (-0.2730294E-04)
 number of electron     400.0000000 magnetization 
 augmentation part        7.9331790 magnetization 

 Broyden mixing:
  rms(total) = 0.32877E-02    rms(broyden)= 0.32876E-02
  rms(prec ) = 0.38319E-02
  weight for this iteration     100.00

 eigenvalues of (default mixing * dielectric matrix)
  average eigenvalue GAMMA=   1.5343
  2.7368  2.7368  1.9247  1.0508  1.0508  1.2700  0.9394  1.0498  1.0498

 Free energy of the ion-electron system (eV)
  ---------------------------------------------------
  alpha Z        PSCENC =       370.05370877
  Ewald energy   TEWEN  =    -15531.61002019
  -Hartree energ DENC   =     -8406.45668323
  -exchange      EXHF   =         0.00000000
  -V(xc)+E(xc)   XCENC  =       418.02780339
  PAW double counting   =     28668.94610764   -27922.00724664
  entropy T*S    EENTRO =         0.00000000
  eigenvalues    EBANDS =     -2762.80303430
  atomic energy  EATOM  =     24749.00668030
  Solvation  Ediel_sol  =         0.00000000
  ---------------------------------------------------
  free energy    TOTEN  =      -416.84268426 eV

  energy without entropy =     -416.84268426  energy(sigma->0) =     -416.84268426


--------------------------------------------------------------------------------------------------------




----------------------------------------- Iteration    1(  15)  ---------------------------------------


    POTLOK:  cpu time    0.4480: real time    0.4493
    SETDIJ:  cpu time    0.7720: real time    0.7737
     EDDAV:  cpu time  281.1816: real time  281.3531
       DOS:  cpu time    0.0000: real time    0.0007
    CHARGE:  cpu time    9.4166: real time    9.4215
    MIXING:  cpu time    0.0160: real time    0.0157
    --------------------------------------------
      LOOP:  cpu time  291.8382: real time  292.0212

 eigenvalue-minimisations  :  8192
 total energy-change (2. order) :-0.4458632E-04  (-0.1601873E-04)
 number of electron     400.0000000 magnetization 
 augmentation part        7.9330139 magnetization 

 Broyden mixing:
  rms(total) = 0.11937E-02    rms(broyden)= 0.11934E-02
  rms(prec ) = 0.13759E-02
  weight for this iteration     100.00

 eigenvalues of (default mixing * dielectric matrix)
  average eigenvalue GAMMA=   1.4940
  2.9904  2.4223  2.0396  1.5292  1.0250  1.0250  1.0540  1.0540  0.9425  0.8583

 Free energy of the ion-electron system (eV)
  ---------------------------------------------------
  alpha Z        PSCENC =       370.05370877
  Ewald energy   TEWEN  =    -15531.61002019
  -Hartree energ DENC   =     -8406.75770484
  -exchange      EXHF   =         0.00000000
  -V(xc)+E(xc)   XCENC  =       418.04636530
  PAW double counting   =     28662.86227200   -27915.90681145
  entropy T*S    EENTRO =        -0.00000000
  eigenvalues    EBANDS =     -2762.53721873
  atomic energy  EATOM  =     24749.00668030
  Solvation  Ediel_sol  =         0.00000000
  ---------------------------------------------------
  free energy    TOTEN  =      -416.84272885 eV

  energy without entropy =     -416.84272885  energy(sigma->0) =     -416.84272885


--------------------------------------------------------------------------------------------------------




----------------------------------------- Iteration    1(  16)  ---------------------------------------


    POTLOK:  cpu time    0.4480: real time    0.4463
    SETDIJ:  cpu time    0.7720: real time    0.7745
     EDDAV:  cpu time  343.8575: real time  344.0719
       DOS:  cpu time    0.0000: real time    0.0007
    CHARGE:  cpu time    9.4166: real time    9.4229
    MIXING:  cpu time    0.0160: real time    0.0160
    --------------------------------------------
      LOOP:  cpu time  354.5102: real time  355.6734

 eigenvalue-minimisations  : 10528
 total energy-change (2. order) :-0.4058526E-05  (-0.1589761E-05)
 number of electron     400.0000000 magnetization 
 augmentation part        7.9329442 magnetization 

 Broyden mixing:
  rms(total) = 0.12427E-02    rms(broyden)= 0.12425E-02
  rms(prec ) = 0.13974E-02
  weight for this iteration     100.00

 eigenvalues of (default mixing * dielectric matrix)
  average eigenvalue GAMMA=   1.5043
  3.0671  2.4138  1.9566  1.9566  1.1188  1.1188  1.3125  0.9830  0.9830  0.8184
  0.8184

 Free energy of the ion-electron system (eV)
  ---------------------------------------------------
  alpha Z        PSCENC =       370.05370877
  Ewald energy   TEWEN  =    -15531.61002019
  -Hartree energ DENC   =     -8406.78226683
  -exchange      EXHF   =         0.00000000
  -V(xc)+E(xc)   XCENC  =       418.04936363
  PAW double counting   =     28664.12580810   -27917.16753559
  entropy T*S    EENTRO =        -0.00000000
  eigenvalues    EBANDS =     -2762.51847110
  atomic energy  EATOM  =     24749.00668030
  Solvation  Ediel_sol  =         0.00000000
  ---------------------------------------------------
[...]
   0.855E+01 0.357E-01 0.517E+02   -.872E+01 -.399E-01 -.572E+02   0.176E+00 0.420E-02 0.566E+01   -.188E-05 0.253E-07 0.967E-05
   0.224E+01 0.580E-01 0.515E+02   -.145E+01 -.651E-01 -.570E+02   -.806E+00 0.714E-02 0.561E+01   -.643E-05 0.261E-06 0.733E-05
   0.323E+02 -.392E+02 -.781E+01   -.353E+02 0.438E+02 0.920E+01   0.299E+01 -.464E+01 -.140E+01   -.645E-05 -.652E-05 -.964E-06
   0.283E+02 -.392E+02 -.125E+02   -.310E+02 0.438E+02 0.143E+02   0.273E+01 -.462E+01 -.189E+01   0.234E-05 -.115E-04 -.498E-05
   0.283E+02 -.392E+02 -.125E+02   -.310E+02 0.438E+02 0.143E+02   0.273E+01 -.462E+01 -.189E+01   0.176E-05 -.103E-04 -.474E-05
   0.323E+02 -.392E+02 -.781E+01   -.353E+02 0.438E+02 0.920E+01   0.299E+01 -.464E+01 -.140E+01   -.692E-05 -.552E-05 -.812E-06
   0.323E+02 -.392E+02 -.781E+01   -.353E+02 0.438E+02 0.920E+01   0.299E+01 -.464E+01 -.140E+01   -.596E-05 -.644E-05 -.251E-06
   0.283E+02 -.392E+02 -.125E+02   -.310E+02 0.438E+02 0.143E+02   0.273E+01 -.462E+01 -.189E+01   0.269E-05 -.106E-04 -.398E-05
   0.283E+02 -.392E+02 -.125E+02   -.310E+02 0.438E+02 0.143E+02   0.273E+01 -.462E+01 -.189E+01   0.195E-05 -.119E-04 -.377E-05
   0.323E+02 -.392E+02 -.781E+01   -.353E+02 0.438E+02 0.920E+01   0.299E+01 -.464E+01 -.140E+01   -.487E-05 -.814E-05 -.397E-06
   0.323E+02 0.391E+02 -.790E+01   -.353E+02 -.438E+02 0.931E+01   0.298E+01 0.463E+01 -.142E+01   -.617E-05 0.516E-05 -.860E-06
   0.282E+02 0.392E+02 -.125E+02   -.309E+02 -.438E+02 0.144E+02   0.273E+01 0.463E+01 -.189E+01   0.162E-05 0.922E-05 -.468E-05
   0.282E+02 0.392E+02 -.125E+02   -.309E+02 -.438E+02 0.144E+02   0.273E+01 0.463E+01 -.189E+01   0.150E-05 0.117E-04 -.490E-05
   0.323E+02 0.391E+02 -.790E+01   -.353E+02 -.438E+02 0.931E+01   0.298E+01 0.463E+01 -.142E+01   -.626E-05 0.776E-05 -.129E-05
   0.323E+02 0.391E+02 -.790E+01   -.353E+02 -.438E+02 0.931E+01   0.298E+01 0.463E+01 -.142E+01   -.587E-05 0.667E-05 -.232E-06
   0.282E+02 0.392E+02 -.125E+02   -.309E+02 -.438E+02 0.144E+02   0.273E+01 0.463E+01 -.189E+01   0.375E-05 0.121E-04 -.404E-05
   0.282E+02 0.392E+02 -.125E+02   -.309E+02 -.438E+02 0.144E+02   0.273E+01 0.463E+01 -.189E+01   0.183E-05 0.115E-04 -.389E-05
   0.323E+02 0.391E+02 -.790E+01   -.353E+02 -.438E+02 0.931E+01   0.298E+01 0.463E+01 -.142E+01   -.597E-05 0.690E-05 -.123E-06
   -.347E+02 -.478E+02 0.146E+02   0.384E+02 0.532E+02 -.162E+02   -.369E+01 -.550E+01 0.156E+01   0.143E-04 0.174E-04 -.494E-05
   -.318E+02 -.485E+02 0.199E+02   0.352E+02 0.540E+02 -.221E+02   -.342E+01 -.550E+01 0.219E+01   0.101E-04 0.139E-04 -.802E-05
   -.318E+02 -.485E+02 0.199E+02   0.352E+02 0.540E+02 -.221E+02   -.342E+01 -.550E+01 0.219E+01   0.109E-04 0.153E-04 -.835E-05
   -.347E+02 -.478E+02 0.146E+02   0.384E+02 0.532E+02 -.162E+02   -.369E+01 -.550E+01 0.156E+01   0.157E-04 0.192E-04 -.527E-05
   -.347E+02 -.478E+02 0.146E+02   0.384E+02 0.532E+02 -.162E+02   -.369E+01 -.550E+01 0.156E+01   0.140E-04 0.185E-04 -.447E-05
   -.318E+02 -.485E+02 0.199E+02   0.352E+02 0.540E+02 -.221E+02   -.342E+01 -.550E+01 0.219E+01   0.935E-05 0.137E-04 -.670E-05
   -.318E+02 -.485E+02 0.199E+02   0.352E+02 0.540E+02 -.221E+02   -.342E+01 -.550E+01 0.219E+01   0.748E-05 0.948E-05 -.759E-05
   -.347E+02 -.478E+02 0.146E+02   0.384E+02 0.532E+02 -.162E+02   -.369E+01 -.550E+01 0.156E+01   0.145E-04 0.163E-04 -.426E-05
   -.348E+02 0.478E+02 0.145E+02   0.384E+02 -.532E+02 -.160E+02   -.369E+01 0.550E+01 0.155E+01   0.154E-04 -.211E-04 -.485E-05
   -.319E+02 0.485E+02 0.198E+02   0.353E+02 -.539E+02 -.220E+02   -.343E+01 0.550E+01 0.218E+01   0.991E-05 -.151E-04 -.769E-05
   -.319E+02 0.485E+02 0.198E+02   0.353E+02 -.539E+02 -.220E+02   -.343E+01 0.550E+01 0.218E+01   0.985E-05 -.118E-04 -.847E-05
   -.348E+02 0.478E+02 0.145E+02   0.384E+02 -.532E+02 -.160E+02   -.369E+01 0.550E+01 0.155E+01   0.159E-04 -.179E-04 -.559E-05
   -.348E+02 0.478E+02 0.145E+02   0.384E+02 -.532E+02 -.160E+02   -.369E+01 0.550E+01 0.155E+01   0.120E-04 -.150E-04 -.415E-05
   -.319E+02 0.485E+02 0.198E+02   0.353E+02 -.539E+02 -.220E+02   -.343E+01 0.550E+01 0.218E+01   0.880E-05 -.126E-04 -.676E-05
   -.319E+02 0.485E+02 0.198E+02   0.353E+02 -.539E+02 -.220E+02   -.343E+01 0.550E+01 0.218E+01   0.948E-05 -.131E-04 -.764E-05
   -.348E+02 0.478E+02 0.145E+02   0.384E+02 -.532E+02 -.160E+02   -.369E+01 0.550E+01 0.155E+01   0.151E-04 -.175E-04 -.418E-05
   0.922E+01 -.872E-01 -.649E+02   -.989E+01 0.972E-01 0.718E+02   0.664E+00 -.101E-01 -.701E+01   -.259E-05 -.114E-05 0.175E-04
   -.192E+01 -.564E-01 -.617E+02   0.251E+01 0.614E-01 0.683E+02   -.626E+00 -.488E-02 -.675E+01   0.503E-06 -.918E-06 0.160E-04
   -.192E+01 -.564E-01 -.617E+02   0.251E+01 0.614E-01 0.683E+02   -.626E+00 -.488E-02 -.675E+01   0.182E-05 0.121E-05 0.183E-04
   0.922E+01 -.872E-01 -.649E+02   -.989E+01 0.972E-01 0.718E+02   0.664E+00 -.101E-01 -.701E+01   -.162E-05 0.117E-05 0.183E-04
   0.922E+01 -.872E-01 -.649E+02   -.989E+01 0.972E-01 0.718E+02   0.664E+00 -.101E-01 -.701E+01   -.342E-05 0.143E-06 0.186E-04
   -.192E+01 -.564E-01 -.617E+02   0.251E+01 0.614E-01 0.683E+02   -.626E+00 -.488E-02 -.675E+01   0.425E-06 0.181E-06 0.177E-04
   -.192E+01 -.564E-01 -.617E+02   0.251E+01 0.614E-01 0.683E+02   -.626E+00 -.488E-02 -.675E+01   0.114E-05 -.428E-06 0.199E-04
   0.922E+01 -.872E-01 -.649E+02   -.989E+01 0.972E-01 0.718E+02   0.664E+00 -.101E-01 -.701E+01   -.175E-05 -.576E-07 0.198E-04
   -.309E+02 -.720E+01 -.117E+02   0.298E+02 0.724E+01 0.114E+02   0.111E+01 -.431E-01 0.277E+00   -.192E-05 0.549E-04 -.733E-05
   -.309E+02 0.734E+01 -.117E+02   0.298E+02 -.739E+01 0.114E+02   0.110E+01 0.530E-01 0.276E+00   0.191E-04 0.168E-04 -.225E-04
   -.309E+02 0.734E+01 -.117E+02   0.298E+02 -.739E+01 0.114E+02   0.110E+01 0.530E-01 0.276E+00   0.100E-04 -.575E-04 -.836E-04
   -.309E+02 -.720E+01 -.117E+02   0.298E+02 0.724E+01 0.114E+02   0.111E+01 -.431E-01 0.277E+00   0.121E-04 -.172E-04 -.459E-04
   -.309E+02 -.720E+01 -.117E+02   0.298E+02 0.724E+01 0.114E+02   0.111E+01 -.431E-01 0.277E+00   0.122E-04 0.640E-04 -.252E-06
   -.309E+02 0.734E+01 -.117E+02   0.298E+02 -.739E+01 0.114E+02   0.110E+01 0.530E-01 0.276E+00   0.622E-05 0.124E-04 0.139E-04
   -.309E+02 0.734E+01 -.117E+02   0.298E+02 -.739E+01 0.114E+02   0.110E+01 0.530E-01 0.276E+00   0.609E-05 -.631E-04 0.692E-04
   -.309E+02 -.720E+01 -.117E+02   0.298E+02 0.724E+01 0.114E+02   0.111E+01 -.431E-01 0.277E+00   0.192E-04 -.114E-04 0.308E-04
   -.173E+02 -.375E+01 0.561E+01   0.175E+02 0.376E+01 -.554E+01   -.156E+00 -.109E-01 -.671E-01   0.131E-04 0.274E-04 -.193E-05
   -.173E+02 0.383E+01 0.561E+01   0.174E+02 -.384E+01 -.555E+01   -.156E+00 0.121E-01 -.669E-01   0.168E-04 -.984E-05 -.413E-05
   -.173E+02 0.383E+01 0.561E+01   0.174E+02 -.384E+01 -.555E+01   -.156E+00 0.121E-01 -.669E-01   0.142E-04 -.274E-04 0.485E-05
   -.173E+02 -.375E+01 0.561E+01   0.175E+02 0.376E+01 -.554E+01   -.156E+00 -.109E-01 -.671E-01   0.164E-04 0.962E-05 0.947E-06
   -.173E+02 -.375E+01 0.561E+01   0.175E+02 0.376E+01 -.554E+01   -.156E+00 -.109E-01 -.671E-01   0.136E-04 0.271E-04 0.615E-05
   -.173E+02 0.383E+01 0.561E+01   0.174E+02 -.384E+01 -.555E+01   -.156E+00 0.121E-01 -.669E-01   0.156E-04 -.934E-05 0.947E-05
   -.173E+02 0.383E+01 0.561E+01   0.174E+02 -.384E+01 -.555E+01   -.156E+00 0.121E-01 -.669E-01   0.116E-04 -.265E-04 0.405E-06
   -.173E+02 -.375E+01 0.561E+01   0.175E+02 0.376E+01 -.554E+01   -.156E+00 -.109E-01 -.671E-01   0.158E-04 0.917E-05 0.529E-05
   -.259E+02 -.487E-01 -.161E+02   0.260E+02 0.499E-01 0.166E+02   -.387E-01 -.960E-03 -.543E+00   0.448E-04 -.226E-05 0.908E-05
   -.236E+01 -.596E-01 -.163E+02   0.217E+01 0.609E-01 0.169E+02   0.183E+00 -.101E-02 -.685E+00   -.420E-05 -.182E-05 0.615E-05
   -.236E+01 -.596E-01 -.163E+02   0.217E+01 0.609E-01 0.169E+02   0.183E+00 -.101E-02 -.685E+00   -.675E-05 0.243E-05 0.104E-04
   -.259E+02 -.487E-01 -.161E+02   0.260E+02 0.499E-01 0.166E+02   -.387E-01 -.960E-03 -.543E+00   0.466E-04 0.179E-05 0.670E-05
   -.259E+02 -.487E-01 -.161E+02   0.260E+02 0.499E-01 0.166E+02   -.387E-01 -.960E-03 -.543E+00   0.442E-04 -.546E-05 -.996E-05
   -.236E+01 -.596E-01 -.163E+02   0.217E+01 0.609E-01 0.169E+02   0.183E+00 -.101E-02 -.685E+00   -.510E-05 -.538E-05 -.715E-05
   -.236E+01 -.596E-01 -.163E+02   0.217E+01 0.609E-01 0.169E+02   0.183E+00 -.101E-02 -.685E+00   -.796E-05 0.482E-05 -.864E-05
   -.259E+02 -.487E-01 -.161E+02   0.260E+02 0.499E-01 0.166E+02   -.387E-01 -.960E-03 -.543E+00   0.474E-04 0.573E-05 -.636E-05
   0.441E+01 0.399E+01 -.271E+01   -.388E+01 -.417E+01 0.232E+01   -.540E+00 0.175E+00 0.404E+00   -.766E-05 0.393E-04 -.852E-05
   0.441E+01 -.397E+01 -.269E+01   -.388E+01 0.416E+01 0.230E+01   -.540E+00 -.176E+00 0.405E+00   -.502E-05 -.227E-04 -.878E-05
   0.441E+01 -.397E+01 -.269E+01   -.388E+01 0.416E+01 0.230E+01   -.540E+00 -.176E+00 0.405E+00   -.644E-05 -.411E-04 -.146E-04
   0.441E+01 0.399E+01 -.271E+01   -.388E+01 -.417E+01 0.232E+01   -.540E+00 0.175E+00 0.404E+00   -.818E-05 0.244E-04 -.145E-04
   0.441E+01 0.399E+01 -.271E+01   -.388E+01 -.417E+01 0.232E+01   -.540E+00 0.175E+00 0.404E+00   -.116E-04 0.407E-04 0.318E-05
   0.441E+01 -.397E+01 -.269E+01   -.388E+01 0.416E+01 0.230E+01   -.540E+00 -.176E+00 0.405E+00   -.446E-05 -.235E-04 0.280E-05
   0.441E+01 -.397E+01 -.269E+01   -.388E+01 0.416E+01 0.230E+01   -.540E+00 -.176E+00 0.405E+00   -.136E-04 -.405E-04 0.112E-04
   0.441E+01 0.399E+01 -.271E+01   -.388E+01 -.417E+01 0.232E+01   -.540E+00 0.175E+00 0.404E+00   -.310E-05 0.232E-04 0.104E-04
 -----------------------------------------------------------------------------------------------
   -.536E+02 -.108E+00 -.230E+02   0.104E-12 0.808E-13 0.266E-13   0.536E+02 0.108E+00 0.230E+02   -.208E-03 -.139E-05 -.187E-03
 
 
 POSITION                                       TOTAL-FORCE (eV/Angst)
 -----------------------------------------------------------------------------------
      2.57869      3.11394      2.83519         0.103190     -0.000044     -0.025107
      8.72928      3.11430      3.12414         0.095163      0.000002     -0.042266
      2.44146      9.34211      3.05467         0.095163      0.000002     -0.042266
      8.86770      9.34367      2.90392         0.103190     -0.000044     -0.025107
      2.64839      3.11398      9.20890         0.103190     -0.000044     -0.025107
      8.79899      3.11434      9.49785         0.095163      0.000002     -0.042266
      2.51117      9.34215      9.42838         0.095163      0.000002     -0.042266
      8.93741      9.34371      9.27763         0.103190     -0.000044     -0.025107
      3.88796      3.11526      3.53969        -0.058632     -0.000381      0.024659
     10.13765      3.11577      3.59584        -0.049985     -0.000426      0.038460
      3.84983      9.34358      3.52637        -0.049985     -0.000426      0.038460
     10.17698      9.34499      3.60842        -0.058632     -0.000381      0.024659
      3.95767      3.11530      9.91340        -0.058632     -0.000381      0.024659
     10.20735      3.11582      9.96955        -0.049985     -0.000426      0.038460
      3.91953      9.34363      9.90008        -0.049985     -0.000426      0.038460
     10.24668      9.34503      9.98213        -0.058632     -0.000381      0.024659
      2.76328      3.11258      1.74746        -0.020072      0.000088      0.130880
      8.72397      3.11350      2.02087         0.005013      0.000004      0.129699
      2.43615      9.34132      1.95140         0.005013      0.000004      0.129699
      9.05230      9.34230      1.81618        -0.020072      0.000088      0.130880
      2.83298      3.11262      8.12117        -0.020072      0.000088      0.130880
      8.79368      3.11355      8.39458         0.005013      0.000004      0.129699
      2.50586      9.34136      8.32511         0.005013      0.000004      0.129699
      9.12200      9.34235      8.18989        -0.020072      0.000088      0.130880
      2.01922      4.01712      3.12363         0.039385     -0.024010     -0.007227
      8.22337      4.01590      3.50197         0.037535     -0.024723     -0.012438
      1.93555     10.24372      3.43249         0.037535     -0.024723     -0.012438
      8.30824     10.24685      3.19236         0.039385     -0.024010     -0.007227
      2.08893      4.01716      9.49734         0.039385     -0.024010     -0.007227
      8.29308      4.01595      9.87568         0.037535     -0.024723     -0.012438
      2.00526     10.24376      9.80620         0.037535     -0.024723     -0.012438
      8.37794     10.24689      9.56607         0.039385     -0.024010     -0.007227
      2.01995      2.21107      3.12600         0.038907      0.024000     -0.007505
      8.22498      2.21235      3.50330         0.037008      0.024766     -0.012665
      1.93716      8.44016      3.43382         0.037008      0.024766     -0.012665
      8.30897      8.44080      3.19473         0.038907      0.024000     -0.007505
      2.08965      2.21112      9.49971         0.038907      0.024000     -0.007505
      8.29469      2.21240      9.87701         0.037008      0.024766     -0.012665
      2.00686      8.44021      9.80753         0.037008      0.024766     -0.012665
      8.37867      8.44084      9.56844         0.038907      0.024000     -0.007505
      4.45585      3.96294      3.29767        -0.048694     -0.034520      0.009462
     10.66011      3.95926      3.26017        -0.046305     -0.033489      0.017795
      4.37229     10.18707      3.19070        -0.046305     -0.033489      0.017795
     10.74487     10.19267      3.36640        -0.048694     -0.034520      0.009462
      4.52555      3.96299      9.67139        -0.048694     -0.034520      0.009462
     10.72982      3.95930      9.63388        -0.046305     -0.033489      0.017795
      4.44199     10.18711      9.56441        -0.046305     -0.033489      0.017795
     10.81457     10.19271      9.74011        -0.048694     -0.034520      0.009462
      4.45617      2.26706      3.30004        -0.049202      0.035067      0.008936
     10.66128      2.27244      3.26145        -0.046885      0.033989      0.017404
      4.37346      8.50025      3.19198        -0.046885      0.033989      0.017404
     10.74518      8.49678      3.36877        -0.049202      0.035067      0.008936
      4.52587      2.26710      9.67375        -0.049202      0.035067      0.008936
     10.73099      2.27248      9.63516        -0.046885      0.033989      0.017404
      4.44317      8.50029      9.56569        -0.046885      0.033989      0.017404
     10.81489      8.49683      9.74248        -0.049202      0.035067      0.008936
      3.78408      3.11675      4.57711        -0.004792     -0.000015     -0.130335
     10.22993      3.11653      4.64161        -0.035786      0.000080     -0.127917
      3.94211      9.34434      4.57214        -0.035786      0.000080     -0.127917
     10.07310      9.34648      4.64584        -0.004792     -0.000015     -0.130335
      3.85379      3.11680     10.95082        -0.004792     -0.000015     -0.130335
     10.29963      3.11658     11.01532        -0.035786      0.000080     -0.127917
      4.01181      9.34439     10.94585        -0.035786      0.000080     -0.127917
     10.14280      9.34652     11.01955        -0.004792     -0.000015     -0.130335
      6.01063      6.24092      6.29599         0.000749      0.001267     -0.000070
     12.29892      6.21922      6.36512         0.000729     -0.001633     -0.000063
      6.01110     12.44703      6.29565         0.000729     -0.001633     -0.000063
     12.29845      0.01311      6.36546         0.000749      0.001267     -0.000070
      6.08033      6.24096     12.66970         0.000749      0.001267     -0.000070
     12.36863      6.21927     12.73883         0.000729     -0.001633     -0.000063
      6.08081     12.44708     12.66936         0.000729     -0.001633     -0.000063
     12.36816      0.01315     12.73917         0.000749      0.001267     -0.000070
      5.75313      6.23558      3.09088         0.001916      0.000592     -0.003679
     12.04120      6.22448      3.16005         0.001888     -0.000912     -0.003671
      5.75338     12.45229      3.09057         0.001888     -0.000912     -0.003671
     12.04095      0.00777      3.16035         0.001916      0.000592     -0.003679
      5.82283      6.23563      9.46459         0.001916      0.000592     -0.003679
     12.11091      6.22452      9.53376         0.001888     -0.000912     -0.003671
      5.82309     12.45233      9.46428         0.001888     -0.000912     -0.003671
     12.11065      0.00781      9.53406         0.001916      0.000592     -0.003679
      5.87675      3.11498      0.17325         0.018926      0.000283     -0.015827
     11.72555      3.11595      0.32142        -0.003296      0.000283     -0.012619
      5.43773      9.34376      0.25194        -0.003296      0.000283     -0.012619
     12.16577      9.34470      0.24197         0.018926      0.000283     -0.015827
      5.94646      3.11502      6.54696         0.018926      0.000283     -0.015827
     11.79525      3.11600      6.69513        -0.003296      0.000283     -0.012619
      5.50743      9.34381      6.62565        -0.003296      0.000283     -0.012619
     12.23547      9.34475      6.61568         0.018926      0.000283     -0.015827
      2.78368      5.96878      5.90913        -0.008377     -0.011126      0.012056
      9.07204      6.49056      5.97820        -0.008384      0.010859      0.012037
      2.78303      0.26084      5.90947        -0.008384      0.010859      0.012037
      9.07270     12.19851      5.97786        -0.008377     -0.011126      0.012056
      2.85339      5.96882     12.28284        -0.008377     -0.011126      0.012056
      9.14175      6.49061     12.35191        -0.008384      0.010859      0.012037
      2.85273      0.26088     12.28319        -0.008384      0.010859      0.012037
      9.14240     12.19855     12.35157        -0.008377     -0.011126      0.012056
 -----------------------------------------------------------------------------------
    total drift:                                0.003699     -0.000029     -0.001131


--------------------------------------------------------------------------------------------------------



  FREE ENERGIE OF THE ION-ELECTRON SYSTEM (eV)
  ---------------------------------------------------
  free  energy   TOTEN  =      -416.84273298 eV

  energy  without entropy=     -416.84273298  energy(sigma->0) =     -416.84273298
 


--------------------------------------------------------------------------------------------------------


    POTLOK:  cpu time    1.2361: real time    1.2341


--------------------------------------------------------------------------------------------------------


     LOOP+:  cpu time 7046.8684: real time 7058.5928
    4ORBIT:  cpu time    0.0000: real time    0.0000

 total amount of memory used by VASP on root node   697522. kBytes
========================================================================

   base      :      30000. kBytes
   nonl-proj :     325712. kBytes
   fftplans  :      80881. kBytes
   grid      :      57435. kBytes
   one-center:        497. kBytes
   wavefun   :     202997. kBytes
 
  
  
 General timing and accounting informations for this job:
 ========================================================
  
                  Total CPU time used (sec):     7096.423
                            User time (sec):     7094.299
                          System time (sec):        2.124
                         Elapsed time (sec):     7112.770
  
                   Maximum memory used (kb):      640360.
                   Average memory used (kb):           0.
  
                          Minor page faults:       281050
                          Major page faults:            0
                 Voluntary context switches:          869
