  12  12   1   0
  0.2070820E+02  0.6290120E-09  0.6273890E-09  0.6297040E-09  0.5000000E-15
  1.000000000000000E-004
  CAR 
 Name                                    
     15.59368134    -19.76166467  301      1.46627433      1.00000000
    -19.762  0.0000E+00  0.0000E+00
    -19.644  0.0000E+00  0.0000E+00
    -19.526  0.0000E+00  0.0000E+00
    -19.408  0.0000E+00  0.0000E+00
    -19.290  0.0000E+00  0.0000E+00
    -19.172  0.0000E+00  0.0000E+00
    -19.055  0.0000E+00  0.0000E+00
    -18.937  0.0000E+00  0.0000E+00
    -18.819  0.0000E+00  0.0000E+00
    -18.701  0.0000E+00  0.0000E+00
    -18.583  0.0000E+00  0.0000E+00
    -18.465  0.0000E+00  0.0000E+00
    -18.347  0.0000E+00  0.0000E+00
    -18.230  0.0000E+00  0.0000E+00
    -18.112  0.1697E+02  0.2000E+01
    -17.994  0.0000E+00  0.2000E+01
    -17.876  0.0000E+00  0.2000E+01
    -17.758  0.0000E+00  0.2000E+01
    -17.640  0.0000E+00  0.2000E+01
    -17.522  0.0000E+00  0.2000E+01
    -17.405  0.0000E+00  0.2000E+01
    -17.287  0.0000E+00  0.2000E+01
    -17.169  0.0000E+00  0.2000E+01
    -17.051  0.0000E+00  0.2000E+01
    -16.933  0.0000E+00  0.2000E+01
    -16.815  0.0000E+00  0.2000E+01
    -16.698  0.0000E+00  0.2000E+01
    -16.580  0.0000E+00  0.2000E+01
    -16.462  0.0000E+00  0.2000E+01
    -16.344  0.0000E+00  0.2000E+01
    -16.226  0.0000E+00  0.2000E+01
    -16.108  0.0000E+00  0.2000E+01
    -15.990  0.0000E+00  0.2000E+01
    -15.873  0.0000E+00  0.2000E+01
    -15.755  0.0000E+00  0.2000E+01
    -15.637  0.0000E+00  0.2000E+01
    -15.519  0.0000E+00  0.2000E+01
    -15.401  0.0000E+00  0.2000E+01
    -15.283  0.0000E+00  0.2000E+01
    -15.165  0.2659E+02  0.5133E+01
    -15.048  0.3394E+02  0.1200E+02
    -14.930  0.0000E+00  0.1200E+02
    -14.812  0.0000E+00  0.1200E+02
    -14.694  0.0000E+00  0.1200E+02
    -14.576  0.0000E+00  0.1200E+02
    -14.458  0.0000E+00  0.1200E+02
    -14.341  0.0000E+00  0.1200E+02
    -14.223  0.0000E+00  0.1200E+02
    -14.105  0.0000E+00  0.1200E+02
    -13.987  0.0000E+00  0.1200E+02
    -13.869  0.0000E+00  0.1200E+02
    -13.751  0.0000E+00  0.1200E+02
    -13.633  0.0000E+00  0.1200E+02
    -13.516  0.0000E+00  0.1200E+02
    -13.398  0.0000E+00  0.1200E+02
    -13.280  0.0000E+00  0.1200E+02
    -13.162  0.0000E+00  0.1200E+02
    -13.044  0.0000E+00  0.1200E+02
    -12.926  0.0000E+00  0.1200E+02
    -12.808  0.0000E+00  0.1200E+02
    -12.691  0.0000E+00  0.1200E+02
    -12.573  0.0000E+00  0.1200E+02
    -12.455  0.0000E+00  0.1200E+02
    -12.337  0.0000E+00  0.1200E+02
    -12.219  0.0000E+00  0.1200E+02
    -12.101  0.0000E+00  0.1200E+02
    -11.983  0.0000E+00  0.1200E+02
    -11.866  0.0000E+00  0.1200E+02
    -11.748  0.0000E+00  0.1200E+02
    -11.630  0.0000E+00  0.1200E+02
    -11.512  0.0000E+00  0.1200E+02
    -11.394  0.5718E-09  0.1200E+02
    -11.276  0.7098E+01  0.1284E+02
    -11.159  0.0000E+00  0.1400E+02
    -11.041  0.0000E+00  0.1400E+02
    -10.923  0.2171E+00  0.1403E+02
    -10.805  0.1715E+01  0.1430E+02
    -10.687  0.4873E+01  0.1507E+02
    -10.569  0.4765E+01  0.1595E+02
    -10.451  0.5401E+01  0.1671E+02
    -10.334  0.4330E+01  0.1753E+02
    -10.216  0.2076E+01  0.1802E+02
    -10.098  0.1004E+02  0.1921E+02
     -9.980  0.4382E+01  0.1999E+02
     -9.862  0.0000E+00  0.2000E+02
     -9.744  0.0000E+00  0.2000E+02
     -9.626  0.0000E+00  0.2000E+02
     -9.509  0.0000E+00  0.2000E+02
     -9.391  0.0000E+00  0.2000E+02
     -9.273  0.0000E+00  0.2000E+02
     -9.155  0.0000E+00  0.2000E+02
     -9.037  0.0000E+00  0.2000E+02
     -8.919  0.0000E+00  0.2000E+02
     -8.802  0.0000E+00  0.2000E+02
     -8.684  0.0000E+00  0.2000E+02
     -8.566  0.0000E+00  0.2000E+02
     -8.448  0.0000E+00  0.2000E+02
     -8.330  0.0000E+00  0.2000E+02
     -8.212  0.0000E+00  0.2000E+02
     -8.094  0.0000E+00  0.2000E+02
     -7.977  0.0000E+00  0.2000E+02
     -7.859  0.7077E-05  0.2000E+02
     -7.741  0.1395E+02  0.2187E+02
     -7.623  0.1394E+02  0.2364E+02
     -7.505  0.0000E+00  0.2400E+02
     -7.387  0.0000E+00  0.2400E+02
     -7.269  0.0000E+00  0.2400E+02
     -7.152  0.7857E-01  0.2401E+02
     -7.034  0.4714E+00  0.2406E+02
     -6.916  0.9407E+00  0.2418E+02
     -6.798  0.6281E+00  0.2425E+02
     -6.680  0.9194E-02  0.2431E+02
     -6.562  0.5572E+00  0.2456E+02
     -6.444  0.9428E+00  0.2489E+02
     -6.327  0.1886E+01  0.2511E+02
     -6.209  0.2553E+01  0.2541E+02
     -6.091  0.1900E+01  0.2567E+02
     -5.973  0.9986E+00  0.2580E+02
     -5.855  0.7357E+01  0.2669E+02
     -5.737  0.1630E+01  0.2793E+02
     -5.620  0.4602E+00  0.2799E+02
     -5.502  0.7676E-04  0.2799E+02
     -5.384  0.0000E+00  0.2800E+02
     -5.266  0.0000E+00  0.2800E+02
     -5.148  0.0000E+00  0.2800E+02
     -5.030  0.0000E+00  0.2800E+02
     -4.912  0.0000E+00  0.2800E+02
     -4.795  0.0000E+00  0.2800E+02
     -4.677  0.0000E+00  0.2800E+02
     -4.559  0.0000E+00  0.2800E+02
     -4.441  0.0000E+00  0.2800E+02
     -4.323  0.0000E+00  0.2800E+02
     -4.205  0.0000E+00  0.2800E+02
     -4.087  0.0000E+00  0.2800E+02
     -3.970  0.0000E+00  0.2800E+02
     -3.852  0.0000E+00  0.2800E+02
     -3.734  0.0000E+00  0.2800E+02
     -3.616  0.4906E+00  0.2806E+02
     -3.498  0.2703E+02  0.3200E+02
     -3.380  0.0000E+00  0.3200E+02
     -3.263  0.0000E+00  0.3200E+02
     -3.145  0.0000E+00  0.3200E+02
     -3.027  0.0000E+00  0.3200E+02
     -2.909  0.0000E+00  0.3200E+02
     -2.791  0.0000E+00  0.3200E+02
     -2.673  0.0000E+00  0.3200E+02
     -2.555  0.0000E+00  0.3200E+02
     -2.438  0.0000E+00  0.3200E+02
     -2.320  0.0000E+00  0.3200E+02
     -2.202  0.7109E+00  0.3208E+02
     -2.084  0.3404E+01  0.3255E+02
     -1.966  0.1699E+01  0.3288E+02
     -1.848  0.1707E+01  0.3321E+02
     -1.730  0.2755E+01  0.3362E+02
     -1.613  0.3936E+01  0.3430E+02
     -1.495  0.2668E+01  0.3478E+02
     -1.377  0.6107E+00  0.3500E+02
     -1.259  0.0000E+00  0.3500E+02
     -1.141  0.7602E-01  0.3501E+02
     -1.023  0.1910E+01  0.3525E+02
     -0.905  0.6699E+01  0.3627E+02
     -0.788  0.4754E+01  0.3707E+02
     -0.670  0.3637E+01  0.3794E+02
     -0.552  0.2598E+01  0.3833E+02
     -0.434  0.4914E+01  0.3911E+02
     -0.316  0.5274E+01  0.3986E+02
     -0.198  0.6193E+01  0.4097E+02
     -0.081  0.4082E+01  0.4180E+02
      0.037  0.9118E+01  0.4317E+02
      0.155  0.6624E+01  0.4425E+02
      0.273  0.5675E+01  0.4535E+02
      0.391  0.7385E+01  0.4647E+02
      0.509  0.6895E+01  0.4799E+02
      0.627  0.6677E+01  0.4893E+02
      0.744  0.2482E+01  0.4938E+02
      0.862  0.9469E+00  0.4969E+02
      0.980  0.3124E+00  0.4985E+02
      1.098  0.3929E+00  0.4993E+02
      1.216  0.2761E+00  0.4999E+02
      1.334  0.3265E-04  0.4999E+02
      1.452  0.0000E+00  0.5000E+02
      1.569  0.0000E+00  0.5000E+02
      1.687  0.0000E+00  0.5000E+02
      1.805  0.0000E+00  0.5000E+02
      1.923  0.0000E+00  0.5000E+02
      2.041  0.0000E+00  0.5000E+02
      2.159  0.0000E+00  0.5000E+02
      2.277  0.0000E+00  0.5000E+02
      2.394  0.0000E+00  0.5000E+02
      2.512  0.0000E+00  0.5000E+02
      2.630  0.0000E+00  0.5000E+02
      2.748  0.2890E-13  0.5000E+02
      2.866  0.1571E+00  0.5002E+02
      2.984  0.8685E+00  0.5012E+02
      3.101  0.3977E+00  0.5025E+02
      3.219  0.9522E+00  0.5040E+02
      3.337  0.9819E+00  0.5068E+02
      3.455  0.8507E+00  0.5085E+02
      3.573  0.9437E+00  0.5097E+02
      3.691  0.4714E+00  0.5106E+02
      3.809  0.9247E+00  0.5116E+02
      3.926  0.4689E+00  0.5128E+02
      4.044  0.1753E+01  0.5156E+02
      4.162  0.1425E+01  0.5191E+02
      4.280  0.2878E+01  0.5234E+02
      4.398  0.1927E+01  0.5278E+02
      4.516  0.7831E+00  0.5298E+02
      4.634  0.1571E+00  0.5300E+02
      4.751  0.7484E-01  0.5301E+02
      4.869  0.8413E-01  0.5302E+02
      4.987  0.3143E+00  0.5306E+02
      5.105  0.6424E+00  0.5317E+02
      5.223  0.1638E+01  0.5347E+02
      5.341  0.1459E+01  0.5373E+02
      5.458  0.3065E+01  0.5427E+02
      5.576  0.2925E+01  0.5480E+02
      5.694  0.3398E+01  0.5534E+02
      5.812  0.2298E+01  0.5572E+02
      5.930  0.2737E+01  0.5633E+02
      6.048  0.4060E+01  0.5697E+02
      6.166  0.3881E+01  0.5771E+02
      6.283  0.3595E+01  0.5830E+02
      6.401  0.4866E+01  0.5905E+02
      6.519  0.3419E+01  0.5980E+02
      6.637  0.2033E+01  0.6027E+02
      6.755  0.3075E+01  0.6077E+02
      6.873  0.3905E+01  0.6146E+02
      6.991  0.4592E+01  0.6231E+02
      7.108  0.3279E+01  0.6288E+02
      7.226  0.3726E+01  0.6357E+02
      7.344  0.3316E+01  0.6412E+02
      7.462  0.5336E+01  0.6507E+02
      7.580  0.4313E+01  0.6589E+02
      7.698  0.3589E+01  0.6653E+02
      7.816  0.3811E+01  0.6717E+02
      7.933  0.4105E+01  0.6775E+02
      8.051  0.4555E+01  0.6851E+02
      8.169  0.4757E+01  0.6932E+02
      8.287  0.4841E+01  0.7012E+02
      8.405  0.6062E+01  0.7114E+02
      8.523  0.3775E+01  0.7189E+02
      8.640  0.5056E+01  0.7286E+02
      8.758  0.4881E+01  0.7367E+02
      8.876  0.4827E+01  0.7448E+02
      8.994  0.6657E+01  0.7544E+02
      9.112  0.2925E+01  0.7608E+02
      9.230  0.4384E+01  0.7691E+02
      9.348  0.4764E+01  0.7776E+02
      9.465  0.5610E+01  0.7854E+02
      9.583  0.4488E+01  0.7936E+02
      9.701  0.3446E+01  0.7991E+02
      9.819  0.4798E+01  0.8072E+02
      9.937  0.6068E+01  0.8167E+02
     10.055  0.4388E+01  0.8236E+02
     10.173  0.5178E+01  0.8328E+02
     10.290  0.4385E+01  0.8397E+02
     10.408  0.3812E+01  0.8456E+02
     10.526  0.3174E+01  0.8525E+02
     10.644  0.3622E+01  0.8595E+02
     10.762  0.4568E+01  0.8669E+02
     10.880  0.2754E+01  0.8719E+02
     10.997  0.3099E+01  0.8763E+02
     11.115  0.2677E+01  0.8810E+02
     11.233  0.3753E+01  0.8894E+02
     11.351  0.2750E+01  0.8967E+02
     11.469  0.2846E+01  0.9025E+02
     11.587  0.4793E+01  0.9115E+02
     11.705  0.5470E+01  0.9208E+02
     11.822  0.5819E+01  0.9298E+02
     11.940  0.5095E+01  0.9384E+02
     12.058  0.4155E+01  0.9459E+02
     12.176  0.6240E+01  0.9562E+02
     12.294  0.3885E+01  0.9633E+02
     12.412  0.4192E+01  0.9713E+02
     12.530  0.3984E+01  0.9778E+02
     12.647  0.4900E+01  0.9860E+02
     12.765  0.4147E+01  0.9941E+02
     12.883  0.4402E+01  0.1002E+03
     13.001  0.4060E+01  0.1010E+03
     13.119  0.6108E+01  0.1020E+03
     13.237  0.3285E+01  0.1026E+03
     13.355  0.4495E+01  0.1033E+03
     13.472  0.1903E+01  0.1037E+03
     13.590  0.7046E+00  0.1039E+03
     13.708  0.3914E+00  0.1039E+03
     13.826  0.1571E+00  0.1040E+03
     13.944  0.3064E-01  0.1040E+03
     14.062  0.0000E+00  0.1040E+03
     14.179  0.0000E+00  0.1040E+03
     14.297  0.0000E+00  0.1040E+03
     14.415  0.0000E+00  0.1040E+03
     14.533  0.0000E+00  0.1040E+03
     14.651  0.0000E+00  0.1040E+03
     14.769  0.0000E+00  0.1040E+03
     14.887  0.0000E+00  0.1040E+03
     15.004  0.0000E+00  0.1040E+03
     15.122  0.0000E+00  0.1040E+03
     15.240  0.0000E+00  0.1040E+03
     15.358  0.0000E+00  0.1040E+03
     15.476  0.0000E+00  0.1040E+03
     15.594  0.0000E+00  0.1040E+03
     15.59368134    -19.76166467  301      1.46627433      1.00000000
    -19.762  0.0000E+00  0.0000E+00  0.0000E+00
    -19.644  0.0000E+00  0.0000E+00  0.0000E+00
    -19.526  0.0000E+00  0.0000E+00  0.0000E+00
    -19.408  0.0000E+00  0.0000E+00  0.0000E+00
    -19.290  0.0000E+00  0.0000E+00  0.0000E+00
    -19.172  0.0000E+00  0.0000E+00  0.0000E+00
    -19.055  0.0000E+00  0.0000E+00  0.0000E+00
    -18.937  0.0000E+00  0.0000E+00  0.0000E+00
    -18.819  0.0000E+00  0.0000E+00  0.0000E+00
    -18.701  0.0000E+00  0.0000E+00  0.0000E+00
    -18.583  0.0000E+00  0.0000E+00  0.0000E+00
    -18.465  0.0000E+00  0.0000E+00  0.0000E+00
    -18.347  0.0000E+00  0.0000E+00  0.0000E+00
    -18.230  0.0000E+00  0.0000E+00  0.0000E+00
    -18.112  0.1020E+01  0.3285E+00  0.0000E+00
    -17.994  0.0000E+00  0.0000E+00  0.0000E+00
    -17.876  0.0000E+00  0.0000E+00  0.0000E+00
    -17.758  0.0000E+00  0.0000E+00  0.0000E+00
    -17.640  0.0000E+00  0.0000E+00  0.0000E+00
    -17.522  0.0000E+00  0.0000E+00  0.0000E+00
    -17.405  0.0000E+00  0.0000E+00  0.0000E+00
    -17.287  0.0000E+00  0.0000E+00  0.0000E+00
    -17.169  0.0000E+00  0.0000E+00  0.0000E+00
    -17.051  0.0000E+00  0.0000E+00  0.0000E+00
    -16.933  0.0000E+00  0.0000E+00  0.0000E+00
    -16.815  0.0000E+00  0.0000E+00  0.0000E+00
    -16.698  0.0000E+00  0.0000E+00  0.0000E+00
    -16.580  0.0000E+00  0.0000E+00  0.0000E+00
    -16.462  0.0000E+00  0.0000E+00  0.0000E+00
    -16.344  0.0000E+00  0.0000E+00  0.0000E+00
    -16.226  0.0000E+00  0.0000E+00  0.0000E+00
    -16.108  0.0000E+00  0.0000E+00  0.0000E+00
    -15.990  0.0000E+00  0.0000E+00  0.0000E+00
    -15.873  0.0000E+00  0.0000E+00  0.0000E+00
    -15.755  0.0000E+00  0.0000E+00  0.0000E+00
    -15.637  0.0000E+00  0.0000E+00  0.0000E+00
    -15.519  0.0000E+00  0.0000E+00  0.0000E+00
    -15.401  0.0000E+00  0.0000E+00  0.0000E+00
    -15.283  0.0000E+00  0.0000E+00  0.0000E+00
    -15.165  0.1243E-04  0.2093E-05  0.0000E+00
    -15.048  0.1132E-04  0.2669E-05  0.0000E+00
    -14.930  0.0000E+00  0.0000E+00  0.0000E+00
    -14.812  0.0000E+00  0.0000E+00  0.0000E+00
    -14.694  0.0000E+00  0.0000E+00  0.0000E+00
    -14.576  0.0000E+00  0.0000E+00  0.0000E+00
    -14.458  0.0000E+00  0.0000E+00  0.0000E+00
    -14.341  0.0000E+00  0.0000E+00  0.0000E+00
    -14.223  0.0000E+00  0.0000E+00  0.0000E+00
    -14.105  0.0000E+00  0.0000E+00  0.0000E+00
    -13.987  0.0000E+00  0.0000E+00  0.0000E+00
    -13.869  0.0000E+00  0.0000E+00  0.0000E+00
    -13.751  0.0000E+00  0.0000E+00  0.0000E+00
    -13.633  0.0000E+00  0.0000E+00  0.0000E+00
    -13.516  0.0000E+00  0.0000E+00  0.0000E+00
    -13.398  0.0000E+00  0.0000E+00  0.0000E+00
    -13.280  0.0000E+00  0.0000E+00  0.0000E+00
    -13.162  0.0000E+00  0.0000E+00  0.0000E+00
    -13.044  0.0000E+00  0.0000E+00  0.0000E+00
    -12.926  0.0000E+00  0.0000E+00  0.0000E+00
    -12.808  0.0000E+00  0.0000E+00  0.0000E+00
    -12.691  0.0000E+00  0.0000E+00  0.0000E+00
    -12.573  0.0000E+00  0.0000E+00  0.0000E+00
    -12.455  0.0000E+00  0.0000E+00  0.0000E+00
    -12.337  0.0000E+00  0.0000E+00  0.0000E+00
    -12.219  0.0000E+00  0.0000E+00  0.0000E+00
    -12.101  0.0000E+00  0.0000E+00  0.0000E+00
    -11.983  0.0000E+00  0.0000E+00  0.0000E+00
    -11.866  0.0000E+00  0.0000E+00  0.0000E+00
    -11.748  0.0000E+00  0.0000E+00  0.0000E+00
    -11.630  0.0000E+00  0.0000E+00  0.0000E+00
    -11.512  0.0000E+00  0.0000E+00  0.0000E+00
    -11.394  0.1582E-09  0.1512E-14  0.0000E+00
    -11.276  0.2167E+01  0.7553E-04  0.0000E+00
    -11.159  0.0000E+00  0.0000E+00  0.0000E+00
    -11.041  0.0000E+00  0.0000E+00  0.0000E+00
    -10.923  0.3406E-02  0.1232E-03  0.0000E+00
    -10.805  0.3554E-01  0.7828E-03  0.0000E+00
    -10.687  0.9821E-01  0.1475E-02  0.0000E+00
    -10.569  0.2624E-01  0.8638E-03  0.0000E+00
    -10.451  0.2826E-01  0.1451E-02  0.0000E+00
    -10.334  0.1396E-01  0.7603E-03  0.0000E+00
    -10.216  0.5578E-03  0.1542E-03  0.0000E+00
    -10.098  0.8043E-02  0.6514E-03  0.0000E+00
     -9.980  0.8258E-02  0.2500E-03  0.0000E+00
     -9.862  0.0000E+00  0.0000E+00  0.0000E+00
     -9.744  0.0000E+00  0.0000E+00  0.0000E+00
     -9.626  0.0000E+00  0.0000E+00  0.0000E+00
     -9.509  0.0000E+00  0.0000E+00  0.0000E+00
     -9.391  0.0000E+00  0.0000E+00  0.0000E+00
     -9.273  0.0000E+00  0.0000E+00  0.0000E+00
     -9.155  0.0000E+00  0.0000E+00  0.0000E+00
     -9.037  0.0000E+00  0.0000E+00  0.0000E+00
     -8.919  0.0000E+00  0.0000E+00  0.0000E+00
     -8.802  0.0000E+00  0.0000E+00  0.0000E+00
     -8.684  0.0000E+00  0.0000E+00  0.0000E+00
     -8.566  0.0000E+00  0.0000E+00  0.0000E+00
     -8.448  0.0000E+00  0.0000E+00  0.0000E+00
     -8.330  0.0000E+00  0.0000E+00  0.0000E+00
     -8.212  0.0000E+00  0.0000E+00  0.0000E+00
     -8.094  0.0000E+00  0.0000E+00  0.0000E+00
     -7.977  0.0000E+00  0.0000E+00  0.0000E+00
     -7.859  0.2118E-14  0.2993E-06  0.0000E+00
     -7.741  0.1036E-03  0.5978E+00  0.0000E+00
     -7.623  0.1822E-03  0.6381E+00  0.0000E+00
     -7.505  0.0000E+00  0.0000E+00  0.0000E+00
     -7.387  0.0000E+00  0.0000E+00  0.0000E+00
     -7.269  0.0000E+00  0.0000E+00  0.0000E+00
     -7.152  0.2991E-10  0.6375E-05  0.0000E+00
     -7.034  0.1387E-07  0.7538E-04  0.0000E+00
     -6.916  0.8766E-05  0.1753E-03  0.0000E+00
     -6.798  0.1636E-04  0.1674E-03  0.0000E+00
     -6.680  0.6927E-06  0.3512E-05  0.0000E+00
     -6.562  0.7830E-06  0.8762E-04  0.0000E+00
     -6.444  0.4009E-04  0.3346E-03  0.0000E+00
     -6.327  0.2345E-03  0.2011E-02  0.0000E+00
     -6.209  0.8324E-03  0.8443E-02  0.0000E+00
     -6.091  0.1736E-02  0.2043E-01  0.0000E+00
     -5.973  0.2813E-02  0.3518E-01  0.0000E+00
     -5.855  0.1147E+00  0.1475E+01  0.0000E+00
     -5.737  0.1725E-01  0.2277E+00  0.0000E+00
     -5.620  0.1188E-02  0.1596E-01  0.0000E+00
     -5.502  0.8040E-07  0.1124E-05  0.0000E+00
     -5.384  0.0000E+00  0.0000E+00  0.0000E+00
     -5.266  0.0000E+00  0.0000E+00  0.0000E+00
     -5.148  0.0000E+00  0.0000E+00  0.0000E+00
     -5.030  0.0000E+00  0.0000E+00  0.0000E+00
     -4.912  0.0000E+00  0.0000E+00  0.0000E+00
     -4.795  0.0000E+00  0.0000E+00  0.0000E+00
     -4.677  0.0000E+00  0.0000E+00  0.0000E+00
     -4.559  0.0000E+00  0.0000E+00  0.0000E+00
     -4.441  0.0000E+00  0.0000E+00  0.0000E+00
     -4.323  0.0000E+00  0.0000E+00  0.0000E+00
     -4.205  0.0000E+00  0.0000E+00  0.0000E+00
     -4.087  0.0000E+00  0.0000E+00  0.0000E+00
     -3.970  0.0000E+00  0.0000E+00  0.0000E+00
     -3.852  0.0000E+00  0.0000E+00  0.0000E+00
     -3.734  0.0000E+00  0.0000E+00  0.0000E+00
     -3.616  0.6606E-06  0.1296E+00  0.0000E+00
     -3.498  0.1489E-03  0.7270E+01  0.0000E+00
     -3.380  0.0000E+00  0.0000E+00  0.0000E+00
     -3.263  0.0000E+00  0.0000E+00  0.0000E+00
     -3.145  0.0000E+00  0.0000E+00  0.0000E+00
     -3.027  0.0000E+00  0.0000E+00  0.0000E+00
     -2.909  0.0000E+00  0.0000E+00  0.0000E+00
     -2.791  0.0000E+00  0.0000E+00  0.0000E+00
     -2.673  0.0000E+00  0.0000E+00  0.0000E+00
     -2.555  0.0000E+00  0.0000E+00  0.0000E+00
     -2.438  0.0000E+00  0.0000E+00  0.0000E+00
     -2.320  0.0000E+00  0.0000E+00  0.0000E+00
     -2.202  0.1274E-04  0.1912E-02  0.0000E+00
     -2.084  0.3570E-03  0.1092E-01  0.0000E+00
     -1.966  0.1821E-03  0.5715E-02  0.0000E+00
     -1.848  0.2189E-03  0.3380E-02  0.0000E+00
     -1.730  0.3224E-03  0.7145E-02  0.0000E+00
     -1.613  0.4078E-03  0.7663E-02  0.0000E+00
     -1.495  0.3018E-03  0.6416E-02  0.0000E+00
     -1.377  0.5397E-04  0.1803E-02  0.0000E+00
     -1.259  0.0000E+00  0.0000E+00  0.0000E+00
     -1.141  0.2036E-03  0.1410E-03  0.0000E+00
     -1.023  0.3324E-02  0.6246E-02  0.0000E+00
     -0.905  0.6306E-02  0.3416E-01  0.0000E+00
     -0.788  0.5812E-02  0.2414E-01  0.0000E+00
     -0.670  0.3389E-02  0.1710E-01  0.0000E+00
     -0.552  0.1698E-02  0.1334E-01  0.0000E+00
     -0.434  0.2453E-02  0.2088E-01  0.0000E+00
     -0.316  0.1911E-02  0.1561E-01  0.0000E+00
     -0.198  0.1742E-02  0.2155E-01  0.0000E+00
     -0.081  0.3677E-03  0.1115E-01  0.0000E+00
      0.037  0.3449E-02  0.2181E-01  0.0000E+00
      0.155  0.1698E-02  0.1654E-01  0.0000E+00
      0.273  0.1011E-02  0.1252E-01  0.0000E+00
      0.391  0.2707E-02  0.2246E-01  0.0000E+00
      0.509  0.2885E-02  0.1749E-01  0.0000E+00
      0.627  0.1747E-02  0.1032E-01  0.0000E+00
      0.744  0.2391E-03  0.2890E-02  0.0000E+00
      0.862  0.6309E-04  0.6025E-03  0.0000E+00
      0.980  0.3843E-05  0.1061E-03  0.0000E+00
      1.098  0.1174E-04  0.2760E-03  0.0000E+00
      1.216  0.3037E-06  0.1202E-03  0.0000E+00
      1.334  0.5991E-16  0.1717E-08  0.0000E+00
      1.452  0.0000E+00  0.0000E+00  0.0000E+00
      1.569  0.0000E+00  0.0000E+00  0.0000E+00
      1.687  0.0000E+00  0.0000E+00  0.0000E+00
      1.805  0.0000E+00  0.0000E+00  0.0000E+00
      1.923  0.0000E+00  0.0000E+00  0.0000E+00
      2.041  0.0000E+00  0.0000E+00  0.0000E+00
      2.159  0.0000E+00  0.0000E+00  0.0000E+00
      2.277  0.0000E+00  0.0000E+00  0.0000E+00
      2.394  0.0000E+00  0.0000E+00  0.0000E+00
      2.512  0.0000E+00  0.0000E+00  0.0000E+00
      2.630  0.0000E+00  0.0000E+00  0.0000E+00
      2.748  0.3079E-17  0.5735E-17  0.0000E+00
      2.866  0.8376E-05  0.2119E-04  0.0000E+00
      2.984  0.3551E-04  0.1529E-03  0.0000E+00
      3.101  0.3465E-04  0.1133E-03  0.0000E+00
      3.219  0.6035E-04  0.2046E-03  0.0000E+00
      3.337  0.1086E-03  0.3007E-03  0.0000E+00
      3.455  0.2394E-03  0.3729E-03  0.0000E+00
      3.573  0.3961E-03  0.5897E-03  0.0000E+00
      3.691  0.9266E-04  0.2499E-03  0.0000E+00
      3.809  0.2790E-04  0.2052E-03  0.0000E+00
      3.926  0.3643E-04  0.1751E-03  0.0000E+00
      4.044  0.2126E-04  0.4968E-03  0.0000E+00
      4.162  0.5504E-04  0.4858E-03  0.0000E+00
      4.280  0.1885E-03  0.9036E-03  0.0000E+00
      4.398  0.1114E-03  0.7214E-03  0.0000E+00
      4.516  0.1588E-03  0.5393E-03  0.0000E+00
      4.634  0.2400E-04  0.5480E-04  0.0000E+00
      4.751  0.2228E-02  0.1112E-02  0.0000E+00
      4.869  0.2021E-02  0.1312E-02  0.0000E+00
      4.987  0.8406E-02  0.5414E-02  0.0000E+00
      5.105  0.1206E-01  0.1064E-01  0.0000E+00
      5.223  0.1132E-01  0.1419E-01  0.0000E+00
      5.341  0.1066E-02  0.2636E-02  0.0000E+00
      5.458  0.1070E-01  0.1347E-01  0.0000E+00
      5.576  0.1237E-01  0.1735E-01  0.0000E+00
      5.694  0.3757E-01  0.2962E-01  0.0000E+00
      5.812  0.2212E-01  0.2610E-01  0.0000E+00
      5.930  0.1012E-01  0.2162E-01  0.0000E+00
      6.048  0.3211E-01  0.4863E-01  0.0000E+00
      6.166  0.9499E-01  0.2935E-01  0.0000E+00
      6.283  0.1006E+00  0.2643E-01  0.0000E+00
      6.401  0.8191E-01  0.4497E-01  0.0000E+00
      6.519  0.6649E-01  0.2756E-01  0.0000E+00
      6.637  0.1465E-01  0.1712E-01  0.0000E+00
      6.755  0.2637E-01  0.4401E-01  0.0000E+00
      6.873  0.2175E-01  0.6118E-01  0.0000E+00
      6.991  0.2129E-01  0.7530E-01  0.0000E+00
      7.108  0.1662E-01  0.5434E-01  0.0000E+00
      7.226  0.1199E-01  0.6748E-01  0.0000E+00
      7.344  0.1207E-01  0.6262E-01  0.0000E+00
      7.462  0.1970E-01  0.9984E-01  0.0000E+00
      7.580  0.2215E-01  0.8090E-01  0.0000E+00
      7.698  0.2038E-01  0.6888E-01  0.0000E+00
      7.816  0.1712E-01  0.1065E+00  0.0000E+00
      7.933  0.1647E-01  0.9609E-01  0.0000E+00
      8.051  0.1886E-01  0.1354E+00  0.0000E+00
      8.169  0.1352E-01  0.1314E+00  0.0000E+00
      8.287  0.3154E-01  0.1025E+00  0.0000E+00
      8.405  0.3208E-01  0.1471E+00  0.0000E+00
      8.523  0.2711E-01  0.7054E-01  0.0000E+00
      8.640  0.2614E-01  0.1238E+00  0.0000E+00
      8.758  0.3797E-01  0.1114E+00  0.0000E+00
      8.876  0.3805E-01  0.1388E+00  0.0000E+00
      8.994  0.3554E-01  0.1647E+00  0.0000E+00
      9.112  0.1784E-01  0.9525E-01  0.0000E+00
      9.230  0.2986E-01  0.1705E+00  0.0000E+00
      9.348  0.4413E-01  0.2294E+00  0.0000E+00
      9.465  0.3725E-01  0.3005E+00  0.0000E+00
      9.583  0.3123E-01  0.2074E+00  0.0000E+00
      9.701  0.1276E-01  0.1573E+00  0.0000E+00
      9.819  0.2478E-01  0.1457E+00  0.0000E+00
      9.937  0.3546E-01  0.2265E+00  0.0000E+00
     10.055  0.2029E-01  0.1208E+00  0.0000E+00
     10.173  0.1658E-01  0.1871E+00  0.0000E+00
     10.290  0.1694E-01  0.1502E+00  0.0000E+00
     10.408  0.7065E-02  0.9571E-01  0.0000E+00
     10.526  0.1286E-01  0.1081E+00  0.0000E+00
     10.644  0.2033E-01  0.1189E+00  0.0000E+00
     10.762  0.2260E-01  0.1539E+00  0.0000E+00
     10.880  0.5419E-02  0.4444E-01  0.0000E+00
     10.997  0.1244E-01  0.7329E-01  0.0000E+00
     11.115  0.1560E-01  0.5357E-01  0.0000E+00
     11.233  0.1350E-01  0.6183E-01  0.0000E+00
     11.351  0.1144E-01  0.6149E-01  0.0000E+00
     11.469  0.9763E-02  0.5439E-01  0.0000E+00
     11.587  0.3033E-01  0.8945E-01  0.0000E+00
     11.705  0.2220E-01  0.1107E+00  0.0000E+00
     11.822  0.2895E-01  0.1473E+00  0.0000E+00
     11.940  0.2000E-01  0.1118E+00  0.0000E+00
     12.058  0.2247E-01  0.1185E+00  0.0000E+00
     12.176  0.2280E-01  0.1463E+00  0.0000E+00
     12.294  0.1600E-01  0.8005E-01  0.0000E+00
     12.412  0.3070E-01  0.9935E-01  0.0000E+00
     12.530  0.2582E-01  0.8186E-01  0.0000E+00
     12.647  0.1874E-01  0.6084E-01  0.0000E+00
     12.765  0.3168E-01  0.7481E-01  0.0000E+00
     12.883  0.2801E-01  0.5073E-01  0.0000E+00
     13.001  0.2549E-01  0.6365E-01  0.0000E+00
     13.119  0.4536E-01  0.7698E-01  0.0000E+00
     13.237  0.1382E-01  0.4704E-01  0.0000E+00
     13.355  0.1762E-01  0.5170E-01  0.0000E+00
     13.472  0.8525E-02  0.2953E-01  0.0000E+00
     13.590  0.5826E-03  0.5482E-02  0.0000E+00
     13.708  0.3819E-03  0.4254E-02  0.0000E+00
     13.826  0.1836E-04  0.3349E-02  0.0000E+00
     13.944  0.6211E-04  0.1627E-03  0.0000E+00
     14.062  0.0000E+00  0.0000E+00  0.0000E+00
     14.179  0.0000E+00  0.0000E+00  0.0000E+00
     14.297  0.0000E+00  0.0000E+00  0.0000E+00
     14.415  0.0000E+00  0.0000E+00  0.0000E+00
     14.533  0.0000E+00  0.0000E+00  0.0000E+00
     14.651  0.0000E+00  0.0000E+00  0.0000E+00
     14.769  0.0000E+00  0.0000E+00  0.0000E+00
     14.887  0.0000E+00  0.0000E+00  0.0000E+00
     15.004  0.0000E+00  0.0000E+00  0.0000E+00
     15.122  0.0000E+00  0.0000E+00  0.0000E+00
     15.240  0.0000E+00  0.0000E+00  0.0000E+00
     15.358  0.0000E+00  0.0000E+00  0.0000E+00
     15.476  0.0000E+00  0.0000E+00  0.0000E+00
     15.594  0.0000E+00  0.0000E+00  0.0000E+00
     15.59368134    -19.76166467  301      1.46627433      1.00000000
    -19.762  0.0000E+00  0.0000E+00  0.0000E+00
    -19.644  0.0000E+00  0.0000E+00  0.0000E+00
    -19.526  0.0000E+00  0.0000E+00  0.0000E+00
    -19.408  0.0000E+00  0.0000E+00  0.0000E+00
    -19.290  0.0000E+00  0.0000E+00  0.0000E+00
    -19.172  0.0000E+00  0.0000E+00  0.0000E+00
    -19.055  0.0000E+00  0.0000E+00  0.0000E+00
    -18.937  0.0000E+00  0.0000E+00  0.0000E+00
    -18.819  0.0000E+00  0.0000E+00  0.0000E+00
    -18.701  0.0000E+00  0.0000E+00  0.0000E+00
    -18.583  0.0000E+00  0.0000E+00  0.0000E+00
    -18.465  0.0000E+00  0.0000E+00  0.0000E+00
    -18.347  0.0000E+00  0.0000E+00  0.0000E+00
    -18.230  0.0000E+00  0.0000E+00  0.0000E+00
    -18.112  0.9372E+01  0.3729E-02  0.0000E+00
    -17.994  0.0000E+00  0.0000E+00  0.0000E+00
    -17.876  0.0000E+00  0.0000E+00  0.0000E+00
    -17.758  0.0000E+00  0.0000E+00  0.0000E+00
    -17.640  0.0000E+00  0.0000E+00  0.0000E+00
    -17.522  0.0000E+00  0.0000E+00  0.0000E+00
    -17.405  0.0000E+00  0.0000E+00  0.0000E+00
    -17.287  0.0000E+00  0.0000E+00  0.0000E+00
    -17.169  0.0000E+00  0.0000E+00  0.0000E+00
    -17.051  0.0000E+00  0.0000E+00  0.0000E+00
    -16.933  0.0000E+00  0.0000E+00  0.0000E+00
    -16.815  0.0000E+00  0.0000E+00  0.0000E+00
    -16.698  0.0000E+00  0.0000E+00  0.0000E+00
    -16.580  0.0000E+00  0.0000E+00  0.0000E+00
    -16.462  0.0000E+00  0.0000E+00  0.0000E+00
    -16.344  0.0000E+00  0.0000E+00  0.0000E+00
    -16.226  0.0000E+00  0.0000E+00  0.0000E+00
    -16.108  0.0000E+00  0.0000E+00  0.0000E+00
    -15.990  0.0000E+00  0.0000E+00  0.0000E+00
    -15.873  0.0000E+00  0.0000E+00  0.0000E+00
    -15.755  0.0000E+00  0.0000E+00  0.0000E+00
    -15.637  0.0000E+00  0.0000E+00  0.0000E+00
    -15.519  0.0000E+00  0.0000E+00  0.0000E+00
    -15.401  0.0000E+00  0.0000E+00  0.0000E+00
    -15.283  0.0000E+00  0.0000E+00  0.0000E+00
    -15.165  0.2006E-04  0.1500E-04  0.0000E+00
    -15.048  0.2878E-04  0.7197E-05  0.0000E+00
    -14.930  0.0000E+00  0.0000E+00  0.0000E+00
    -14.812  0.0000E+00  0.0000E+00  0.0000E+00
    -14.694  0.0000E+00  0.0000E+00  0.0000E+00
    -14.576  0.0000E+00  0.0000E+00  0.0000E+00
    -14.458  0.0000E+00  0.0000E+00  0.0000E+00
    -14.341  0.0000E+00  0.0000E+00  0.0000E+00
    -14.223  0.0000E+00  0.0000E+00  0.0000E+00
    -14.105  0.0000E+00  0.0000E+00  0.0000E+00
    -13.987  0.0000E+00  0.0000E+00  0.0000E+00
    -13.869  0.0000E+00  0.0000E+00  0.0000E+00
    -13.751  0.0000E+00  0.0000E+00  0.0000E+00
    -13.633  0.0000E+00  0.0000E+00  0.0000E+00
    -13.516  0.0000E+00  0.0000E+00  0.0000E+00
    -13.398  0.0000E+00  0.0000E+00  0.0000E+00
    -13.280  0.0000E+00  0.0000E+00  0.0000E+00
    -13.162  0.0000E+00  0.0000E+00  0.0000E+00
    -13.044  0.0000E+00  0.0000E+00  0.0000E+00
    -12.926  0.0000E+00  0.0000E+00  0.0000E+00
    -12.808  0.0000E+00  0.0000E+00  0.0000E+00
    -12.691  0.0000E+00  0.0000E+00  0.0000E+00
    -12.573  0.0000E+00  0.0000E+00  0.0000E+00
    -12.455  0.0000E+00  0.0000E+00  0.0000E+00
    -12.337  0.0000E+00  0.0000E+00  0.0000E+00
    -12.219  0.0000E+00  0.0000E+00  0.0000E+00
    -12.101  0.0000E+00  0.0000E+00  0.0000E+00
    -11.983  0.0000E+00  0.0000E+00  0.0000E+00
    -11.866  0.0000E+00  0.0000E+00  0.0000E+00
    -11.748  0.0000E+00  0.0000E+00  0.0000E+00
    -11.630  0.0000E+00  0.0000E+00  0.0000E+00
    -11.512  0.0000E+00  0.0000E+00  0.0000E+00
    -11.394  0.1294E-10  0.6408E-10  0.0000E+00
    -11.276  0.1942E+00  0.8779E+00  0.0000E+00
    -11.159  0.0000E+00  0.0000E+00  0.0000E+00
    -11.041  0.0000E+00  0.0000E+00  0.0000E+00
    -10.923  0.1408E-02  0.9460E-03  0.0000E+00
    -10.805  0.1015E-01  0.1362E-01  0.0000E+00
    -10.687  0.2382E-01  0.4540E-01  0.0000E+00
    -10.569  0.6418E-02  0.2711E-01  0.0000E+00
    -10.451  0.1020E-01  0.2143E-01  0.0000E+00
    -10.334  0.5072E-02  0.1348E-01  0.0000E+00
    -10.216  0.2049E-03  0.3429E-02  0.0000E+00
    -10.098  0.1422E-02  0.5760E-02  0.0000E+00
     -9.980  0.2300E-02  0.3282E-02  0.0000E+00
     -9.862  0.0000E+00  0.0000E+00  0.0000E+00
     -9.744  0.0000E+00  0.0000E+00  0.0000E+00
     -9.626  0.0000E+00  0.0000E+00  0.0000E+00
     -9.509  0.0000E+00  0.0000E+00  0.0000E+00
     -9.391  0.0000E+00  0.0000E+00  0.0000E+00
     -9.273  0.0000E+00  0.0000E+00  0.0000E+00