       N       E                     dE             d eps       ncg     rms          rms(c)
DAV:   1     0.329411535828E+03    0.32941E+03   -0.18641E+04 65328   0.798E+02
DAV:   2    -0.137026968765E+02   -0.34311E+03   -0.31637E+03 72696   0.203E+02
DAV:   3    -0.531078071227E+02   -0.39405E+02   -0.38828E+02 84220   0.779E+01
DAV:   4    -0.547884338840E+02   -0.16806E+01   -0.16778E+01 87024   0.184E+01
DAV:   5    -0.548322107050E+02   -0.43777E-01   -0.43771E-01 89608   0.279E+00
DAV:   6    -0.548337739999E+02   -0.15633E-02   -0.15633E-02 89900   0.491E-01
DAV:   7    -0.548338149692E+02   -0.40969E-04   -0.40969E-04 92648   0.646E-02
DAV:   8    -0.548338154047E+02   -0.43557E-06   -0.43555E-06 76640   0.764E-03
   1 F= -.54833815E+02 E0= -.54833815E+02  d E =-.734814E-56
