   2   2   1   0
  0.3405476E+02  0.4583961E-09  0.4583961E-09  0.4583961E-09  0.5000000E-15
  1.000000000000000E-004
  CAR 
 Name                                    
     15.80035944    -10.18052456  301      2.31195050      1.00000000
    -10.181  0.0000E+00  0.0000E+00
    -10.094  0.0000E+00  0.0000E+00
    -10.007  0.0000E+00  0.0000E+00
     -9.921  0.0000E+00  0.0000E+00
     -9.834  0.0000E+00  0.0000E+00
     -9.748  0.0000E+00  0.0000E+00
     -9.661  0.0000E+00  0.0000E+00
     -9.574  0.0000E+00  0.0000E+00
     -9.488  0.0000E+00  0.0000E+00
     -9.401  0.0000E+00  0.0000E+00
     -9.314  0.0000E+00  0.0000E+00
     -9.228  0.0000E+00  0.0000E+00
     -9.141  0.0000E+00  0.0000E+00
     -9.055  0.3502E-15  0.3033E-16
     -8.968  0.1069E+00  0.9259E-02
     -8.881  0.8524E+00  0.8308E-01
     -8.795  0.6362E+00  0.1389E+00
     -8.708  0.1401E+01  0.2602E+00
     -8.622  0.3304E+01  0.5463E+00
     -8.535  0.8766E+01  0.1306E+01
     -8.448  0.8017E+01  0.2000E+01
     -8.362  0.0000E+00  0.2000E+01
     -8.275  0.0000E+00  0.2000E+01
     -8.189  0.0000E+00  0.2000E+01
     -8.102  0.0000E+00  0.2000E+01
     -8.015  0.0000E+00  0.2000E+01
     -7.929  0.0000E+00  0.2000E+01
     -7.842  0.0000E+00  0.2000E+01
     -7.756  0.0000E+00  0.2000E+01
     -7.669  0.0000E+00  0.2000E+01
     -7.582  0.0000E+00  0.2000E+01
     -7.496  0.0000E+00  0.2000E+01
     -7.409  0.0000E+00  0.2000E+01
     -7.323  0.0000E+00  0.2000E+01
     -7.236  0.0000E+00  0.2000E+01
     -7.149  0.0000E+00  0.2000E+01
     -7.063  0.0000E+00  0.2000E+01
     -6.976  0.0000E+00  0.2000E+01
     -6.890  0.0000E+00  0.2000E+01
     -6.803  0.0000E+00  0.2000E+01
     -6.716  0.0000E+00  0.2000E+01
     -6.630  0.0000E+00  0.2000E+01
     -6.543  0.0000E+00  0.2000E+01
     -6.457  0.0000E+00  0.2000E+01
     -6.370  0.0000E+00  0.2000E+01
     -6.283  0.0000E+00  0.2000E+01
     -6.197  0.0000E+00  0.2000E+01
     -6.110  0.0000E+00  0.2000E+01
     -6.024  0.1952E+01  0.2169E+01
     -5.937  0.3286E+02  0.5032E+01
     -5.850  0.1309E+02  0.6387E+01
     -5.764  0.3956E+02  0.9894E+01
     -5.677  0.3703E+01  0.1054E+02
     -5.591  0.6111E+00  0.1060E+02
     -5.504  0.9305E+00  0.1068E+02
     -5.417  0.4278E+01  0.1119E+02
     -5.331  0.2563E+01  0.1153E+02
     -5.244  0.4630E+01  0.1193E+02
     -5.158  0.0000E+00  0.1200E+02
     -5.071  0.0000E+00  0.1200E+02
     -4.984  0.0000E+00  0.1200E+02
     -4.898  0.0000E+00  0.1200E+02
     -4.811  0.0000E+00  0.1200E+02
     -4.725  0.0000E+00  0.1200E+02
     -4.638  0.0000E+00  0.1200E+02
     -4.551  0.0000E+00  0.1200E+02
     -4.465  0.0000E+00  0.1200E+02
     -4.378  0.0000E+00  0.1200E+02
     -4.292  0.0000E+00  0.1200E+02
     -4.205  0.0000E+00  0.1200E+02
     -4.118  0.0000E+00  0.1200E+02
     -4.032  0.0000E+00  0.1200E+02
     -3.945  0.0000E+00  0.1200E+02
     -3.859  0.0000E+00  0.1200E+02
     -3.772  0.0000E+00  0.1200E+02
     -3.685  0.0000E+00  0.1200E+02
     -3.599  0.0000E+00  0.1200E+02
     -3.512  0.0000E+00  0.1200E+02
     -3.425  0.0000E+00  0.1200E+02
     -3.339  0.0000E+00  0.1200E+02
     -3.252  0.0000E+00  0.1200E+02
     -3.166  0.0000E+00  0.1200E+02
     -3.079  0.0000E+00  0.1200E+02
     -2.992  0.0000E+00  0.1200E+02
     -2.906  0.0000E+00  0.1200E+02
     -2.819  0.0000E+00  0.1200E+02
     -2.733  0.0000E+00  0.1200E+02
     -2.646  0.0000E+00  0.1200E+02
     -2.559  0.0000E+00  0.1200E+02
     -2.473  0.0000E+00  0.1200E+02
     -2.386  0.0000E+00  0.1200E+02
     -2.300  0.1083E-06  0.1200E+02
     -2.213  0.4277E+00  0.1204E+02
     -2.126  0.3125E+00  0.1206E+02
     -2.040  0.3597E+01  0.1238E+02
     -1.953  0.3846E+01  0.1273E+02
     -1.867  0.2559E+01  0.1295E+02
     -1.780  0.1806E+01  0.1311E+02
     -1.693  0.0000E+00  0.1318E+02
     -1.607  0.2340E+01  0.1338E+02
     -1.520  0.0000E+00  0.1340E+02
     -1.434  0.5362E-02  0.1340E+02
     -1.347  0.8500E+00  0.1347E+02
     -1.260  0.6415E+00  0.1353E+02
     -1.174  0.0000E+00  0.1353E+02
     -1.087  0.0000E+00  0.1353E+02
     -1.001  0.1789E-08  0.1353E+02
     -0.914  0.2566E+01  0.1375E+02
     -0.827  0.0000E+00  0.1375E+02
     -0.741  0.0000E+00  0.1375E+02
     -0.654  0.0000E+00  0.1375E+02
     -0.568  0.5941E-02  0.1375E+02
     -0.481  0.1277E+01  0.1386E+02
     -0.394  0.1283E+01  0.1397E+02
     -0.308  0.0000E+00  0.1397E+02
     -0.221  0.2809E+00  0.1400E+02
     -0.135  0.2285E+01  0.1419E+02
     -0.048  0.3185E-01  0.1420E+02
      0.039  0.3804E+01  0.1453E+02
      0.125  0.3833E+01  0.1486E+02
      0.212  0.0000E+00  0.1486E+02
      0.298  0.1505E-03  0.1486E+02
      0.385  0.8205E+00  0.1493E+02
      0.472  0.3884E+01  0.1527E+02
      0.558  0.3832E+01  0.1560E+02
      0.645  0.2566E+01  0.1594E+02
      0.731  0.1283E+01  0.1605E+02
      0.818  0.9273E-13  0.1605E+02
      0.905  0.3849E+01  0.1638E+02
      0.991  0.1283E+01  0.1649E+02
      1.078  0.2503E+01  0.1671E+02
      1.164  0.2585E+01  0.1694E+02
      1.251  0.2544E+01  0.1716E+02
      1.338  0.0000E+00  0.1716E+02
      1.424  0.2990E+01  0.1742E+02
      1.511  0.0000E+00  0.1745E+02
      1.597  0.2310E+01  0.1765E+02
      1.684  0.0000E+00  0.1771E+02
      1.771  0.0000E+00  0.1771E+02
      1.857  0.8187E+00  0.1778E+02
      1.944  0.4047E-05  0.1782E+02
      2.030  0.1711E+01  0.1797E+02
      2.117  0.0000E+00  0.1797E+02
      2.204  0.9902E-01  0.1798E+02
      2.290  0.0000E+00  0.1800E+02
      2.377  0.0000E+00  0.1800E+02
      2.464  0.0000E+00  0.1800E+02
      2.550  0.0000E+00  0.1800E+02
      2.637  0.0000E+00  0.1800E+02
      2.723  0.0000E+00  0.1800E+02
      2.810  0.2315E-15  0.1800E+02
      2.897  0.1069E+00  0.1801E+02
      2.983  0.0000E+00  0.1801E+02
      3.070  0.0000E+00  0.1801E+02
      3.156  0.0000E+00  0.1801E+02
      3.243  0.0000E+00  0.1801E+02
      3.330  0.0000E+00  0.1801E+02
      3.416  0.0000E+00  0.1801E+02
      3.503  0.0000E+00  0.1801E+02
      3.589  0.0000E+00  0.1801E+02
      3.676  0.0000E+00  0.1801E+02
      3.763  0.0000E+00  0.1801E+02
      3.849  0.0000E+00  0.1801E+02
      3.936  0.1803E+00  0.1802E+02
      4.022  0.8554E+00  0.1812E+02
      4.109  0.8552E+00  0.1819E+02
      4.196  0.0000E+00  0.1819E+02
      4.282  0.0000E+00  0.1819E+02
      4.369  0.0000E+00  0.1819E+02
      4.455  0.0000E+00  0.1819E+02
      4.542  0.0000E+00  0.1819E+02
      4.629  0.2482E-01  0.1820E+02
      4.715  0.9356E+00  0.1828E+02
      4.802  0.2548E+00  0.1830E+02
      4.888  0.1787E+01  0.1847E+02
      4.975  0.6983E+01  0.1908E+02
      5.062  0.2566E+01  0.1936E+02
      5.148  0.1411E-03  0.1936E+02
      5.235  0.1283E+01  0.1947E+02
      5.321  0.6415E+00  0.1953E+02
      5.408  0.0000E+00  0.1953E+02
      5.495  0.0000E+00  0.1953E+02
      5.581  0.0000E+00  0.1953E+02
      5.668  0.1709E-14  0.1953E+02
      5.754  0.2566E+01  0.1975E+02
      5.841  0.2008E+01  0.1992E+02
      5.928  0.5095E+01  0.2047E+02
      6.014  0.0000E+00  0.2047E+02
      6.101  0.0000E+00  0.2047E+02
      6.187  0.2512E+01  0.2069E+02
      6.274  0.2474E+01  0.2091E+02
      6.361  0.0000E+00  0.2092E+02
      6.447  0.0000E+00  0.2092E+02
      6.534  0.0000E+00  0.2092E+02
      6.620  0.0000E+00  0.2092E+02
      6.707  0.1396E-06  0.2092E+02
      6.794  0.2887E+01  0.2117E+02
      6.880  0.4704E+01  0.2157E+02
      6.967  0.0000E+00  0.2157E+02
      7.053  0.7474E-02  0.2157E+02
      7.140  0.4269E+01  0.2194E+02
      7.227  0.7529E-06  0.2194E+02
      7.313  0.1406E+01  0.2207E+02
      7.400  0.3727E+01  0.2239E+02
      7.486  0.2565E+01  0.2261E+02
      7.573  0.1424E-15  0.2261E+02
      7.660  0.1283E+01  0.2272E+02
      7.746  0.1283E+01  0.2283E+02
      7.833  0.2784E+01  0.2307E+02
      7.919  0.4914E+01  0.2350E+02
      8.006  0.0000E+00  0.2350E+02
      8.093  0.1734E+01  0.2365E+02
      8.179  0.0000E+00  0.2372E+02
      8.266  0.4519E+00  0.2376E+02
      8.353  0.2068E-01  0.2395E+02
      8.439  0.8347E+00  0.2402E+02
      8.526  0.2566E+01  0.2424E+02
      8.612  0.0000E+00  0.2424E+02
      8.699  0.6434E+00  0.2430E+02
      8.786  0.1495E-04  0.2446E+02
      8.872  0.1283E+01  0.2457E+02
      8.959  0.6793E-08  0.2457E+02
      9.045  0.1283E+01  0.2469E+02
      9.132  0.5206E+01  0.2514E+02
      9.219  0.0000E+00  0.2517E+02
      9.305  0.5515E+00  0.2521E+02
      9.392  0.5932E-01  0.2523E+02
      9.478  0.3148E+01  0.2550E+02
      9.565  0.2559E+01  0.2572E+02
      9.652  0.1482E+01  0.2586E+02
      9.738  0.1084E+01  0.2595E+02
      9.825  0.2562E-03  0.2595E+02
      9.911  0.3849E+01  0.2629E+02
      9.998  0.1947E-02  0.2629E+02
     10.085  0.2629E+01  0.2651E+02
     10.171  0.3357E+01  0.2681E+02
     10.258  0.0000E+00  0.2681E+02
     10.344  0.2532E+01  0.2702E+02
     10.431  0.0000E+00  0.2703E+02
     10.518  0.8112E+00  0.2710E+02
     10.604  0.4254E-02  0.2710E+02
     10.691  0.4272E+01  0.2747E+02
     10.777  0.4277E+00  0.2751E+02
     10.864  0.1424E-14  0.2751E+02
     10.951  0.2887E+01  0.2776E+02
     11.037  0.1108E+01  0.2786E+02
     11.124  0.1279E+01  0.2802E+02
     11.210  0.2463E+01  0.2823E+02
     11.297  0.3738E+01  0.2868E+02
     11.384  0.0000E+00  0.2869E+02
     11.470  0.0000E+00  0.2869E+02
     11.557  0.1835E+00  0.2870E+02
     11.643  0.0000E+00  0.2870E+02
     11.730  0.1192E+01  0.2881E+02
     11.817  0.6414E+00  0.2887E+02
     11.903  0.3850E+01  0.2920E+02
     11.990  0.2565E+01  0.2943E+02
     12.076  0.2845E-07  0.2943E+02
     12.163  0.2566E+01  0.2965E+02
     12.250  0.0000E+00  0.2965E+02
     12.336  0.0000E+00  0.2965E+02
     12.423  0.2377E+01  0.2985E+02
     12.509  0.4063E+01  0.3022E+02
     12.596  0.2682E+01  0.3045E+02
     12.683  0.2450E+01  0.3067E+02
     12.769  0.0000E+00  0.3067E+02
     12.856  0.4366E+00  0.3070E+02
     12.942  0.2129E+01  0.3089E+02
     13.029  0.2701E+00  0.3091E+02
     13.116  0.0000E+00  0.3092E+02
     13.202  0.2721E-11  0.3092E+02
     13.289  0.1283E+01  0.3103E+02
     13.375  0.7373E+00  0.3109E+02
     13.462  0.9860E-03  0.3125E+02
     13.549  0.1282E+01  0.3136E+02
     13.635  0.4658E+01  0.3176E+02
     13.722  0.1660E+00  0.3182E+02
     13.808  0.0000E+00  0.3183E+02
     13.895  0.0000E+00  0.3183E+02
     13.982  0.0000E+00  0.3183E+02
     14.068  0.2148E+00  0.3185E+02
     14.155  0.0000E+00  0.3189E+02
     14.242  0.0000E+00  0.3189E+02
     14.328  0.1282E+01  0.3200E+02
     14.415  0.0000E+00  0.3200E+02
     14.501  0.0000E+00  0.3200E+02
     14.588  0.0000E+00  0.3200E+02
     14.675  0.0000E+00  0.3200E+02
     14.761  0.0000E+00  0.3200E+02
     14.848  0.0000E+00  0.3200E+02
     14.934  0.0000E+00  0.3200E+02
     15.021  0.0000E+00  0.3200E+02
     15.108  0.0000E+00  0.3200E+02
     15.194  0.0000E+00  0.3200E+02
     15.281  0.0000E+00  0.3200E+02
     15.367  0.0000E+00  0.3200E+02
     15.454  0.0000E+00  0.3200E+02
     15.541  0.0000E+00  0.3200E+02
     15.627  0.0000E+00  0.3200E+02
     15.714  0.0000E+00  0.3200E+02
     15.800  0.0000E+00  0.3200E+02
     15.80035944    -10.18052456  301      2.31195050      1.00000000
    -10.181  0.0000E+00  0.0000E+00  0.0000E+00
    -10.094  0.0000E+00  0.0000E+00  0.0000E+00
    -10.007  0.0000E+00  0.0000E+00  0.0000E+00
     -9.921  0.0000E+00  0.0000E+00  0.0000E+00
     -9.834  0.0000E+00  0.0000E+00  0.0000E+00
     -9.748  0.0000E+00  0.0000E+00  0.0000E+00
     -9.661  0.0000E+00  0.0000E+00  0.0000E+00
     -9.574  0.0000E+00  0.0000E+00  0.0000E+00
     -9.488  0.0000E+00  0.0000E+00  0.0000E+00
     -9.401  0.0000E+00  0.0000E+00  0.0000E+00
     -9.314  0.0000E+00  0.0000E+00  0.0000E+00
     -9.228  0.0000E+00  0.0000E+00  0.0000E+00
     -9.141  0.0000E+00  0.0000E+00  0.0000E+00
     -9.055  0.2200E-16  0.3951E-30  0.2926E-30
     -8.968  0.6716E-02  0.1206E-15  0.8935E-16
     -8.881  0.4501E-01  0.2148E-02  0.1478E-01
     -8.795  0.3141E-01  0.2153E-02  0.1496E-01
     -8.708  0.5232E-01  0.8544E-02  0.6777E-01
     -8.622  0.9907E-01  0.2536E-01  0.2142E+00
     -8.535  0.1294E+00  0.9398E-01  0.9010E+00
     -8.448  0.2796E-01  0.1040E+00  0.1061E+01
     -8.362  0.0000E+00  0.0000E+00  0.0000E+00
     -8.275  0.0000E+00  0.0000E+00  0.0000E+00
     -8.189  0.0000E+00  0.0000E+00  0.0000E+00
     -8.102  0.0000E+00  0.0000E+00  0.0000E+00
     -8.015  0.0000E+00  0.0000E+00  0.0000E+00
     -7.929  0.0000E+00  0.0000E+00  0.0000E+00
     -7.842  0.0000E+00  0.0000E+00  0.0000E+00
     -7.756  0.0000E+00  0.0000E+00  0.0000E+00
     -7.669  0.0000E+00  0.0000E+00  0.0000E+00
     -7.582  0.0000E+00  0.0000E+00  0.0000E+00
     -7.496  0.0000E+00  0.0000E+00  0.0000E+00
     -7.409  0.0000E+00  0.0000E+00  0.0000E+00
     -7.323  0.0000E+00  0.0000E+00  0.0000E+00
     -7.236  0.0000E+00  0.0000E+00  0.0000E+00
     -7.149  0.0000E+00  0.0000E+00  0.0000E+00
     -7.063  0.0000E+00  0.0000E+00  0.0000E+00
     -6.976  0.0000E+00  0.0000E+00  0.0000E+00
     -6.890  0.0000E+00  0.0000E+00  0.0000E+00
     -6.803  0.0000E+00  0.0000E+00  0.0000E+00
     -6.716  0.0000E+00  0.0000E+00  0.0000E+00
     -6.630  0.0000E+00  0.0000E+00  0.0000E+00
     -6.543  0.0000E+00  0.0000E+00  0.0000E+00
     -6.457  0.0000E+00  0.0000E+00  0.0000E+00
     -6.370  0.0000E+00  0.0000E+00  0.0000E+00
     -6.283  0.0000E+00  0.0000E+00  0.0000E+00
     -6.197  0.0000E+00  0.0000E+00  0.0000E+00
     -6.110  0.0000E+00  0.0000E+00  0.0000E+00
     -6.024  0.8717E-08  0.8312E-03  0.1769E+01
     -5.937  0.1153E-01  0.1536E-01  0.3005E+02
     -5.850  0.6070E-02  0.5580E-02  0.1209E+02
     -5.764  0.2176E-01  0.8982E-03  0.3717E+02
     -5.677  0.3210E-01  0.1783E-02  0.3236E+01
     -5.591  0.6514E-02  0.8504E-03  0.5113E+00
     -5.504  0.9459E-02  0.1404E-02  0.7793E+00
     -5.417  0.3810E-01  0.8383E-02  0.3564E+01
     -5.331  0.1252E-01  0.9182E-02  0.2087E+01
     -5.244  0.1460E-01  0.1638E-01  0.3802E+01
     -5.158  0.0000E+00  0.0000E+00  0.0000E+00
     -5.071  0.0000E+00  0.0000E+00  0.0000E+00
     -4.984  0.0000E+00  0.0000E+00  0.0000E+00
     -4.898  0.0000E+00  0.0000E+00  0.0000E+00
     -4.811  0.0000E+00  0.0000E+00  0.0000E+00
     -4.725  0.0000E+00  0.0000E+00  0.0000E+00
     -4.638  0.0000E+00  0.0000E+00  0.0000E+00
     -4.551  0.0000E+00  0.0000E+00  0.0000E+00
     -4.465  0.0000E+00  0.0000E+00  0.0000E+00
     -4.378  0.0000E+00  0.0000E+00  0.0000E+00
     -4.292  0.0000E+00  0.0000E+00  0.0000E+00
     -4.205  0.0000E+00  0.0000E+00  0.0000E+00
     -4.118  0.0000E+00  0.0000E+00  0.0000E+00
     -4.032  0.0000E+00  0.0000E+00  0.0000E+00
     -3.945  0.0000E+00  0.0000E+00  0.0000E+00
     -3.859  0.0000E+00  0.0000E+00  0.0000E+00
     -3.772  0.0000E+00  0.0000E+00  0.0000E+00
     -3.685  0.0000E+00  0.0000E+00  0.0000E+00
     -3.599  0.0000E+00  0.0000E+00  0.0000E+00
     -3.512  0.0000E+00  0.0000E+00  0.0000E+00
     -3.425  0.0000E+00  0.0000E+00  0.0000E+00
     -3.339  0.0000E+00  0.0000E+00  0.0000E+00
     -3.252  0.0000E+00  0.0000E+00  0.0000E+00
     -3.166  0.0000E+00  0.0000E+00  0.0000E+00
     -3.079  0.0000E+00  0.0000E+00  0.0000E+00
     -2.992  0.0000E+00  0.0000E+00  0.0000E+00
     -2.906  0.0000E+00  0.0000E+00  0.0000E+00
     -2.819  0.0000E+00  0.0000E+00  0.0000E+00
     -2.733  0.0000E+00  0.0000E+00  0.0000E+00
     -2.646  0.0000E+00  0.0000E+00  0.0000E+00
     -2.559  0.0000E+00  0.0000E+00  0.0000E+00
     -2.473  0.0000E+00  0.0000E+00  0.0000E+00
     -2.386  0.0000E+00  0.0000E+00  0.0000E+00
     -2.300  0.1801E-07  0.2841E-08  0.1011E-10
     -2.213  0.7114E-01  0.1122E-01  0.3993E-04
     -2.126  0.7672E-01  0.1238E-16  0.9566E-02
     -2.040  0.7529E+00  0.5088E-01  0.4029E-01
     -1.953  0.9078E+00  0.3150E-01  0.2911E-01
     -1.867  0.6033E+00  0.1018E-01  0.7498E-01
     -1.780  0.3187E+00  0.3966E-01  0.4258E-01
     -1.693  0.0000E+00  0.0000E+00  0.0000E+00
     -1.607  0.4874E+00  0.2666E-01  0.8331E-01
     -1.520  0.0000E+00  0.0000E+00  0.0000E+00
     -1.434  0.7811E-03  0.1502E-03  0.2052E-03
     -1.347  0.1238E+00  0.2381E-01  0.3253E-01
     -1.260  0.1323E+00  0.4034E-02  0.3819E-01
     -1.174  0.0000E+00  0.0000E+00  0.0000E+00
     -1.087  0.0000E+00  0.0000E+00  0.0000E+00
     -1.001  0.2931E-09  0.3530E-10  0.9439E-10
     -0.914  0.4203E+00  0.5063E-01  0.1354E+00
     -0.827  0.0000E+00  0.0000E+00  0.0000E+00
     -0.741  0.0000E+00  0.0000E+00  0.0000E+00
     -0.654  0.0000E+00  0.0000E+00  0.0000E+00
     -0.568  0.9003E-03  0.1288E-03  0.3319E-03
     -0.481  0.1935E+00  0.2768E-01  0.7135E-01
     -0.394  0.5960E-02  0.9243E-01  0.3572E-01
     -0.308  0.0000E+00  0.0000E+00  0.0000E+00
     -0.221  0.4644E-02  0.1913E-01  0.8800E-02
     -0.135  0.3778E-01  0.1556E+00  0.7160E-01
     -0.048  0.7565E-04  0.2188E-02  0.1193E-02
      0.039  0.1887E-01  0.2769E+00  0.1100E+00
      0.125  0.3483E-01  0.2882E+00  0.9016E-01
      0.212  0.0000E+00  0.0000E+00  0.0000E+00
      0.298  0.9015E-21  0.1214E-04  0.2654E-05
      0.385  0.5283E-02  0.6293E-01  0.1814E-01
      0.472  0.2701E+00  0.1796E+00  0.1825E+00
      0.558  0.8972E-01  0.2510E+00  0.1370E+00
      0.645  0.3320E-02  0.1915E+00  0.8090E-01
      0.731  0.6958E-16  0.9622E-01  0.3979E-01
      0.818  0.5728E-16  0.6746E-14  0.3227E-14
      0.905  0.1032E-01  0.2730E+00  0.1431E+00
      0.991  0.1714E-01  0.8060E-01  0.5833E-01
      1.078  0.5570E-01  0.1458E+00  0.1192E+00
      1.164  0.1478E-14  0.1781E+00  0.1046E+00
      1.251  0.1234E-13  0.1673E+00  0.1154E+00
      1.338  0.0000E+00  0.0000E+00  0.0000E+00
      1.424  0.7528E-15  0.1857E+00  0.1452E+00
      1.511  0.0000E+00  0.0000E+00  0.0000E+00
      1.597  0.1474E-14  0.1272E+00  0.1306E+00
      1.684  0.0000E+00  0.0000E+00  0.0000E+00
      1.771  0.0000E+00  0.0000E+00  0.0000E+00
      1.857  0.6207E-16  0.3805E-01  0.5196E-01
      1.944  0.9979E-21  0.1609E-06  0.2818E-06
      2.030  0.4218E-15  0.6800E-01  0.1191E+00
      2.117  0.0000E+00  0.0000E+00  0.0000E+00
      2.204  0.1071E-14  0.2702E-02  0.7797E-02
      2.290  0.0000E+00  0.0000E+00  0.0000E+00
      2.377  0.0000E+00  0.0000E+00  0.0000E+00
      2.464  0.0000E+00  0.0000E+00  0.0000E+00
      2.550  0.0000E+00  0.0000E+00  0.0000E+00
      2.637  0.0000E+00  0.0000E+00  0.0000E+00
      2.723  0.0000E+00  0.0000E+00  0.0000E+00
      2.810  0.7116E-16  0.1146E-29  0.1483E-29
      2.897  0.3287E-01  0.5294E-15  0.6849E-15
      2.983  0.0000E+00  0.0000E+00  0.0000E+00
      3.070  0.0000E+00  0.0000E+00  0.0000E+00
      3.156  0.0000E+00  0.0000E+00  0.0000E+00
      3.243  0.0000E+00  0.0000E+00  0.0000E+00
      3.330  0.0000E+00  0.0000E+00  0.0000E+00
      3.416  0.0000E+00  0.0000E+00  0.0000E+00
      3.503  0.0000E+00  0.0000E+00  0.0000E+00
      3.589  0.0000E+00  0.0000E+00  0.0000E+00
      3.676  0.0000E+00  0.0000E+00  0.0000E+00
      3.763  0.0000E+00  0.0000E+00  0.0000E+00
      3.849  0.0000E+00  0.0000E+00  0.0000E+00
      3.936  0.4414E-01  0.5620E-02  0.1719E-02
      4.022  0.1842E+00  0.2726E-01  0.4542E-02
      4.109  0.2019E+00  0.3344E-01  0.4592E-02
      4.196  0.0000E+00  0.0000E+00  0.0000E+00
      4.282  0.0000E+00  0.0000E+00  0.0000E+00
      4.369  0.0000E+00  0.0000E+00  0.0000E+00
      4.455  0.0000E+00  0.0000E+00  0.0000E+00
      4.542  0.0000E+00  0.0000E+00  0.0000E+00
      4.629  0.5038E-02  0.2075E-03  0.3884E-03
      4.715  0.1252E+00  0.3585E-01  0.2102E-01
      4.802  0.5398E-01  0.5681E-02  0.5031E-02
      4.888  0.3343E+00  0.8749E-01  0.2087E-01
      4.975  0.1167E+01  0.3224E+00  0.1422E+00
      5.062  0.5126E+00  0.7746E-01  0.3872E-01
      5.148  0.1937E-04  0.7834E-05  0.3718E-05
      5.235  0.1761E+00  0.7122E-01  0.3380E-01
      5.321  0.5510E-01  0.3555E-01  0.1748E-01
      5.408  0.0000E+00  0.0000E+00  0.0000E+00
      5.495  0.0000E+00  0.0000E+00  0.0000E+00
      5.581  0.0000E+00  0.0000E+00  0.0000E+00
      5.668  0.4069E-15  0.1830E-16  0.2796E-16
      5.754  0.6109E+00  0.2748E-01  0.4197E-01
      5.841  0.1698E+00  0.1647E+00  0.4325E-01
      5.928  0.7868E+00  0.1871E+00  0.1273E+00
      6.014  0.0000E+00  0.0000E+00  0.0000E+00
      6.101  0.0000E+00  0.0000E+00  0.0000E+00
      6.187  0.1110E+00  0.3227E+00  0.3079E-01
      6.274  0.7992E-03  0.2813E+00  0.6696E-01
      6.361  0.0000E+00  0.0000E+00  0.0000E+00
      6.447  0.0000E+00  0.0000E+00  0.0000E+00
      6.534  0.0000E+00  0.0000E+00  0.0000E+00
      6.620  0.0000E+00  0.0000E+00  0.0000E+00
      6.707  0.1065E-09  0.9834E-08  0.4979E-08
      6.794  0.1962E-02  0.2584E+00  0.9190E-01
      6.880  0.1685E+00  0.4807E+00  0.1091E+00
      6.967  0.0000E+00  0.0000E+00  0.0000E+00
      7.053  0.1068E-03  0.6667E-03  0.2233E-03
      7.140  0.3657E-01  0.6212E+00  0.8730E-01
      7.227  0.8127E-07  0.1548E-07  0.1061E-07
      7.313  0.1385E+00  0.5440E-01  0.1906E-01
      7.400  0.8640E-07  0.7055E+00  0.7570E-01
      7.486  0.2701E-03  0.2399E+00  0.7563E-01
      7.573  0.4793E-18  0.1644E-16  0.2846E-17
      7.660  0.4317E-02  0.1481E+00  0.2564E-01
      7.746  0.4419E-15  0.2709E+00  0.1475E-01
      7.833  0.1010E-03  0.4668E+00  0.6691E-01
      7.919  0.1216E+00  0.4816E+00  0.1204E+00
      8.006  0.0000E+00  0.0000E+00  0.0000E+00
      8.093  0.6563E-14  0.2554E+00  0.5443E-01
      8.179  0.0000E+00  0.0000E+00  0.0000E+00
      8.266  0.1019E-14  0.8040E-01  0.9891E-02
      8.353  0.7124E-03  0.1161E-02  0.3205E-03
      8.439  0.2876E-01  0.4688E-01  0.1294E-01
      8.526  0.8875E-01  0.1649E+00  0.6082E-01
      8.612  0.0000E+00  0.0000E+00  0.0000E+00
      8.699  0.1352E-01  0.5190E-01  0.1937E-01
      8.786  0.4493E-19  0.2051E-05  0.3681E-06
      8.872  0.3855E-14  0.1760E+00  0.3158E-01
      8.959  0.4061E-21  0.1067E-08  0.1370E-09
      9.045  0.7985E-12  0.2016E+00  0.2587E-01
      9.132  0.1508E+00  0.4147E+00  0.1509E+00
      9.219  0.0000E+00  0.0000E+00  0.0000E+00
      9.305  0.2678E-03  0.3796E-02  0.3536E-01
      9.392  0.1508E-04  0.6159E-02  0.2259E-02
      9.478  0.2923E-01  0.2632E+00  0.1175E+00
      9.565  0.2915E-01  0.4331E+00  0.6407E-01
      9.652  0.7216E-03  0.2560E+00  0.3718E-01
      9.738  0.2452E-14  0.2001E+00  0.2046E-01
      9.825  0.5854E-18  0.3884E-04  0.6214E-05
      9.911  0.7285E-14  0.3907E+00  0.1628E+00
      9.998  0.2287E-04  0.1389E-03  0.8207E-04
     10.085  0.3014E-01  0.1921E+00  0.1107E+00
     10.171  0.7243E-01  0.3686E+00  0.1125E+00
     10.258  0.0000E+00  0.0000E+00  0.0000E+00
     10.344  0.3175E-01  0.8782E-01  0.1050E+00
     10.431  0.0000E+00  0.0000E+00  0.0000E+00
     10.518  0.9687E-01  0.4930E-01  0.3083E-02
     10.604  0.5784E-11  0.1131E-03  0.3029E-03
     10.691  0.1903E-07  0.1189E+00  0.3027E+00
     10.777  0.4944E-01  0.3795E-03  0.7254E-04
     10.864  0.1287E-16  0.1082E-15  0.4041E-16
     10.951  0.4802E-01  0.1949E+00  0.7463E-01
     11.037  0.4761E-11  0.4507E-01  0.6967E-01
     11.124  0.8909E-03  0.1199E+00  0.5803E-01
     11.210  0.2438E-01  0.1768E+00  0.1200E+00
     11.297  0.1636E+00  0.4894E+00  0.5338E-01
     11.384  0.0000E+00  0.0000E+00  0.0000E+00
     11.470  0.0000E+00  0.0000E+00  0.0000E+00
     11.557  0.3548E-09  0.3957E-08  0.1833E-01
     11.643  0.0000E+00  0.0000E+00  0.0000E+00
     11.730  0.2536E-02  0.1726E+00  0.4078E-01
     11.817  0.5674E-10  0.7277E-09  0.5681E-01
     11.903  0.2801E+00  0.2374E+00  0.6746E-01
     11.990  0.2299E-07  0.7327E-01  0.1628E+00
     12.076  0.1626E-08  0.9150E-09  0.7319E-09
     12.163  0.1467E+00  0.8251E-01  0.6601E-01
     12.250  0.0000E+00  0.0000E+00  0.0000E+00
     12.336  0.0000E+00  0.0000E+00  0.0000E+00
     12.423  0.3369E-04  0.3169E+00  0.1234E+00
     12.509  0.8054E-01  0.2049E+00  0.1471E+00
     12.596  0.3147E-04  0.2348E+00  0.8590E-01
     12.683  0.6571E-03  0.8922E-01  0.1173E+00
     12.769  0.0000E+00  0.0000E+00  0.0000E+00
     12.856  0.3792E-09  0.3374E-01  0.1379E-01
     12.942  0.1850E-08  0.1646E+00  0.6728E-01
     13.029  0.3270E-10  0.4056E-08  0.9923E-09
     13.116  0.0000E+00  0.0000E+00  0.0000E+00
     13.202  0.2358E-17  0.4023E-12  0.1043E-12
     13.289  0.1112E-05  0.1897E+00  0.4919E-01
     13.375  0.1479E-03  0.8135E-01  0.2625E-01
     13.462  0.5536E-05  0.7295E-05  0.6163E-04
     13.549  0.7198E-02  0.9485E-02  0.8013E-01
     13.635  0.3920E-01  0.6115E+00  0.1536E+00
     13.722  0.8137E-09  0.4749E-02  0.1016E-01
     13.808  0.0000E+00  0.0000E+00  0.0000E+00
     13.895  0.0000E+00  0.0000E+00  0.0000E+00
     13.982  0.0000E+00  0.0000E+00  0.0000E+00
     14.068  0.1264E-01  0.4204E-01  0.1405E-02
     14.155  0.0000E+00  0.0000E+00  0.0000E+00
     14.242  0.0000E+00  0.0000E+00  0.0000E+00
     14.328  0.3213E-01  0.9759E-01  0.3392E-02
     14.415  0.0000E+00  0.0000E+00  0.0000E+00
     14.501  0.0000E+00  0.0000E+00  0.0000E+00
     14.588  0.0000E+00  0.0000E+00  0.0000E+00
     14.675  0.0000E+00  0.0000E+00  0.0000E+00
     14.761  0.0000E+00  0.0000E+00  0.0000E+00
     14.848  0.0000E+00  0.0000E+00  0.0000E+00
     14.934  0.0000E+00  0.0000E+00  0.0000E+00
     15.021  0.0000E+00  0.0000E+00  0.0000E+00
     15.108  0.0000E+00  0.0000E+00  0.0000E+00
     15.194  0.0000E+00  0.0000E+00  0.0000E+00
     15.281  0.0000E+00  0.0000E+00  0.0000E+00
     15.367  0.0000E+00  0.0000E+00  0.0000E+00
     15.454  0.0000E+00  0.0000E+00  0.0000E+00
     15.541  0.0000E+00  0.0000E+00  0.0000E+00
     15.627  0.0000E+00  0.0000E+00  0.0000E+00
     15.714  0.0000E+00  0.0000E+00  0.0000E+00
     15.800  0.0000E+00  0.0000E+00  0.0000E+00
     15.80035944    -10.18052456  301      2.31195050      1.00000000
    -10.181  0.0000E+00  0.0000E+00  0.0000E+00
    -10.094  0.0000E+00  0.0000E+00  0.0000E+00
    -10.007  0.0000E+00  0.0000E+00  0.0000E+00
     -9.921  0.0000E+00  0.0000E+00  0.0000E+00
     -9.834  0.0000E+00  0.0000E+00  0.0000E+00
     -9.748  0.0000E+00  0.0000E+00  0.0000E+00
     -9.661  0.0000E+00  0.0000E+00  0.0000E+00
     -9.574  0.0000E+00  0.0000E+00  0.0000E+00
     -9.488  0.0000E+00  0.0000E+00  0.0000E+00
     -9.401  0.0000E+00  0.0000E+00  0.0000E+00
     -9.314  0.0000E+00  0.0000E+00  0.0000E+00
     -9.228  0.0000E+00  0.0000E+00  0.0000E+00
     -9.141  0.0000E+00  0.0000E+00  0.0000E+00
     -9.055  0.1994E-15  0.3010E-30  0.3647E-30
     -8.968  0.6088E-01  0.9190E-16  0.1114E-15
     -8.881  0.4895E+00  0.1456E-03  0.9320E-06
     -8.795  0.3663E+00  0.1421E-03  0.1040E-06
     -8.708  0.8112E+00  0.3542E-03  0.4182E-05
     -8.622  0.1915E+01  0.7784E-03  0.1252E-04
     -8.535  0.5072E+01  0.9930E-03  0.4262E-04
     -8.448  0.4618E+01  0.2465E-03  0.1434E-04
     -8.362  0.0000E+00  0.0000E+00  0.0000E+00
     -8.275  0.0000E+00  0.0000E+00  0.0000E+00
     -8.189  0.0000E+00  0.0000E+00  0.0000E+00
     -8.102  0.0000E+00  0.0000E+00  0.0000E+00
     -8.015  0.0000E+00  0.0000E+00  0.0000E+00
     -7.929  0.0000E+00  0.0000E+00  0.0000E+00
     -7.842  0.0000E+00  0.0000E+00  0.0000E+00
     -7.756  0.0000E+00  0.0000E+00  0.0000E+00
     -7.669  0.0000E+00  0.0000E+00  0.0000E+00
     -7.582  0.0000E+00  0.0000E+00  0.0000E+00
     -7.496  0.0000E+00  0.0000E+00  0.0000E+00
     -7.409  0.0000E+00  0.0000E+00  0.0000E+00
     -7.323  0.0000E+00  0.0000E+00  0.0000E+00
     -7.236  0.0000E+00  0.0000E+00  0.0000E+00
     -7.149  0.0000E+00  0.0000E+00  0.0000E+00
     -7.063  0.0000E+00  0.0000E+00  0.0000E+00
     -6.976  0.0000E+00  0.0000E+00  0.0000E+00
     -6.890  0.0000E+00  0.0000E+00  0.0000E+00
     -6.803  0.0000E+00  0.0000E+00  0.0000E+00
     -6.716  0.0000E+00  0.0000E+00  0.0000E+00
     -6.630  0.0000E+00  0.0000E+00  0.0000E+00
     -6.543  0.0000E+00  0.0000E+00  0.0000E+00
     -6.457  0.0000E+00  0.0000E+00  0.0000E+00
     -6.370  0.0000E+00  0.0000E+00  0.0000E+00
     -6.283  0.0000E+00  0.0000E+00  0.0000E+00
     -6.197  0.0000E+00  0.0000E+00  0.0000E+00
     -6.110  0.0000E+00  0.0000E+00  0.0000E+00
     -6.024  0.4019E-09  0.3868E-01  0.1462E-02
     -5.937  0.1217E-01  0.5000E+00  0.3166E-01
     -5.850  0.4822E-02  0.1369E+00  0.1345E-01
     -5.764  0.3385E-01  0.5829E-01  0.2775E-01
     -5.677  0.9764E-01  0.3368E-01  0.3470E-02
     -5.591  0.3039E-01  0.4971E-02  0.7224E-03
     -5.504  0.5552E-01  0.7234E-02  0.6096E-03
     -5.417  0.2910E+00  0.2533E-01  0.2997E-02
     -5.331  0.2321E+00  0.8311E-02  0.1621E-02
     -5.244  0.4535E+00  0.6814E-02  0.1689E-02
     -5.158  0.0000E+00  0.0000E+00  0.0000E+00
     -5.071  0.0000E+00  0.0000E+00  0.0000E+00
     -4.984  0.0000E+00  0.0000E+00  0.0000E+00
     -4.898  0.0000E+00  0.0000E+00  0.0000E+00
     -4.811  0.0000E+00  0.0000E+00  0.0000E+00
     -4.725  0.0000E+00  0.0000E+00  0.0000E+00
     -4.638  0.0000E+00  0.0000E+00  0.0000E+00
     -4.551  0.0000E+00  0.0000E+00  0.0000E+00
     -4.465  0.0000E+00  0.0000E+00  0.0000E+00
     -4.378  0.0000E+00  0.0000E+00  0.0000E+00
     -4.292  0.0000E+00  0.0000E+00  0.0000E+00
     -4.205  0.0000E+00  0.0000E+00  0.0000E+00
     -4.118  0.0000E+00  0.0000E+00  0.0000E+00
     -4.032  0.0000E+00  0.0000E+00  0.0000E+00
     -3.945  0.0000E+00  0.0000E+00  0.0000E+00
     -3.859  0.0000E+00  0.0000E+00  0.0000E+00
     -3.772  0.0000E+00  0.0000E+00  0.0000E+00
     -3.685  0.0000E+00  0.0000E+00  0.0000E+00
     -3.599  0.0000E+00  0.0000E+00  0.0000E+00
     -3.512  0.0000E+00  0.0000E+00  0.0000E+00
     -3.425  0.0000E+00  0.0000E+00  0.0000E+00
     -3.339  0.0000E+00  0.0000E+00  0.0000E+00
     -3.252  0.0000E+00  0.0000E+00  0.0000E+00
     -3.166  0.0000E+00  0.0000E+00  0.0000E+00
     -3.079  0.0000E+00  0.0000E+00  0.0000E+00
     -2.992  0.0000E+00  0.0000E+00  0.0000E+00
     -2.906  0.0000E+00  0.0000E+00  0.0000E+00
     -2.819  0.0000E+00  0.0000E+00  0.0000E+00
     -2.733  0.0000E+00  0.0000E+00  0.0000E+00
     -2.646  0.0000E+00  0.0000E+00  0.0000E+00
     -2.559  0.0000E+00  0.0000E+00  0.0000E+00
     -2.473  0.0000E+00  0.0000E+00  0.0000E+00