    2    2    1    1
  0.3405476E+02  0.4583961E-09  0.4583961E-09  0.4583961E-09  0.5000000E-15
  1.000000000000000E-004
  CAR 
 Name                                    
     18   1016     16
 
  0.0000000E+00  0.0000000E+00  0.0000000E+00  0.4629630E-02
    1       -8.999575   1.000000
    2       -6.050870   1.000000
    3       -6.050870   1.000000
    4       -6.050870   1.000000
    5       -5.784610   1.000000
    6       -5.784610   1.000000
    7        2.207229   1.000000
    8        2.207229   1.000000
    9        2.207229   1.000000
   10        2.865392   0.000000
   11        6.751241   0.000000
   12        6.751241   0.000000
   13        6.751241   0.000000
   14        9.503827   0.000000
   15       11.549239   0.000000
   16       11.549240   0.000000
 
  0.1666667E+00  0.0000000E+00  0.0000000E+00  0.3703704E-01
    1       -8.898031   1.000000
    2       -6.031964   1.000000
    3       -6.031964   1.000000
    4       -5.969208   1.000000
    5       -5.785875   1.000000
    6       -5.785875   1.000000
    7        0.432745   1.000000
    8        1.976248   1.000000
    9        1.976248   1.000000
   10        3.985413   0.000000
   11        6.850006   0.000000
   12        7.091672   0.000000
   13        7.091672   0.000000
   14       10.506053   0.000000
   15       10.625865   0.000000
   16       10.625865   0.000000
 
  0.3333333E+00  0.0000000E+00  0.0000000E+00  0.3703704E-01
    1       -8.694149   1.000000
    2       -5.999374   1.000000
    3       -5.999373   1.000000
    4       -5.782024   1.000000
    5       -5.782024   1.000000
    6       -5.692026   1.000000
    7       -1.415973   1.000000
    8        1.591190   1.000000
    9        1.591190   1.000000
   10        4.048711   0.000000
   11        7.373907   0.000000
   12        7.373907   0.000000
   13        8.366466   0.000000
   14       10.131409   0.000000
   15       11.034512   0.000000
   16       11.034512   0.000000
 
  0.5000000E+00  0.0000000E+00  0.0000000E+00  0.1851852E-01
    1       -8.593844   1.000000
    2       -5.986662   1.000000
    3       -5.986661   1.000000
    4       -5.775875   1.000000
    5       -5.775874   1.000000
    6       -5.441267   1.000000
    7       -2.264132   1.000000
    8        1.424338   1.000000
    9        1.424338   1.000000
   10        3.937155   0.000000
   11        7.335611   0.000000
   12        7.335611   0.000000
   13        9.138288   0.000000
   14       10.726187   0.000000
   15       12.464155   0.000000
   16       12.464155   0.000000
 
  0.1666667E+00  0.1666667E+00  0.0000000E+00  0.2777778E-01
    1       -8.864513   1.000000
    2       -6.012852   1.000000
    3       -6.012852   1.000000
    4       -5.970458   1.000000
    5       -5.793276   1.000000
    6       -5.776846   1.000000
    7        0.427231   1.000000
    8        1.593424   1.000000
    9        1.593424   1.000000
   10        4.641067   0.000000
   11        5.829616   0.000000
   12        7.705867   0.000000
   13        7.705867   0.000000
   14        9.297510   0.000000
   15       11.275874   0.000000
   16       11.790279   0.000000
 
  0.3333333E+00  0.1666667E+00  0.0000000E+00  0.1111111E+00
    1       -8.695769   1.000000
    2       -5.987542   1.000000
    3       -5.975987   1.000000
    4       -5.838431   1.000000
    5       -5.771043   1.000000
    6       -5.715908   1.000000
    7       -0.957789   1.000000
    8        1.064077   1.000000
    9        1.181336   1.000000
   10        5.009289   0.000000
   11        6.173072   0.000000
   12        7.842597   0.000000
   13        8.272481   0.000000
   14       10.020387   0.000000
   15       11.867936   0.000000
   16       11.926497   0.000000
 
  0.5000000E+00  0.1666667E+00  0.0000000E+00  0.1111111E+00
    1       -8.563609   1.000000
    2       -5.972510   1.000000
    3       -5.960166   1.000000
    4       -5.801740   1.000000
    5       -5.772813   1.000000
    6       -5.417376   1.000000
    7       -2.050163   1.000000
    8        0.531768   1.000000
    9        1.099265   1.000000
   10        4.914436   0.000000
   11        6.829762   0.000000
   12        8.089471   0.000000
   13        8.703671   0.000000
   14       10.920666   0.000000
   15       12.115989   0.000000
   16       12.556749   0.000000
 
 -0.3333333E+00  0.1666667E+00  0.0000000E+00  0.1111111E+00
    1       -8.596154   1.000000
    2       -5.974349   1.000000
    3       -5.973623   1.000000
    4       -5.788469   1.000000
    5       -5.787671   1.000000
    6       -5.501478   1.000000
    7       -1.783821   1.000000
    8        0.395480   1.000000
    9        1.399943   1.000000
   10        4.970836   0.000000
   11        7.072960   0.000000
   12        7.785900   0.000000
   13        8.472726   0.000000
   14       10.626174   0.000000
   15       11.284840   0.000000
   16       12.464683   0.000000
 
 -0.1666667E+00  0.1666667E+00  0.0000000E+00  0.5555556E-01
    1       -8.762644   1.000000
    2       -6.010312   1.000000
    3       -5.995988   1.000000
    4       -5.841698   1.000000
    5       -5.794647   1.000000
    6       -5.762757   1.000000
    7       -0.549197   1.000000
    8        0.935629   1.000000
    9        1.854786   1.000000
   10        4.810543   0.000000
   11        6.821156   0.000000
   12        7.322521   0.000000
   13        7.631211   0.000000
   14        9.869987   0.000000
   15       11.104363   0.000000
   16       11.866620   0.000000
 
  0.3333333E+00  0.3333333E+00  0.0000000E+00  0.2777778E-01
    1       -8.597471   1.000000
    2       -5.930203   1.000000
    3       -5.930203   1.000000
    4       -5.878911   1.000000
    5       -5.761319   1.000000
    6       -5.602383   1.000000
    7       -1.307609   1.000000
    8        0.692413   1.000000
    9        0.692413   1.000000
   10        4.853063   0.000000
   11        5.274480   0.000000
   12        9.454368   0.000000
   13        9.658716   0.000000
   14        9.658716   0.000000
   15       12.457843   0.000000
   16       14.071316   0.000000
 
  0.5000000E+00  0.3333333E+00  0.0000000E+00  0.1111111E+00
    1       -8.501615   1.000000
    2       -5.928832   1.000000
    3       -5.908630   1.000000
    4       -5.852778   1.000000
    5       -5.762447   1.000000
    6       -5.352171   1.000000
    7       -1.933541   1.000000
    8        0.021521   1.000000
    9        0.558359   1.000000
   10        4.943973   0.000000
   11        5.840459   0.000000
   12        9.106886   0.000000
   13        9.851056   0.000000
   14       11.211114   0.000000
   15       12.862603   0.000000
   16       13.628938   0.000000
 
 -0.3333333E+00  0.3333333E+00  0.0000000E+00  0.5555556E-01
    1       -8.501984   1.000000
    2       -5.948581   1.000000
    3       -5.928057   1.000000
    4       -5.813353   1.000000
    5       -5.780049   1.000000
    6       -5.290002   1.000000
    7       -1.970272   1.000000
    8       -0.440851   1.000000
    9        0.870476   1.000000
   10        5.174324   0.000000
   11        7.261033   0.000000
   12        8.999180   0.000000
   13        9.113013   0.000000
   14        9.604230   0.000000
   15       11.156171   0.000000
   16       14.306150   0.000000
 
  0.5000000E+00  0.5000000E+00  0.0000000E+00  0.1388889E-01
    1       -8.469936   1.000000
    2       -5.892656   1.000000
    3       -5.885057   1.000000
    4       -5.885057   1.000000
    5       -5.753521   1.000000
    6       -5.305259   1.000000
    7       -2.140216   1.000000
    8        0.323164   1.000000
    9        0.323164   1.000000
   10        4.697342   0.000000
   11        4.804258   0.000000
   12       10.926847   0.000000
   13       11.272743   0.000000
   14       11.272743   0.000000
   15       13.021975   0.000000
   16       13.721578   0.000000
 
  0.5000000E+00  0.3333333E+00  0.1666667E+00  0.1111111E+00
    1       -8.565046   1.000000
    2       -5.954212   1.000000
    3       -5.946435   1.000000
    4       -5.827676   1.000000
    5       -5.772044   1.000000
    6       -5.477958   1.000000
    7       -1.616391   1.000000
    8        0.106089   1.000000
    9        0.872681   1.000000
   10        5.724346   0.000000
   11        6.261292   0.000000
   12        7.424016   0.000000
   13        9.552926   0.000000
   14       10.328659   0.000000
   15       12.412599   0.000000
   16       13.588553   0.000000
 
 -0.3333333E+00  0.3333333E+00  0.1666667E+00  0.1111111E+00
    1       -8.501985   1.000000
    2       -5.946427   1.000000
    3       -5.931529   1.000000
    4       -5.810343   1.000000
    5       -5.781870   1.000000
    6       -5.289183   1.000000
    7       -2.007772   1.000000
    8       -0.212492   1.000000
    9        0.586553   1.000000
   10        5.856518   0.000000
   11        6.744608   0.000000
   12        7.889953   0.000000
   13        9.405836   0.000000
   14       10.098394   0.000000
   15       12.608010   0.000000
   16       13.379445   0.000000
 
 -0.3333333E+00  0.5000000E+00  0.1666667E+00  0.5555556E-01
    1       -8.471192   1.000000
    2       -5.917698   1.000000
    3       -5.917032   1.000000
    4       -5.834307   1.000000
    5       -5.771829   1.000000
    6       -5.241600   1.000000
    7       -2.051367   1.000000
    8       -0.034099   1.000000
    9        0.056666   1.000000
   10        5.865305   0.000000
   11        5.895582   0.000000
   12        8.815436   0.000000
   13        9.092366   0.000000
   14       11.719638   0.000000
   15       13.251266   0.000000
   16       13.484478   0.000000
 
  0.0000000E+00  0.0000000E+00  0.0000000E+00  0.0000000E+00
    1       -8.999575   1.000000
    2       -6.050870   1.000000
    3       -6.050870   1.000000
    4       -6.050870   1.000000
    5       -5.784610   1.000000
    6       -5.784610   1.000000
    7        2.207229   1.000000
    8        2.207229   1.000000
    9        2.207229   1.000000
   10        2.865392   0.000000
   11        6.751241   0.000000
   12        6.751241   0.000000
   13        6.751241   0.000000
   14        9.503827   0.000000
   15       11.549240   0.000000
   16       11.549248   0.000000
 
  0.5000000E-03  0.0000000E+00  0.5000000E-03  0.0000000E+00
    1       -8.999574   1.000000
    2       -6.050870   1.000000
    3       -6.050869   1.000000
    4       -6.050869   1.000000
    5       -5.784610   1.000000
    6       -5.784609   1.000000
    7        2.207164   1.000000
    8        2.207222   1.000000
    9        2.207222   1.000000
   10        2.865458   0.000000
   11        6.751227   0.000000
   12        6.751251   0.000000
   13        6.751251   0.000000
   14        9.503849   0.000000
   15       11.549153   0.000000
   16       11.549321   0.000000
 
  0.1000000E-02  0.0000000E+00  0.1000000E-02  0.0000000E+00
    1       -8.999571   1.000000
    2       -6.050868   1.000000
    3       -6.050868   1.000000
    4       -6.050867   1.000000
    5       -5.784610   1.000000
    6       -5.784609   1.000000
    7        2.206970   1.000000
    8        2.207201   1.000000
    9        2.207201   1.000000
   10        2.865655   0.000000
   11        6.751183   0.000000
   12        6.751282   0.000000
   13        6.751282   0.000000
   14        9.503913   0.000000
   15       11.548819   0.000000
   16       11.549259   0.000000
 
  0.1500000E-02  0.0000000E+00  0.1500000E-02  0.0000000E+00
    1       -8.999565   1.000000
    2       -6.050866   1.000000
    3       -6.050866   1.000000
    4       -6.050864   1.000000
    5       -5.784611   1.000000
    6       -5.784609   1.000000
    7        2.206647   1.000000
    8        2.207165   1.000000
    9        2.207165   1.000000
   10        2.865983   0.000000
   11        6.751110   0.000000
   12        6.751332   0.000000
   13        6.751332   0.000000
   14        9.504020   0.000000
   15       11.548309   0.000000
   16       11.549262   0.000000
 
  0.2000000E-02  0.0000000E+00  0.2000000E-02  0.0000000E+00
    1       -8.999556   1.000000
    2       -6.050864   1.000000
    3       -6.050863   1.000000
    4       -6.050859   1.000000
    5       -5.784611   1.000000
    6       -5.784608   1.000000
    7        2.206195   1.000000
    8        2.207116   1.000000
    9        2.207116   1.000000
   10        2.866443   0.000000
   11        6.751009   0.000000
   12        6.751403   0.000000
   13        6.751403   0.000000
   14        9.504171   0.000000
   15       11.547557   0.000000
   16       11.549275   0.000000
 
  0.2500000E-02  0.0000000E+00  0.2500000E-02  0.0000000E+00
    1       -8.999544   1.000000
    2       -6.050860   1.000000
    3       -6.050860   1.000000
    4       -6.050852   1.000000
    5       -5.784613   1.000000
    6       -5.784607   1.000000
    7        2.205614   1.000000
    8        2.207052   1.000000
    9        2.207052   1.000000
   10        2.867032   0.000000
   11        6.750878   0.000000
   12        6.751494   0.000000
   13        6.751495   0.000000
   14        9.504364   0.000000
   15       11.546615   0.000000
   16       11.549298   0.000000
 
  0.3000000E-02  0.0000000E+00  0.3000000E-02  0.0000000E+00
    1       -8.999530   1.000000
    2       -6.050856   1.000000
    3       -6.050856   1.000000
    4       -6.050845   1.000000
    5       -5.784614   1.000000
    6       -5.784607   1.000000
    7        2.204906   1.000000
    8        2.206974   1.000000
    9        2.206974   1.000000
   10        2.867751   0.000000
   11        6.750718   0.000000
   12        6.751606   0.000000
   13        6.751606   0.000000
   14        9.504600   0.000000
   15       11.545471   0.000000
   16       11.549341   0.000000
 
  0.3500000E-02  0.0000000E+00  0.3500000E-02  0.0000000E+00
    1       -8.999513   1.000000
    2       -6.050851   1.000000
    3       -6.050851   1.000000
    4       -6.050835   1.000000
    5       -5.784616   1.000000
    6       -5.784606   1.000000
    7        2.204072   1.000000
    8        2.206882   1.000000
    9        2.206882   1.000000
   10        2.868599   0.000000
   11        6.750529   0.000000
   12        6.751738   0.000000
   13        6.751738   0.000000
   14        9.504879   0.000000
   15       11.544107   0.000000
   16       11.549350   0.000000
 
  0.4000000E-02  0.0000000E+00  0.4000000E-02  0.0000000E+00
    1       -8.999494   1.000000
    2       -6.050846   1.000000
    3       -6.050845   1.000000
    4       -6.050825   1.000000
    5       -5.784617   1.000000
    6       -5.784604   1.000000
    7        2.203111   1.000000
    8        2.206776   1.000000
    9        2.206776   1.000000
   10        2.869574   0.000000
   11        6.750312   0.000000
   12        6.751890   0.000000
   13        6.751890   0.000000
   14        9.505201   0.000000
   15       11.542544   0.000000
   16       11.549383   0.000000
 
  0.4500000E-02  0.0000000E+00  0.4500000E-02  0.0000000E+00
    1       -8.999472   1.000000
    2       -6.050839   1.000000
    3       -6.050839   1.000000
    4       -6.050813   1.000000
    5       -5.784620   1.000000
    6       -5.784603   1.000000
    7        2.202026   1.000000
    8        2.206656   1.000000
    9        2.206656   1.000000
   10        2.870676   0.000000
   11        6.750065   0.000000
   12        6.752062   0.000000
   13        6.752062   0.000000
   14        9.505565   0.000000
   15       11.541007   0.000000
   16       11.549437   0.000000
 
  0.5000000E-02  0.0000000E+00  0.5000000E-02  0.0000000E+00
    1       -8.999447   1.000000
    2       -6.050832   1.000000
    3       -6.050832   1.000000
    4       -6.050800   1.000000
    5       -5.784622   1.000000
    6       -5.784602   1.000000
    7        2.200817   1.000000
    8        2.206521   1.000000
    9        2.206521   1.000000
   10        2.871903   0.000000
   11        6.749789   0.000000
   12        6.752254   0.000000
   13        6.752254   0.000000
   14        9.505973   0.000000
   15       11.538840   0.000000
   16       11.549487   0.000000
 
  0.5500000E-02  0.0000000E+00  0.5500000E-02  0.0000000E+00
    1       -8.999419   1.000000
    2       -6.050824   1.000000
    3       -6.050824   1.000000
    4       -6.050785   1.000000
    5       -5.784625   1.000000
    6       -5.784600   1.000000
    7        2.199487   1.000000
    8        2.206373   1.000000
    9        2.206373   1.000000
   10        2.873255   0.000000
   11        6.749485   0.000000
   12        6.752467   0.000000
   13        6.752467   0.000000
   14        9.506423   0.000000
   15       11.536683   0.000000
   16       11.549505   0.000000
 
  0.6000000E-02  0.0000000E+00  0.6000000E-02  0.0000000E+00
    1       -8.999389   1.000000
    2       -6.050816   1.000000
    3       -6.050816   1.000000
    4       -6.050769   1.000000
    5       -5.784628   1.000000
    6       -5.784598   1.000000
    7        2.198035   1.000000
    8        2.206210   1.000000
    9        2.206210   1.000000
   10        2.874729   0.000000
   11        6.749151   0.000000
   12        6.752700   0.000000
   13        6.752700   0.000000
   14        9.506916   0.000000
   15       11.534349   0.000000
   16       11.549562   0.000000
 
  0.6500000E-02  0.0000000E+00  0.6500000E-02  0.0000000E+00
    1       -8.999357   1.000000
    2       -6.050807   1.000000
    3       -6.050806   1.000000
    4       -6.050752   1.000000
    5       -5.784631   1.000000
    6       -5.784596   1.000000
    7        2.196465   1.000000
    8        2.206033   1.000000
    9        2.206033   1.000000
   10        2.876324   0.000000
   11        6.748789   0.000000
   12        6.752953   0.000000
   13        6.752953   0.000000
   14        9.507451   0.000000
   15       11.531831   0.000000
   16       11.549611   0.000000
 
  0.7000000E-02  0.0000000E+00  0.7000000E-02  0.0000000E+00
    1       -8.999321   1.000000
    2       -6.050797   1.000000
    3       -6.050796   1.000000
    4       -6.050733   1.000000
    5       -5.784634   1.000000
    6       -5.784594   1.000000
    7        2.194777   1.000000
    8        2.205842   1.000000
    9        2.205842   1.000000
   10        2.878038   0.000000
   11        6.748398   0.000000
   12        6.753226   0.000000
   13        6.753227   0.000000
   14        9.508029   0.000000
   15       11.529144   0.000000
   16       11.549683   0.000000
 
  0.7500000E-02  0.0000000E+00  0.7500000E-02  0.0000000E+00
    1       -8.999283   1.000000
    2       -6.050786   1.000000
    3       -6.050786   1.000000
    4       -6.050713   1.000000
    5       -5.784638   1.000000
    6       -5.784592   1.000000
    7        2.192973   1.000000
    8        2.205637   1.000000
    9        2.205637   1.000000
   10        2.879870   0.000000
   11        6.747978   0.000000
   12        6.753520   0.000000
   13        6.753520   0.000000
   14        9.508650   0.000000
   15       11.526225   0.000000
   16       11.549734   0.000000
 
  0.8000000E-02  0.0000000E+00  0.8000000E-02  0.0000000E+00
    1       -8.999243   1.000000
    2       -6.050775   1.000000
    3       -6.050775   1.000000
    4       -6.050691   1.000000
    5       -5.784643   1.000000
    6       -5.784589   1.000000
    7        2.191056   1.000000
    8        2.205417   1.000000
    9        2.205417   1.000000
   10        2.881817   0.000000
   11        6.747529   0.000000
   12        6.753833   0.000000
   13        6.753833   0.000000
   14        9.509313   0.000000
   15       11.523169   0.000000
   16       11.549809   0.000000
 
  0.8500000E-02  0.0000000E+00  0.8500000E-02  0.0000000E+00
    1       -8.999199   1.000000
    2       -6.050763   1.000000
    3       -6.050762   1.000000
    4       -6.050668   1.000000
    5       -5.784647   1.000000
    6       -5.784587   1.000000
    7        2.189027   1.000000
    8        2.205183   1.000000
    9        2.205183   1.000000
   10        2.883878   0.000000
   11        6.747052   0.000000
   12        6.754167   0.000000
   13        6.754167   0.000000
   14        9.510018   0.000000
   15       11.519940   0.000000
   16       11.549873   0.000000
 
  0.9000000E-02  0.0000000E+00  0.9000000E-02  0.0000000E+00
    1       -8.999153   1.000000
    2       -6.050750   1.000000
    3       -6.050750   1.000000
    4       -6.050644   1.000000
    5       -5.784652   1.000000
    6       -5.784584   1.000000
    7        2.186888   1.000000
    8        2.204936   1.000000
    9        2.204936   1.000000
   10        2.886051   0.000000
   11        6.746546   0.000000
   12        6.754521   0.000000
   13        6.754522   0.000000
   14        9.510767   0.000000
   15       11.516549   0.000000
   16       11.549967   0.000000
 
  0.9500000E-02  0.0000000E+00  0.9500000E-02  0.0000000E+00
    1       -8.999105   1.000000
    2       -6.050736   1.000000
    3       -6.050736   1.000000
    4       -6.050618   1.000000
    5       -5.784657   1.000000
    6       -5.784581   1.000000
    7        2.184642   1.000000
    8        2.204675   1.000000
    9        2.204675   1.000000
   10        2.888333   0.000000
   11        6.746011   0.000000
   12        6.754896   0.000000
   13        6.754896   0.000000
   14        9.511558   0.000000
   15       11.512983   0.000000
   16       11.550049   0.000000
 
  0.1000000E-01  0.0000000E+00  0.1000000E-01  0.0000000E+00
    1       -8.999053   1.000000
    2       -6.050722   1.000000
    3       -6.050722   1.000000
    4       -6.050591   1.000000
    5       -5.784662   1.000000
    6       -5.784578   1.000000
    7        2.182290   1.000000
    8        2.204399   1.000000
    9        2.204399   1.000000
   10        2.890723   0.000000
   11        6.745448   0.000000
   12        6.755291   0.000000
   13        6.755291   0.000000
   14        9.512391   0.000000
   15       11.509268   0.000000
   16       11.550116   0.000000
 
  0.1050000E-01  0.0000000E+00  0.1050000E-01  0.0000000E+00
    1       -8.998999   1.000000
    2       -6.050707   1.000000
    3       -6.050707   1.000000
    4       -6.050563   1.000000
    5       -5.784667   1.000000
    6       -5.784575   1.000000
    7        2.179834   1.000000
    8        2.204109   1.000000
    9        2.204109   1.000000
   10        2.893219   0.000000
   11        6.744857   0.000000
   12        6.755705   0.000000
   13        6.755706   0.000000
   14        9.513266   0.000000
   15       11.505404   0.000000
   16       11.550206   0.000000
 
  0.1100000E-01  0.0000000E+00  0.1100000E-01  0.0000000E+00
    1       -8.998942   1.000000
    2       -6.050691   1.000000
    3       -6.050691   1.000000
    4       -6.050533   1.000000
    5       -5.784673   1.000000
    6       -5.784572   1.000000
    7        2.177277   1.000000
    8        2.203806   1.000000
    9        2.203806   1.000000
   10        2.895818   0.000000
   11        6.744237   0.000000
   12        6.756140   0.000000
   13        6.756141   0.000000
   14        9.514183   0.000000
   15       11.501386   0.000000
   16       11.550311   0.000000
 
  0.1150000E-01  0.0000000E+00  0.1150000E-01  0.0000000E+00
    1       -8.998883   1.000000
    2       -6.050674   1.000000
    3       -6.050674   1.000000
    4       -6.050501   1.000000
    5       -5.784679   1.000000
    6       -5.784568   1.000000
    7        2.174621   1.000000
    8        2.203488   1.000000
    9        2.203488   1.000000
   10        2.898518   0.000000
   11        6.743588   0.000000
   12        6.756595   0.000000
   13        6.756596   0.000000
   14        9.515143   0.000000
   15       11.497226   0.000000
   16       11.550398   0.000000
 
  0.1200000E-01  0.0000000E+00  0.1200000E-01  0.0000000E+00
    1       -8.998821   1.000000
    2       -6.050657   1.000000
    3       -6.050657   1.000000
    4       -6.050469   1.000000
    5       -5.784685   1.000000
    6       -5.784565   1.000000
    7        2.171868   1.000000
    8        2.203156   1.000000
    9        2.203156   1.000000
   10        2.901316   0.000000
   11        6.742912   0.000000
   12        6.757071   0.000000
   13        6.757071   0.000000
   14        9.516145   0.000000
   15       11.492928   0.000000
   16       11.550501   0.000000
 
  0.1250000E-01  0.0000000E+00  0.1250000E-01  0.0000000E+00
    1       -8.998756   1.000000
    2       -6.050639   1.000000
    3       -6.050639   1.000000
    4       -6.050435   1.000000
    5       -5.784691   1.000000
    6       -5.784561   1.000000
    7        2.169020   1.000000
    8        2.202810   1.000000
    9        2.202810   1.000000
   10        2.904211   0.000000
   11        6.742207   0.000000
   12        6.757566   0.000000
   13        6.757566   0.000000
   14        9.517188   0.000000
   15       11.488498   0.000000
   16       11.550612   0.000000
 
  0.1300000E-01  0.0000000E+00  0.1300000E-01  0.0000000E+00
    1       -8.998690   1.000000
    2       -6.050621   1.000000
    3       -6.050621   1.000000
    4       -6.050399   1.000000
    5       -5.784698   1.000000
    6       -5.784557   1.000000
    7        2.166080   1.000000
    8        2.202449   1.000000
    9        2.202449   1.000000
   10        2.907200   0.000000
   11        6.741474   0.000000
   12        6.758081   0.000000
   13        6.758081   0.000000
   14        9.518273   0.000000
   15       11.483932   0.000000
   16       11.550723   0.000000
 
  0.1350000E-01  0.0000000E+00  0.1350000E-01  0.0000000E+00
    1       -8.998620   1.000000
    2       -6.050601   1.000000
    3       -6.050601   1.000000
    4       -6.050362   1.000000
    5       -5.784705   1.000000
    6       -5.784553   1.000000
    7        2.163050   1.000000
    8        2.202076   1.000000
    9        2.202076   1.000000
   10        2.910282   0.000000
   11        6.740713   0.000000
   12        6.758616   0.000000
   13        6.758616   0.000000
   14        9.519400   0.000000
   15       11.479243   0.000000
   16       11.550837   0.000000
 
  0.1400000E-01  0.0000000E+00  0.1400000E-01  0.0000000E+00
    1       -8.998547   1.000000
    2       -6.050581   1.000000
    3       -6.050581   1.000000
    4       -6.050324   1.000000
    5       -5.784712   1.000000
    6       -5.784549   1.000000
    7        2.159932   1.000000
    8        2.201688   1.000000
    9        2.201688   1.000000
   10        2.913454   0.000000
   11        6.739924   0.000000
   12        6.759172   0.000000
   13        6.759172   0.000000
   14        9.520570   0.000000
   15       11.474430   0.000000
   16       11.550961   0.000000
 
  0.1450000E-01  0.0000000E+00  0.1450000E-01  0.0000000E+00
    1       -8.998472   1.000000
    2       -6.050560   1.000000
    3       -6.050560   1.000000
    4       -6.050285   1.000000
    5       -5.784719   1.000000
    6       -5.784545   1.000000
    7        2.156728   1.000000
    8        2.201286   1.000000
    9        2.201286   1.000000
   10        2.916713   0.000000
   11        6.739107   0.000000
   12        6.759748   0.000000
   13        6.759748   0.000000
   14        9.521780   0.000000
   15       11.469500   0.000000
   16       11.551084   0.000000
 
  0.1500000E-01  0.0000000E+00  0.1500000E-01  0.0000000E+00
    1       -8.998394   1.000000
    2       -6.050539   1.000000
    3       -6.050539   1.000000
    4       -6.050244   1.000000
    5       -5.784727   1.000000
    6       -5.784540   1.000000
    7        2.153440   1.000000
    8        2.200870   1.000000
    9        2.200870   1.000000
   10        2.920057   0.000000
   11        6.738262   0.000000
   12        6.760344   0.000000
   13        6.760344   0.000000
   14        9.523033   0.000000
   15       11.464471   0.000000
   16       11.551230   0.000000
 
  0.1550000E-01  0.0000000E+00  0.1550000E-01  0.0000000E+00
    1       -8.998313   1.000000
    2       -6.050517   1.000000
    3       -6.050516   1.000000
    4       -6.050201   1.000000
    5       -5.784735   1.000000
    6       -5.784535   1.000000
    7        2.150072   1.000000
    8        2.200440   1.000000
    9        2.200440   1.000000
   10        2.923485   0.000000
   11        6.737390   0.000000
   12        6.760960   0.000000
   13        6.760960   0.000000
   14        9.524326   0.000000
   15       11.459307   0.000000
   16       11.551348   0.000000
 
  0.1600000E-01  0.0000000E+00  0.1600000E-01  0.0000000E+00
    1       -8.998229   1.000000
    2       -6.050493   1.000000
    3       -6.050493   1.000000
    4       -6.050157   1.000000
    5       -5.784743   1.000000
    6       -5.784531   1.000000
    7        2.146624   1.000000
    8        2.199997   1.000000
    9        2.199997   1.000000
   10        2.926994   0.000000
   11        6.736489   0.000000
   12        6.761596   0.000000
   13        6.761596   0.000000
   14        9.525662   0.000000
   15       11.454049   0.000000
   16       11.551493   0.000000
 
  0.1650000E-01  0.0000000E+00  0.1650000E-01  0.0000000E+00
    1       -8.998143   1.000000
    2       -6.050470   1.000000
    3       -6.050469   1.000000
    4       -6.050112   1.000000
    5       -5.784751   1.000000
    6       -5.784526   1.000000
    7        2.143099   1.000000
    8        2.199539   1.000000
    9        2.199539   1.000000
   10        2.930582   0.000000
   11        6.735562   0.000000
   12        6.762252   0.000000
   13        6.762252   0.000000
   14        9.527039   0.000000
   15       11.448689   0.000000
   16       11.551633   0.000000
 
  0.1700000E-01  0.0000000E+00  0.1700000E-01  0.0000000E+00
    1       -8.998054   1.000000
    2       -6.050445   1.000000
    3       -6.050445   1.000000
    4       -6.050066   1.000000
    5       -5.784760   1.000000