 running on   24 total cores
 distrk:  each k-point on   24 cores,    1 groups
 distr:  one band on    3 cores,    8 groups
 using from now: INCAR     
 vasp.5.4.1 24Jun15 (build Nov 25 2015 16:01:35) complex                        
  
 POSCAR found type information on POSCAR  C  N  H  Pb I 
 POSCAR found :  5 types and      96 ions
 scaLAPACK will be used

 ----------------------------------------------------------------------------- 
|                                                                             |
|  ADVICE TO THIS USER RUNNING 'VASP/VAMP'   (HEAR YOUR MASTER'S VOICE ...):  |
|                                                                             |
|      You have a (more or less) 'large supercell' and for larger cells       |
|      it might be more efficient to use real space projection opertators     |
|      So try LREAL= Auto  in the INCAR   file.                               |
|      Mind: At the moment your POTCAR file does not contain real space       |
|       projectors, and has to be modified,  BUT if you                       |
|      want to do an extremely  accurate calculation you might also keep the  |
|      reciprocal projection scheme          (i.e. LREAL=.FALSE.)             |
|                                                                             |
 ----------------------------------------------------------------------------- 


 ----------------------------------------------------------------------------- 
|                                                                             |
|  ADVICE TO THIS USER RUNNING 'VASP/VAMP'   (HEAR YOUR MASTER'S VOICE ...):  |
|                                                                             |
|      You enforced a specific xc-type in the INCAR file,                     |
|      a different type was found on the POTCAR file                          |
|          I HOPE YOU KNOW, WHAT YOU ARE  DOING                               |
|                                                                             |
 ----------------------------------------------------------------------------- 

 LDA part: xc-table for Pade appr. of Perdew
 POSCAR, INCAR and KPOINTS ok, starting setup
 WARNING: small aliasing (wrap around) errors must be expected
 FFT: planning ...
 WAVECAR not read
 entering main loop
       N       E                     dE             d eps       ncg     rms          rms(c)
DAV:   1     0.359398616842E+04    0.35940E+04   -0.18940E+05  7176   0.170E+03
DAV:   2     0.203317551174E+03   -0.33907E+04   -0.31905E+04  7976   0.354E+02
DAV:   3    -0.397431424849E+03   -0.60075E+03   -0.59171E+03  9480   0.172E+02
DAV:   4    -0.438080260331E+03   -0.40649E+02   -0.40475E+02  9648   0.490E+01
DAV:   5    -0.439621017858E+03   -0.15408E+01   -0.15384E+01  9792   0.924E+00    0.292E+01
DAV:   6    -0.419438640069E+03    0.20182E+02   -0.40675E+01  9784   0.104E+01    0.155E+01
DAV:   7    -0.417006802425E+03    0.24318E+01   -0.14714E+01 10296   0.643E+00    0.774E+00
DAV:   8    -0.416839745583E+03    0.16706E+00   -0.31366E+00  8528   0.323E+00    0.185E+00
DAV:   9    -0.416760750266E+03    0.78995E-01   -0.77914E-01  9408   0.179E+00    0.710E-01
DAV:  10    -0.416772213754E+03   -0.11463E-01   -0.11012E-01  8928   0.585E-01    0.468E-01
DAV:  11    -0.416772097070E+03    0.11668E-03   -0.15567E-02  9904   0.289E-01    0.193E-01
DAV:  12    -0.416773459844E+03   -0.13628E-02   -0.87078E-03  9752   0.149E-01    0.102E-01
DAV:  13    -0.416773629825E+03   -0.16998E-03   -0.13026E-03  8264   0.743E-02    0.713E-02
DAV:  14    -0.416773662280E+03   -0.32455E-04   -0.29398E-04  8664   0.295E-02    0.307E-02
DAV:  15    -0.416773709075E+03   -0.46795E-04   -0.13574E-04  8048   0.196E-02    0.115E-02
DAV:  16    -0.416773712907E+03   -0.38321E-05   -0.12408E-05 10416   0.647E-03    0.122E-02
DAV:  17    -0.416773712711E+03    0.19555E-06   -0.26949E-06  8104   0.300E-03    0.597E-03
DAV:  18    -0.416773712736E+03   -0.24884E-07   -0.91386E-06  9088   0.482E-03    0.372E-03
DAV:  19    -0.416773712752E+03   -0.15385E-07   -0.89106E-07  7992   0.210E-03    0.263E-03
DAV:  20    -0.416773712731E+03    0.20391E-07   -0.44389E-07  8664   0.104E-03    0.551E-04
DAV:  21    -0.416773712775E+03   -0.43947E-07   -0.58202E-08  6712   0.475E-04    0.305E-04
DAV:  22    -0.416773712766E+03    0.87166E-08   -0.58223E-09  4864   0.235E-04
   1 F= -.41677371E+03 E0= -.41677371E+03  d E =0.000000E+00
Application 22074929 resources: utime ~167061s, stime ~93s, Rss ~640640, inblocks ~184891, outblocks ~194552
