 running on   96 total cores
 distrk:  each k-point on   24 cores,    4 groups
 distr:  one band on    6 cores,    4 groups
 using from now: INCAR     
 vasp.5.4.1 24Jun15 (build Nov 25 2015 16:01:35) complex                        
  
 POSCAR found type information on POSCAR  Cd Te
 POSCAR found :  2 types and       2 ions
 scaLAPACK will be used

 ----------------------------------------------------------------------------- 
|                                                                             |
|           W    W    AA    RRRRR   N    N  II  N    N   GGGG   !!!           |
|           W    W   A  A   R    R  NN   N  II  NN   N  G    G  !!!           |
|           W    W  A    A  R    R  N N  N  II  N N  N  G       !!!           |
|           W WW W  AAAAAA  RRRRR   N  N N  II  N  N N  G  GGG   !            |
|           WW  WW  A    A  R   R   N   NN  II  N   NN  G    G                |
|           W    W  A    A  R    R  N    N  II  N    N   GGGG   !!!           |
|                                                                             |
|      You have enabled k-point parallelism (KPAR>1).                         |
|      This developmental code was originally  written by Paul Kent at ORNL,  |
|      and carefully double checked in Vienna.                                |
|      GW as well as linear response parallelism added by Martijn Marsman     |
|      and Georg Kresse.                                                      |
|      Carefully verify results versus KPAR=1.                                |
|      Report problems to Paul Kent and Vienna.                               |
|                                                                             |
 ----------------------------------------------------------------------------- 

 LDA part: xc-table for Ceperly-Alder, standard interpolation
 POSCAR, INCAR and KPOINTS ok, starting setup
 FFT: planning ...
 WAVECAR not read
 charge-density read from file: Name                                    
 WARNING: random wavefunctions but no delay for mixing, default for NELMDL
 entering main loop
       N       E                     dE             d eps       ncg     rms          rms(c)
DAV:   1     0.995260933981E+02    0.99526E+02   -0.82096E+03  4688   0.945E+02
DAV:   2    -0.234099598808E+01   -0.10187E+03   -0.97235E+02  5584   0.237E+02
DAV:   3    -0.598868764165E+01   -0.36477E+01   -0.36433E+01  5672   0.464E+01
DAV:   4    -0.602027544105E+01   -0.31588E-01   -0.31586E-01  6976   0.393E+00
DAV:   5    -0.602034119868E+01   -0.65758E-04   -0.65757E-04  5928   0.173E-01
DAV:   6    -0.602034240367E+01   -0.12050E-05   -0.12050E-05  6936   0.172E-02
DAV:   7    -0.602034241770E+01   -0.14029E-07   -0.14000E-07  4760   0.144E-03
   1 F= -.60203424E+01 E0= -.60203424E+01  d E =-.602034E+01
 curvature:   0.00 expect dE= 0.000E+00 dE for cont linesearch  0.000E+00
 trial: gam= 0.00000 g(F)=  0.988E-47 g(S)=  0.196E-01 ort = 0.000E+00 (trialstep = 0.100E+01)
 search vector abs. value=  0.196E-01
 writing wavefunctions
Application 21815550 resources: utime ~707s, stime ~17s, Rss ~42748, inblocks ~638423, outblocks ~867879
