   2   2   1   0
  0.3405476E+02  0.4583961E-09  0.4583961E-09  0.4583961E-09  0.5000000E-15
  1.000000000000000E-004
  CAR 
 Name                                    
     15.51796468    -10.41572759  301      2.05405611      1.00000000
    -10.416  0.0000E+00  0.0000E+00
    -10.329  0.0000E+00  0.0000E+00
    -10.243  0.0000E+00  0.0000E+00
    -10.156  0.0000E+00  0.0000E+00
    -10.070  0.0000E+00  0.0000E+00
     -9.983  0.0000E+00  0.0000E+00
     -9.897  0.0000E+00  0.0000E+00
     -9.811  0.0000E+00  0.0000E+00
     -9.724  0.0000E+00  0.0000E+00
     -9.638  0.0000E+00  0.0000E+00
     -9.551  0.0000E+00  0.0000E+00
     -9.465  0.0000E+00  0.0000E+00
     -9.378  0.0000E+00  0.0000E+00
     -9.292  0.3865E-15  0.3341E-16
     -9.205  0.1071E+00  0.9259E-02
     -9.119  0.1425E+01  0.1324E+00
     -9.033  0.1275E+01  0.2491E+00
     -8.946  0.3486E+01  0.5514E+00
     -8.860  0.1429E+02  0.1786E+01
     -8.773  0.1548E+01  0.2000E+01
     -8.687  0.0000E+00  0.2000E+01
     -8.600  0.0000E+00  0.2000E+01
     -8.514  0.0000E+00  0.2000E+01
     -8.427  0.0000E+00  0.2000E+01
     -8.341  0.0000E+00  0.2000E+01
     -8.255  0.0000E+00  0.2000E+01
     -8.168  0.0000E+00  0.2000E+01
     -8.082  0.0000E+00  0.2000E+01
     -7.995  0.0000E+00  0.2000E+01
     -7.909  0.0000E+00  0.2000E+01
     -7.822  0.0000E+00  0.2000E+01
     -7.736  0.0000E+00  0.2000E+01
     -7.649  0.0000E+00  0.2000E+01
     -7.563  0.0000E+00  0.2000E+01
     -7.477  0.0000E+00  0.2000E+01
     -7.390  0.0000E+00  0.2000E+01
     -7.304  0.0000E+00  0.2000E+01
     -7.217  0.0000E+00  0.2000E+01
     -7.131  0.0000E+00  0.2000E+01
     -7.044  0.1784E-16  0.2000E+01
     -6.958  0.2580E+01  0.2223E+01
     -6.871  0.3944E+02  0.5810E+01
     -6.785  0.1036E+02  0.6979E+01
     -6.699  0.3347E+02  0.1023E+02
     -6.612  0.2215E+01  0.1044E+02
     -6.526  0.8568E+00  0.1055E+02
     -6.439  0.6427E+00  0.1060E+02
     -6.353  0.4609E+01  0.1100E+02
     -6.266  0.2970E+01  0.1131E+02
     -6.180  0.3286E+01  0.1159E+02
     -6.093  0.3698E+01  0.1200E+02
     -6.007  0.0000E+00  0.1200E+02
     -5.921  0.0000E+00  0.1200E+02
     -5.834  0.0000E+00  0.1200E+02
     -5.748  0.0000E+00  0.1200E+02
     -5.661  0.0000E+00  0.1200E+02
     -5.575  0.0000E+00  0.1200E+02
     -5.488  0.0000E+00  0.1200E+02
     -5.402  0.0000E+00  0.1200E+02
     -5.315  0.0000E+00  0.1200E+02
     -5.229  0.0000E+00  0.1200E+02
     -5.143  0.0000E+00  0.1200E+02
     -5.056  0.0000E+00  0.1200E+02
     -4.970  0.0000E+00  0.1200E+02
     -4.883  0.0000E+00  0.1200E+02
     -4.797  0.0000E+00  0.1200E+02
     -4.710  0.0000E+00  0.1200E+02
     -4.624  0.0000E+00  0.1200E+02
     -4.537  0.0000E+00  0.1200E+02
     -4.451  0.0000E+00  0.1200E+02
     -4.365  0.0000E+00  0.1200E+02
     -4.278  0.0000E+00  0.1200E+02
     -4.192  0.0000E+00  0.1200E+02
     -4.105  0.0000E+00  0.1200E+02
     -4.019  0.0000E+00  0.1200E+02
     -3.932  0.0000E+00  0.1200E+02
     -3.846  0.0000E+00  0.1200E+02
     -3.759  0.0000E+00  0.1200E+02
     -3.673  0.0000E+00  0.1200E+02
     -3.587  0.0000E+00  0.1200E+02
     -3.500  0.0000E+00  0.1200E+02
     -3.414  0.0000E+00  0.1200E+02
     -3.327  0.0000E+00  0.1200E+02
     -3.241  0.0000E+00  0.1200E+02
     -3.154  0.0000E+00  0.1200E+02
     -3.068  0.0000E+00  0.1200E+02
     -2.981  0.0000E+00  0.1200E+02
     -2.895  0.0000E+00  0.1200E+02
     -2.809  0.0000E+00  0.1200E+02
     -2.722  0.0000E+00  0.1200E+02
     -2.636  0.0000E+00  0.1200E+02
     -2.549  0.0000E+00  0.1200E+02
     -2.463  0.4381E-10  0.1200E+02
     -2.376  0.4284E+00  0.1204E+02
     -2.290  0.3213E+00  0.1206E+02
     -2.203  0.3845E+01  0.1240E+02
     -2.117  0.6375E+01  0.1295E+02
     -2.031  0.0000E+00  0.1295E+02
     -1.944  0.2570E+01  0.1318E+02
     -1.858  0.2753E-05  0.1318E+02
     -1.771  0.2571E+01  0.1340E+02
     -1.685  0.0000E+00  0.1340E+02
     -1.598  0.8494E+00  0.1347E+02
     -1.512  0.6427E+00  0.1353E+02
     -1.425  0.0000E+00  0.1353E+02
     -1.339  0.0000E+00  0.1353E+02
     -1.252  0.0000E+00  0.1353E+02
     -1.166  0.2558E+01  0.1375E+02
     -1.080  0.0000E+00  0.1375E+02
     -0.993  0.0000E+00  0.1375E+02
     -0.907  0.0000E+00  0.1375E+02
     -0.820  0.1288E-06  0.1375E+02
     -0.734  0.1285E+01  0.1386E+02
     -0.647  0.1485E-11  0.1386E+02
     -0.561  0.1285E+01  0.1397E+02
     -0.474  0.0000E+00  0.1397E+02
     -0.388  0.3193E+00  0.1400E+02
     -0.302  0.2251E+01  0.1419E+02
     -0.215  0.1642E+00  0.1421E+02
     -0.129  0.3638E+01  0.1452E+02
     -0.042  0.3854E+01  0.1486E+02
      0.044  0.0000E+00  0.1486E+02
      0.131  0.1496E-03  0.1486E+02
      0.217  0.4398E+01  0.1524E+02
      0.304  0.1163E-05  0.1527E+02
      0.390  0.4922E+01  0.1569E+02
      0.476  0.2546E+01  0.1594E+02
      0.563  0.1285E+01  0.1605E+02
      0.649  0.2046E-04  0.1605E+02
      0.736  0.4241E+01  0.1641E+02
      0.822  0.2848E-06  0.1649E+02
      0.909  0.4868E+01  0.1691E+02
      0.995  0.2548E+01  0.1716E+02
      1.082  0.0000E+00  0.1716E+02
      1.168  0.6034E-02  0.1716E+02
      1.254  0.3422E+01  0.1745E+02
      1.341  0.1830E-04  0.1745E+02
      1.427  0.2999E+01  0.1771E+02
      1.514  0.0000E+00  0.1771E+02
      1.600  0.8167E-03  0.1771E+02
      1.687  0.1285E+01  0.1782E+02
      1.773  0.1714E+01  0.1797E+02
      1.860  0.0000E+00  0.1797E+02
      1.946  0.1067E-01  0.1797E+02
      2.032  0.3107E+00  0.1800E+02
      2.119  0.0000E+00  0.1800E+02
      2.205  0.0000E+00  0.1800E+02
      2.292  0.0000E+00  0.1800E+02
      2.378  0.0000E+00  0.1800E+02
      2.465  0.0000E+00  0.1800E+02
      2.551  0.2817E-10  0.1800E+02
      2.638  0.1071E+00  0.1801E+02
      2.724  0.0000E+00  0.1801E+02
      2.810  0.0000E+00  0.1801E+02
      2.897  0.0000E+00  0.1801E+02
      2.983  0.0000E+00  0.1801E+02
      3.070  0.0000E+00  0.1801E+02
      3.156  0.0000E+00  0.1801E+02
      3.243  0.0000E+00  0.1801E+02
      3.329  0.0000E+00  0.1801E+02
      3.416  0.0000E+00  0.1801E+02
      3.502  0.0000E+00  0.1801E+02
      3.588  0.0000E+00  0.1801E+02
      3.675  0.1059E-11  0.1801E+02
      3.761  0.1281E+01  0.1812E+02
      3.848  0.8419E+00  0.1819E+02
      3.934  0.0000E+00  0.1819E+02
      4.021  0.0000E+00  0.1819E+02
      4.107  0.0000E+00  0.1819E+02
      4.194  0.0000E+00  0.1819E+02
      4.280  0.0000E+00  0.1819E+02
      4.366  0.5373E-02  0.1819E+02
      4.453  0.6373E+00  0.1825E+02
      4.539  0.1008E-03  0.1825E+02
      4.626  0.1872E+01  0.1841E+02
      4.712  0.3107E+01  0.1869E+02
      4.799  0.7652E+01  0.1936E+02
      4.885  0.0000E+00  0.1936E+02
      4.972  0.6011E-03  0.1936E+02
      5.058  0.1285E+01  0.1947E+02
      5.144  0.6427E+00  0.1953E+02
      5.231  0.0000E+00  0.1953E+02
      5.317  0.0000E+00  0.1953E+02
      5.404  0.0000E+00  0.1953E+02
      5.490  0.1109E+01  0.1962E+02
      5.577  0.1142E-14  0.1975E+02
      5.663  0.4776E+01  0.2016E+02
      5.750  0.1444E+01  0.2043E+02
      5.836  0.0000E+00  0.2047E+02
      5.922  0.0000E+00  0.2047E+02
      6.009  0.1420E+01  0.2059E+02
      6.095  0.1406E+00  0.2071E+02
      6.182  0.2430E+01  0.2092E+02
      6.268  0.0000E+00  0.2092E+02
      6.355  0.0000E+00  0.2092E+02
      6.441  0.0000E+00  0.2092E+02
      6.528  0.0000E+00  0.2092E+02
      6.614  0.2745E+01  0.2115E+02
      6.701  0.4708E+01  0.2157E+02
      6.787  0.0000E+00  0.2157E+02
      6.873  0.4471E-14  0.2157E+02
      6.960  0.4284E+01  0.2194E+02
      7.046  0.1023E-02  0.2194E+02
      7.133  0.1284E+01  0.2206E+02
      7.219  0.3213E+01  0.2233E+02
      7.306  0.2565E+01  0.2261E+02
      7.392  0.0000E+00  0.2261E+02
      7.479  0.8452E+00  0.2268E+02
      7.565  0.1285E+01  0.2283E+02
      7.651  0.2570E+01  0.2306E+02
      7.738  0.5141E+01  0.2350E+02
      7.824  0.0000E+00  0.2350E+02
      7.911  0.2824E-01  0.2350E+02
      7.997  0.2542E+01  0.2372E+02
      8.084  0.2226E+00  0.2374E+02
      8.170  0.2901E+01  0.2399E+02
      8.257  0.7515E-02  0.2402E+02
      8.343  0.2563E+01  0.2424E+02
      8.429  0.0000E+00  0.2424E+02
      8.516  0.6162E+00  0.2429E+02
      8.602  0.1651E-05  0.2446E+02
      8.689  0.1285E+01  0.2457E+02
      8.775  0.8650E-11  0.2457E+02
      8.862  0.1285E+01  0.2469E+02
      8.948  0.5141E+01  0.2513E+02
      9.035  0.4284E+00  0.2517E+02
      9.121  0.0000E+00  0.2517E+02
      9.207  0.6423E+00  0.2522E+02
      9.294  0.3211E+01  0.2550E+02
      9.380  0.2678E+01  0.2573E+02
      9.467  0.2558E+01  0.2595E+02
      9.553  0.0000E+00  0.2595E+02
      9.640  0.8029E-02  0.2595E+02
      9.726  0.2563E+01  0.2618E+02
      9.813  0.1285E+01  0.2629E+02
      9.899  0.4713E+01  0.2669E+02
      9.985  0.1949E-07  0.2673E+02
     10.072  0.8569E+00  0.2681E+02
     10.158  0.4340E+00  0.2684E+02
     10.245  0.2137E+01  0.2703E+02
     10.331  0.7363E-08  0.2703E+02
     10.418  0.8569E+00  0.2710E+02
     10.504  0.3779E+01  0.2743E+02
     10.591  0.4284E+00  0.2751E+02
     10.677  0.5950E-06  0.2751E+02
     10.763  0.1882E+01  0.2767E+02
     10.850  0.9959E-09  0.2776E+02
     10.936  0.1818E+01  0.2792E+02
     11.023  0.5073E+01  0.2835E+02
     11.109  0.8050E+00  0.2842E+02
     11.196  0.2568E+01  0.2869E+02
     11.282  0.0000E+00  0.2869E+02
     11.369  0.2973E-03  0.2869E+02
     11.455  0.2154E+00  0.2870E+02
     11.541  0.1284E+01  0.2881E+02
     11.628  0.1454E+00  0.2883E+02
     11.714  0.3649E+00  0.2890E+02
     11.801  0.5141E+01  0.2943E+02
     11.887  0.0000E+00  0.2943E+02
     11.974  0.1119E+01  0.2952E+02
     12.060  0.0000E+00  0.2965E+02
     12.147  0.0000E+00  0.2965E+02
     12.233  0.2248E+01  0.2984E+02
     12.319  0.2150E+01  0.3006E+02
     12.406  0.2550E+01  0.3044E+02
     12.492  0.2571E+01  0.3067E+02
     12.579  0.0000E+00  0.3067E+02
     12.665  0.4708E-01  0.3067E+02
     12.752  0.2524E+01  0.3089E+02
     12.838  0.5333E-07  0.3089E+02
     12.925  0.3213E+00  0.3092E+02
     13.011  0.1006E+01  0.3100E+02
     13.097  0.0000E+00  0.3103E+02
     13.184  0.2570E+01  0.3125E+02
     13.270  0.8663E-09  0.3125E+02
     13.357  0.1346E+01  0.3137E+02
     13.443  0.5081E+01  0.3181E+02
     13.530  0.3212E+00  0.3183E+02
     13.616  0.0000E+00  0.3183E+02
     13.703  0.0000E+00  0.3183E+02
     13.789  0.0000E+00  0.3183E+02
     13.875  0.4139E-01  0.3184E+02
     13.962  0.6013E+00  0.3189E+02
     14.048  0.0000E+00  0.3189E+02
     14.135  0.1258E-04  0.3189E+02
     14.221  0.1285E+01  0.3200E+02
     14.308  0.0000E+00  0.3200E+02
     14.394  0.0000E+00  0.3200E+02
     14.481  0.0000E+00  0.3200E+02
     14.567  0.0000E+00  0.3200E+02
     14.654  0.0000E+00  0.3200E+02
     14.740  0.0000E+00  0.3200E+02
     14.826  0.0000E+00  0.3200E+02
     14.913  0.0000E+00  0.3200E+02
     14.999  0.0000E+00  0.3200E+02
     15.086  0.0000E+00  0.3200E+02
     15.172  0.0000E+00  0.3200E+02
     15.259  0.0000E+00  0.3200E+02
     15.345  0.0000E+00  0.3200E+02
     15.432  0.0000E+00  0.3200E+02
     15.518  0.0000E+00  0.3200E+02
     15.51796468    -10.41572759  301      2.05405611      1.00000000
    -10.416  0.0000E+00  0.0000E+00  0.0000E+00
    -10.329  0.0000E+00  0.0000E+00  0.0000E+00
    -10.243  0.0000E+00  0.0000E+00  0.0000E+00
    -10.156  0.0000E+00  0.0000E+00  0.0000E+00
    -10.070  0.0000E+00  0.0000E+00  0.0000E+00
     -9.983  0.0000E+00  0.0000E+00  0.0000E+00
     -9.897  0.0000E+00  0.0000E+00  0.0000E+00
     -9.811  0.0000E+00  0.0000E+00  0.0000E+00
     -9.724  0.0000E+00  0.0000E+00  0.0000E+00
     -9.638  0.0000E+00  0.0000E+00  0.0000E+00
     -9.551  0.0000E+00  0.0000E+00  0.0000E+00
     -9.465  0.0000E+00  0.0000E+00  0.0000E+00
     -9.378  0.0000E+00  0.0000E+00  0.0000E+00
     -9.292  0.2395E-16  0.9085E-27  0.1476E-26
     -9.205  0.6638E-02  0.2523E-12  0.4145E-12
     -9.119  0.7055E-01  0.4058E-02  0.4624E-01
     -9.033  0.4519E-01  0.7366E-02  0.9533E-01
     -8.946  0.9488E-01  0.2565E-01  0.3563E+00
     -8.860  0.1344E+00  0.1509E+00  0.2397E+01
     -8.773  0.1115E-12  0.1894E-01  0.3163E+00
     -8.687  0.0000E+00  0.0000E+00  0.0000E+00
     -8.600  0.0000E+00  0.0000E+00  0.0000E+00
     -8.514  0.0000E+00  0.0000E+00  0.0000E+00
     -8.427  0.0000E+00  0.0000E+00  0.0000E+00
     -8.341  0.0000E+00  0.0000E+00  0.0000E+00
     -8.255  0.0000E+00  0.0000E+00  0.0000E+00
     -8.168  0.0000E+00  0.0000E+00  0.0000E+00
     -8.082  0.0000E+00  0.0000E+00  0.0000E+00
     -7.995  0.0000E+00  0.0000E+00  0.0000E+00
     -7.909  0.0000E+00  0.0000E+00  0.0000E+00
     -7.822  0.0000E+00  0.0000E+00  0.0000E+00
     -7.736  0.0000E+00  0.0000E+00  0.0000E+00
     -7.649  0.0000E+00  0.0000E+00  0.0000E+00
     -7.563  0.0000E+00  0.0000E+00  0.0000E+00
     -7.477  0.0000E+00  0.0000E+00  0.0000E+00
     -7.390  0.0000E+00  0.0000E+00  0.0000E+00
     -7.304  0.0000E+00  0.0000E+00  0.0000E+00
     -7.217  0.0000E+00  0.0000E+00  0.0000E+00
     -7.131  0.0000E+00  0.0000E+00  0.0000E+00
     -7.044  0.3312E-32  0.5337E-20  0.1630E-16
     -6.958  0.4921E-06  0.8479E-03  0.2365E+01
     -6.871  0.1028E-01  0.1383E-01  0.3648E+02
     -6.785  0.4999E-02  0.3318E-03  0.9687E+01
     -6.699  0.1318E-01  0.5914E-03  0.3158E+02
     -6.612  0.2474E-01  0.1666E-02  0.1842E+01
     -6.526  0.9656E-02  0.8006E-03  0.7064E+00
     -6.439  0.7268E-02  0.1325E-02  0.5079E+00
     -6.353  0.4551E-01  0.1075E-01  0.3639E+01
     -6.266  0.2207E-01  0.8293E-02  0.2346E+01
     -6.180  0.1387E-01  0.1484E-01  0.2497E+01
     -6.093  0.7513E-02  0.1802E-01  0.2809E+01
     -6.007  0.0000E+00  0.0000E+00  0.0000E+00
     -5.921  0.0000E+00  0.0000E+00  0.0000E+00
     -5.834  0.0000E+00  0.0000E+00  0.0000E+00
     -5.748  0.0000E+00  0.0000E+00  0.0000E+00
     -5.661  0.0000E+00  0.0000E+00  0.0000E+00
     -5.575  0.0000E+00  0.0000E+00  0.0000E+00
     -5.488  0.0000E+00  0.0000E+00  0.0000E+00
     -5.402  0.0000E+00  0.0000E+00  0.0000E+00
     -5.315  0.0000E+00  0.0000E+00  0.0000E+00
     -5.229  0.0000E+00  0.0000E+00  0.0000E+00
     -5.143  0.0000E+00  0.0000E+00  0.0000E+00
     -5.056  0.0000E+00  0.0000E+00  0.0000E+00
     -4.970  0.0000E+00  0.0000E+00  0.0000E+00
     -4.883  0.0000E+00  0.0000E+00  0.0000E+00
     -4.797  0.0000E+00  0.0000E+00  0.0000E+00
     -4.710  0.0000E+00  0.0000E+00  0.0000E+00
     -4.624  0.0000E+00  0.0000E+00  0.0000E+00
     -4.537  0.0000E+00  0.0000E+00  0.0000E+00
     -4.451  0.0000E+00  0.0000E+00  0.0000E+00
     -4.365  0.0000E+00  0.0000E+00  0.0000E+00
     -4.278  0.0000E+00  0.0000E+00  0.0000E+00
     -4.192  0.0000E+00  0.0000E+00  0.0000E+00
     -4.105  0.0000E+00  0.0000E+00  0.0000E+00
     -4.019  0.0000E+00  0.0000E+00  0.0000E+00
     -3.932  0.0000E+00  0.0000E+00  0.0000E+00
     -3.846  0.0000E+00  0.0000E+00  0.0000E+00
     -3.759  0.0000E+00  0.0000E+00  0.0000E+00
     -3.673  0.0000E+00  0.0000E+00  0.0000E+00
     -3.587  0.0000E+00  0.0000E+00  0.0000E+00
     -3.500  0.0000E+00  0.0000E+00  0.0000E+00
     -3.414  0.0000E+00  0.0000E+00  0.0000E+00
     -3.327  0.0000E+00  0.0000E+00  0.0000E+00
     -3.241  0.0000E+00  0.0000E+00  0.0000E+00
     -3.154  0.0000E+00  0.0000E+00  0.0000E+00
     -3.068  0.0000E+00  0.0000E+00  0.0000E+00
     -2.981  0.0000E+00  0.0000E+00  0.0000E+00
     -2.895  0.0000E+00  0.0000E+00  0.0000E+00
     -2.809  0.0000E+00  0.0000E+00  0.0000E+00
     -2.722  0.0000E+00  0.0000E+00  0.0000E+00
     -2.636  0.0000E+00  0.0000E+00  0.0000E+00
     -2.549  0.0000E+00  0.0000E+00  0.0000E+00
     -2.463  0.7517E-11  0.1149E-11  0.3893E-14
     -2.376  0.7351E-01  0.1124E-01  0.3807E-04
     -2.290  0.8038E-01  0.6559E-15  0.6539E-02
     -2.203  0.8270E+00  0.5362E-01  0.2861E-01
     -2.117  0.1543E+01  0.3945E-01  0.6948E-01
     -2.031  0.0000E+00  0.0000E+00  0.0000E+00
     -1.944  0.4730E+00  0.5543E-01  0.4102E-01
     -1.858  0.5940E-06  0.3023E-07  0.6783E-07
     -1.771  0.5546E+00  0.2823E-01  0.6333E-01
     -1.685  0.0000E+00  0.0000E+00  0.0000E+00
     -1.598  0.1296E+00  0.2365E-01  0.2310E-01
     -1.512  0.1370E+00  0.3830E-02  0.2759E-01
     -1.425  0.0000E+00  0.0000E+00  0.0000E+00
     -1.339  0.0000E+00  0.0000E+00  0.0000E+00
     -1.252  0.0000E+00  0.0000E+00  0.0000E+00
     -1.166  0.4389E+00  0.4907E-01  0.1002E+00
     -1.080  0.0000E+00  0.0000E+00  0.0000E+00
     -0.993  0.0000E+00  0.0000E+00  0.0000E+00
     -0.907  0.0000E+00  0.0000E+00  0.0000E+00
     -0.820  0.2045E-07  0.2750E-08  0.5473E-08
     -0.734  0.2041E+00  0.2743E-01  0.5460E-01
     -0.647  0.5934E-14  0.1094E-12  0.3187E-13
     -0.561  0.5137E-02  0.9476E-01  0.2759E-01
     -0.474  0.0000E+00  0.0000E+00  0.0000E+00
     -0.388  0.4895E-02  0.2226E-01  0.7873E-02
     -0.302  0.3452E-01  0.1569E+00  0.5551E-01
     -0.215  0.4082E-03  0.1152E-01  0.4822E-02
     -0.129  0.1799E-01  0.2707E+00  0.8221E-01
     -0.042  0.3361E-01  0.2952E+00  0.7293E-01
      0.044  0.0000E+00  0.0000E+00  0.0000E+00
      0.131  0.3230E-08  0.1228E-04  0.2143E-05
      0.217  0.2737E+00  0.2271E+00  0.1522E+00
      0.304  0.3941E-07  0.7086E-07  0.3845E-07
      0.390  0.8718E-01  0.3422E+00  0.1339E+00
      0.476  0.3233E-02  0.1936E+00  0.6480E-01
      0.563  0.1175E-15  0.9785E-01  0.3272E-01
      0.649  0.4557E-07  0.1479E-05  0.6190E-06
      0.736  0.1463E-01  0.3023E+00  0.1323E+00
      0.822  0.6028E-08  0.1692E-07  0.1124E-07
      0.909  0.5441E-01  0.3130E+00  0.1790E+00
      0.995  0.1334E-15  0.1694E+00  0.9667E-01
      1.082  0.0000E+00  0.0000E+00  0.0000E+00
      1.168  0.1391E-18  0.3789E-03  0.2468E-03
      1.254  0.1461E-15  0.2146E+00  0.1398E+00
      1.341  0.3224E-20  0.1028E-05  0.8604E-06
      1.427  0.4011E-15  0.1663E+00  0.1441E+00
      1.514  0.0000E+00  0.0000E+00  0.0000E+00
      1.600  0.1757E-19  0.3836E-04  0.4419E-04
      1.687  0.2763E-16  0.6034E-01  0.6950E-01
      1.773  0.1237E-15  0.6888E-01  0.1022E+00
      1.860  0.0000E+00  0.0000E+00  0.0000E+00
      1.946  0.5197E-18  0.2977E-03  0.7233E-03
      2.032  0.1513E-16  0.8668E-02  0.2106E-01
      2.119  0.0000E+00  0.0000E+00  0.0000E+00
      2.205  0.0000E+00  0.0000E+00  0.0000E+00
      2.292  0.0000E+00  0.0000E+00  0.0000E+00
      2.378  0.0000E+00  0.0000E+00  0.0000E+00
      2.465  0.0000E+00  0.0000E+00  0.0000E+00
      2.551  0.8960E-11  0.3690E-27  0.2617E-28
      2.638  0.3408E-01  0.1403E-17  0.9954E-19
      2.724  0.0000E+00  0.0000E+00  0.0000E+00
      2.810  0.0000E+00  0.0000E+00  0.0000E+00
      2.897  0.0000E+00  0.0000E+00  0.0000E+00
      2.983  0.0000E+00  0.0000E+00  0.0000E+00
      3.070  0.0000E+00  0.0000E+00  0.0000E+00
      3.156  0.0000E+00  0.0000E+00  0.0000E+00
      3.243  0.0000E+00  0.0000E+00  0.0000E+00
      3.329  0.0000E+00  0.0000E+00  0.0000E+00
      3.416  0.0000E+00  0.0000E+00  0.0000E+00
      3.502  0.0000E+00  0.0000E+00  0.0000E+00
      3.588  0.0000E+00  0.0000E+00  0.0000E+00
      3.675  0.2617E-12  0.3535E-13  0.8698E-14
      3.761  0.2932E+00  0.4143E-01  0.8036E-02
      3.848  0.2010E+00  0.3444E-01  0.3875E-02
      3.934  0.0000E+00  0.0000E+00  0.0000E+00
      4.021  0.0000E+00  0.0000E+00  0.0000E+00
      4.107  0.0000E+00  0.0000E+00  0.0000E+00
      4.194  0.0000E+00  0.0000E+00  0.0000E+00
      4.280  0.0000E+00  0.0000E+00  0.0000E+00
      4.366  0.1114E-02  0.4672E-04  0.7831E-04
      4.453  0.1321E+00  0.5541E-02  0.9288E-02
      4.539  0.1196E-05  0.9903E-05  0.3048E-05
      4.626  0.3377E+00  0.8525E-01  0.2461E-01
      4.712  0.5882E+00  0.1347E+00  0.4956E-01
      4.799  0.1366E+01  0.3282E+00  0.1319E+00
      4.885  0.0000E+00  0.0000E+00  0.0000E+00
      4.972  0.8621E-04  0.3410E-04  0.1401E-04
      5.058  0.1843E+00  0.7290E-01  0.2994E-01
      5.144  0.4555E-01  0.4437E-01  0.1500E-01
      5.231  0.0000E+00  0.0000E+00  0.0000E+00
      5.317  0.0000E+00  0.0000E+00  0.0000E+00
      5.404  0.0000E+00  0.0000E+00  0.0000E+00
      5.490  0.2654E+00  0.1279E-01  0.1623E-01
      5.577  0.2353E-15  0.3362E-16  0.1885E-16
      5.663  0.8724E+00  0.1432E+00  0.9537E-01
      5.750  0.2289E-01  0.1778E+00  0.3161E-01
      5.836  0.0000E+00  0.0000E+00  0.0000E+00
      5.922  0.0000E+00  0.0000E+00  0.0000E+00
      6.009  0.5698E-01  0.1923E+00  0.1639E-01
      6.095  0.8187E-04  0.1676E-01  0.3542E-02
      6.182  0.1415E-02  0.2897E+00  0.6124E-01
      6.268  0.0000E+00  0.0000E+00  0.0000E+00
      6.355  0.0000E+00  0.0000E+00  0.0000E+00
      6.441  0.0000E+00  0.0000E+00  0.0000E+00
      6.528  0.0000E+00  0.0000E+00  0.0000E+00
      6.614  0.1553E-02  0.2587E+00  0.8291E-01
      6.701  0.1587E+00  0.5113E+00  0.1022E+00
      6.787  0.0000E+00  0.0000E+00  0.0000E+00
      6.873  0.4825E-16  0.5348E-15  0.1094E-15
      6.960  0.3343E-01  0.6508E+00  0.8287E-01
      7.046  0.1053E-03  0.2475E-04  0.1420E-04
      7.133  0.1322E+00  0.3109E-01  0.1783E-01
      7.219  0.1916E-15  0.6397E+00  0.5814E-01
      7.306  0.5103E-03  0.2492E+00  0.7295E-01
      7.392  0.0000E+00  0.0000E+00  0.0000E+00
      7.479  0.2953E-02  0.1040E+00  0.1596E-01
      7.565  0.1798E-19  0.2801E+00  0.1400E-01
      7.651  0.8871E-12  0.4655E+00  0.5603E-01
      7.738  0.1151E+00  0.5360E+00  0.1220E+00
      7.824  0.0000E+00  0.0000E+00  0.0000E+00
      7.911  0.3267E-19  0.4352E-02  0.8398E-03
      7.997  0.2941E-17  0.3918E+00  0.7561E-01
      8.084  0.7730E-17  0.4114E-01  0.4631E-02
      8.170  0.1972E-01  0.4672E+00  0.5727E-01
      8.257  0.2554E-03  0.5086E-03  0.1726E-03
      8.343  0.8712E-01  0.1735E+00  0.5887E-01
      8.429  0.0000E+00  0.0000E+00  0.0000E+00
      8.516  0.1274E-01  0.5109E-01  0.1814E-01
      8.602  0.6499E-23  0.2387E-06  0.3934E-07
      8.689  0.5058E-17  0.1858E+00  0.3062E-01
      8.775  0.1198E-26  0.1429E-11  0.1666E-12
      8.862  0.1865E-15  0.2123E+00  0.2476E-01
      8.948  0.1397E+00  0.4414E+00  0.1476E+00
      9.035  0.3792E-04  0.1601E-01  0.1022E-01
      9.121  0.0000E+00  0.0000E+00  0.0000E+00
      9.207  0.2274E-03  0.4455E-02  0.4068E-01
      9.294  0.2757E-01  0.2898E+00  0.1175E+00
      9.380  0.2871E-01  0.4725E+00  0.6446E-01
      9.467  0.1060E-02  0.4590E+00  0.5815E-01
      9.553  0.0000E+00  0.0000E+00  0.0000E+00
      9.640  0.2247E-18  0.1282E-02  0.1881E-03
      9.726  0.7204E-16  0.4091E+00  0.6007E-01
      9.813  0.1801E-07  0.1693E-02  0.9986E-01
      9.899  0.2926E-01  0.4877E+00  0.1953E+00
      9.985  0.1557E-08  0.3304E-09  0.2577E-09
     10.072  0.6847E-01  0.1452E-01  0.1133E-01
     10.158  0.5217E-02  0.1566E-01  0.1802E-01
     10.245  0.2569E-01  0.7708E-01  0.8874E-01
     10.331  0.8785E-09  0.4689E-09  0.2493E-10
     10.418  0.1022E+00  0.5457E-01  0.2901E-02
     10.504  0.6083E-09  0.1124E+00  0.2655E+00
     10.591  0.4868E-01  0.4061E-03  0.2351E-04
     10.677  0.4449E-07  0.1373E-16  0.3835E-08
     10.763  0.3698E-01  0.1259E+00  0.4616E-01
     10.850  0.1091E-20  0.3971E-10  0.6303E-10
     10.936  0.5104E-04  0.7799E-01  0.1132E+00
     11.023  0.5275E-01  0.4341E+00  0.2081E+00
     11.109  0.3036E-01  0.1521E+00  0.9019E-02
     11.196  0.5926E-01  0.3212E+00  0.4402E-01
     11.282  0.0000E+00  0.0000E+00  0.0000E+00
     11.369  0.1783E-12  0.6233E-12  0.2946E-04
     11.455  0.3267E-05  0.2268E-03  0.2125E-01
     11.541  0.2768E-02  0.1922E+00  0.4333E-01
     11.628  0.2548E-10  0.9933E-10  0.1281E-01
     11.714  0.3665E-01  0.3217E-01  0.2186E-02
     11.801  0.1464E+00  0.2090E+00  0.2240E+00
     11.887  0.0000E+00  0.0000E+00  0.0000E+00
     11.974  0.6334E-01  0.3397E-01  0.2962E-01
     12.060  0.0000E+00  0.0000E+00  0.0000E+00
     12.147  0.0000E+00  0.0000E+00  0.0000E+00
     12.233  0.1878E-03  0.3064E+00  0.1192E+00
     12.319  0.2235E-01  0.1119E+00  0.7730E-01
     12.406  0.4887E-08  0.2248E+00  0.8195E-01
     12.492  0.1319E-02  0.9949E-01  0.1288E+00
     12.579  0.0000E+00  0.0000E+00  0.0000E+00
     12.665  0.2600E-11  0.3501E-02  0.1530E-02
     12.752  0.1394E-09  0.1877E+00  0.8200E-01
     12.838  0.1310E-16  0.1284E-13  0.6358E-14
     12.925  0.7894E-10  0.7738E-07  0.3830E-07
     13.011  0.5979E-08  0.1508E+00  0.4044E-01
     13.097  0.0000E+00  0.0000E+00  0.0000E+00
     13.184  0.1728E-02  0.2928E+00  0.9478E-01
     13.270  0.4975E-11  0.5764E-11  0.5564E-10
     13.357  0.7872E-02  0.1513E-01  0.8443E-01
     13.443  0.2703E-01  0.6677E+00  0.1704E+00
     13.530  0.2510E-08  0.8165E-02  0.2033E-01
     13.616  0.0000E+00  0.0000E+00  0.0000E+00
     13.703  0.0000E+00  0.0000E+00  0.0000E+00
     13.789  0.0000E+00  0.0000E+00  0.0000E+00
     13.875  0.2336E-02  0.8366E-02  0.3006E-03
     13.962  0.3394E-01  0.1215E+00  0.4367E-02
     14.048  0.0000E+00  0.0000E+00  0.0000E+00
     14.135  0.2946E-06  0.1008E-05  0.3947E-07
     14.221  0.3009E-01  0.1030E+00  0.4032E-02
     14.308  0.0000E+00  0.0000E+00  0.0000E+00
     14.394  0.0000E+00  0.0000E+00  0.0000E+00
     14.481  0.0000E+00  0.0000E+00  0.0000E+00
     14.567  0.0000E+00  0.0000E+00  0.0000E+00
     14.654  0.0000E+00  0.0000E+00  0.0000E+00
     14.740  0.0000E+00  0.0000E+00  0.0000E+00
     14.826  0.0000E+00  0.0000E+00  0.0000E+00
     14.913  0.0000E+00  0.0000E+00  0.0000E+00
     14.999  0.0000E+00  0.0000E+00  0.0000E+00
     15.086  0.0000E+00  0.0000E+00  0.0000E+00
     15.172  0.0000E+00  0.0000E+00  0.0000E+00
     15.259  0.0000E+00  0.0000E+00  0.0000E+00
     15.345  0.0000E+00  0.0000E+00  0.0000E+00
     15.432  0.0000E+00  0.0000E+00  0.0000E+00
     15.518  0.0000E+00  0.0000E+00  0.0000E+00
     15.51796468    -10.41572759  301      2.05405611      1.00000000
    -10.416  0.0000E+00  0.0000E+00  0.0000E+00
    -10.329  0.0000E+00  0.0000E+00  0.0000E+00
    -10.243  0.0000E+00  0.0000E+00  0.0000E+00
    -10.156  0.0000E+00  0.0000E+00  0.0000E+00
    -10.070  0.0000E+00  0.0000E+00  0.0000E+00
     -9.983  0.0000E+00  0.0000E+00  0.0000E+00
     -9.897  0.0000E+00  0.0000E+00  0.0000E+00
     -9.811  0.0000E+00  0.0000E+00  0.0000E+00
     -9.724  0.0000E+00  0.0000E+00  0.0000E+00
     -9.638  0.0000E+00  0.0000E+00  0.0000E+00
     -9.551  0.0000E+00  0.0000E+00  0.0000E+00
     -9.465  0.0000E+00  0.0000E+00  0.0000E+00
     -9.378  0.0000E+00  0.0000E+00  0.0000E+00
     -9.292  0.2225E-15  0.4205E-27  0.4154E-27
     -9.205  0.6168E-01  0.1165E-12  0.1151E-12
     -9.119  0.8172E+00  0.1281E-03  0.6643E-06
     -9.033  0.7227E+00  0.1334E-03  0.1772E-05
     -8.946  0.1955E+01  0.3155E-03  0.7058E-05
     -8.860  0.7750E+01  0.4171E-03  0.3428E-04
     -8.773  0.8224E+00  0.9021E-08  0.7548E-05
     -8.687  0.0000E+00  0.0000E+00  0.0000E+00
     -8.600  0.0000E+00  0.0000E+00  0.0000E+00
     -8.514  0.0000E+00  0.0000E+00  0.0000E+00
     -8.427  0.0000E+00  0.0000E+00  0.0000E+00
     -8.341  0.0000E+00  0.0000E+00  0.0000E+00
     -8.255  0.0000E+00  0.0000E+00  0.0000E+00
     -8.168  0.0000E+00  0.0000E+00  0.0000E+00
     -8.082  0.0000E+00  0.0000E+00  0.0000E+00
     -7.995  0.0000E+00  0.0000E+00  0.0000E+00
     -7.909  0.0000E+00  0.0000E+00  0.0000E+00
     -7.822  0.0000E+00  0.0000E+00  0.0000E+00
     -7.736  0.0000E+00  0.0000E+00  0.0000E+00
     -7.649  0.0000E+00  0.0000E+00  0.0000E+00
     -7.563  0.0000E+00  0.0000E+00  0.0000E+00
     -7.477  0.0000E+00  0.0000E+00  0.0000E+00
     -7.390  0.0000E+00  0.0000E+00  0.0000E+00
     -7.304  0.0000E+00  0.0000E+00  0.0000E+00
     -7.217  0.0000E+00  0.0000E+00  0.0000E+00
     -7.131  0.0000E+00  0.0000E+00  0.0000E+00
     -7.044  0.1164E-29  0.2914E-18  0.1137E-19
     -6.958  0.7022E-07  0.3933E-01  0.1805E-02
     -6.871  0.2299E-01  0.4316E+00  0.3700E-01
     -6.785  0.5855E-02  0.2962E-01  0.7648E-02
     -6.699  0.4734E-01  0.2194E-01  0.1619E-01
     -6.612  0.1211E+00  0.2120E-01  0.1809E-02
     -6.526  0.5240E-01  0.7874E-02  0.6402E-03
     -6.439  0.5571E-01  0.4901E-02  0.5675E-03
     -6.353  0.4617E+00  0.2696E-01  0.2551E-02
     -6.266  0.3313E+00  0.6823E-02  0.1962E-02
     -6.180  0.4521E+00  0.7154E-02  0.1520E-02
     -6.093  0.5456E+00  0.2650E-02  0.1123E-02
     -6.007  0.0000E+00  0.0000E+00  0.0000E+00
     -5.921  0.0000E+00  0.0000E+00  0.0000E+00
     -5.834  0.0000E+00  0.0000E+00  0.0000E+00
     -5.748  0.0000E+00  0.0000E+00  0.0000E+00
     -5.661  0.0000E+00  0.0000E+00  0.0000E+00
     -5.575  0.0000E+00  0.0000E+00  0.0000E+00
     -5.488  0.0000E+00  0.0000E+00  0.0000E+00
     -5.402  0.0000E+00  0.0000E+00  0.0000E+00
     -5.315  0.0000E+00  0.0000E+00  0.0000E+00
     -5.229  0.0000E+00  0.0000E+00  0.0000E+00
     -5.143  0.0000E+00  0.0000E+00  0.0000E+00
     -5.056  0.0000E+00  0.0000E+00  0.0000E+00
     -4.970  0.0000E+00  0.0000E+00  0.0000E+00
     -4.883  0.0000E+00  0.0000E+00  0.0000E+00
     -4.797  0.0000E+00  0.0000E+00  0.0000E+00
     -4.710  0.0000E+00  0.0000E+00  0.0000E+00
     -4.624  0.0000E+00  0.0000E+00  0.0000E+00
     -4.537  0.0000E+00  0.0000E+00  0.0000E+00
     -4.451  0.0000E+00  0.0000E+00  0.0000E+00
     -4.365  0.0000E+00  0.0000E+00  0.0000E+00
     -4.278  0.0000E+00  0.0000E+00  0.0000E+00
     -4.192  0.0000E+00  0.0000E+00  0.0000E+00
     -4.105  0.0000E+00  0.0000E+00  0.0000E+00
     -4.019  0.0000E+00  0.0000E+00  0.0000E+00
     -3.932  0.0000E+00  0.0000E+00  0.0000E+00
     -3.846  0.0000E+00  0.0000E+00  0.0000E+00
     -3.759  0.0000E+00  0.0000E+00  0.0000E+00
     -3.673  0.0000E+00  0.0000E+00  0.0000E+00
     -3.587  0.0000E+00  0.0000E+00  0.0000E+00
     -3.500  0.0000E+00  0.0000E+00  0.0000E+00
     -3.414  0.0000E+00  0.0000E+00  0.0000E+00
     -3.327  0.0000E+00  0.0000E+00  0.0000E+00
     -3.241  0.0000E+00  0.0000E+00  0.0000E+00
     -3.154  0.0000E+00  0.0000E+00  0.0000E+00
     -3.068  0.0000E+00  0.0000E+00  0.0000E+00
     -2.981  0.0000E+00  0.0000E+00  0.0000E+00
     -2.895  0.0000E+00  0.0000E+00  0.0000E+00
     -2.809  0.0000E+00  0.0000E+00  0.0000E+00
     -2.722  0.0000E+00  0.0000E+00  0.0000E+00