       N       E                     dE             d eps       ncg     rms          rms(c)
DAV:   1     0.995875564148E+02    0.99588E+02   -0.82794E+03 19544   0.945E+02
DAV:   2    -0.245678187241E+01   -0.10204E+03   -0.97818E+02 23592   0.240E+02
DAV:   3    -0.612761539925E+01   -0.36708E+01   -0.36665E+01 23432   0.470E+01
DAV:   4    -0.615983322142E+01   -0.32218E-01   -0.32216E-01 29288   0.400E+00
DAV:   5    -0.615989702548E+01   -0.63804E-04   -0.63804E-04 24520   0.178E-01
DAV:   6    -0.615989815513E+01   -0.11296E-05   -0.11298E-05 29096   0.176E-02
DAV:   7    -0.615989816856E+01   -0.13426E-07   -0.13368E-07 19656   0.144E-03
   1 F= -.61598982E+01 E0= -.61598982E+01  d E =-.615990E+01
