 vasp.5.3.5 31Mar14 (build Apr 15 2015 10:45:18) complex                        
  
 executed on             LinuxIFC date 2016.01.30  11:40:56
 running on   64 total cores
 distrk:  each k-point on    4 cores,   16 groups
 distr:  one band on NCORES_PER_BAND=   1 cores,    4 groups


--------------------------------------------------------------------------------------------------------


 INCAR:
 POTCAR:   PAW Cd 03Mar1998                       
 POTCAR:   PAW Te 03Oct2001                       

 ----------------------------------------------------------------------------- 
|                                                                             |
|           W    W    AA    RRRRR   N    N  II  N    N   GGGG   !!!           |
|           W    W   A  A   R    R  NN   N  II  NN   N  G    G  !!!           |
|           W    W  A    A  R    R  N N  N  II  N N  N  G       !!!           |
|           W WW W  AAAAAA  RRRRR   N  N N  II  N  N N  G  GGG   !            |
|           WW  WW  A    A  R   R   N   NN  II  N   NN  G    G                |
|           W    W  A    A  R    R  N    N  II  N    N   GGGG   !!!           |
|                                                                             |
|      For optimal performance we recommend to set                            |
|        NCORE= 4 - approx SQRT( number of cores)                             |
|      NCORE specifies how many cores store one orbital (NPAR=cpu/NCORE).     |
|      This setting can  greatly improve the performance of VASP for DFT.     |
|      The default, NPAR=number of cores might be grossly inefficient         |
|      on modern multi-core architectures or massively parallel machines.     |
|      Do your own testing !!!!                                               |
|      Unfortunately you need to use the default for GW and RPA calculations. |
|      (for HF NCORE is supported but not extensively tested yet)             |
|                                                                             |
 ----------------------------------------------------------------------------- 


 ----------------------------------------------------------------------------- 
|                                                                             |
|           W    W    AA    RRRRR   N    N  II  N    N   GGGG   !!!           |
|           W    W   A  A   R    R  NN   N  II  NN   N  G    G  !!!           |
|           W    W  A    A  R    R  N N  N  II  N N  N  G       !!!           |
|           W WW W  AAAAAA  RRRRR   N  N N  II  N  N N  G  GGG   !            |
|           WW  WW  A    A  R   R   N   NN  II  N   NN  G    G                |
|           W    W  A    A  R    R  N    N  II  N    N   GGGG   !!!           |
|                                                                             |
|      You have enabled k-point parallelism (KPAR>1).                         |
|      This developmental code was originally  written by Paul Kent at ORNL,  |
|      and carefully double checked in Vienna.                                |
|      GW as well as linear response parallelism added by Martijn Marsman     |
|      and Georg Kresse.                                                      |
|      Carefully verify results versus KPAR=1.                                |
|      Report problems to Paul Kent and Vienna.                               |
|                                                                             |
 ----------------------------------------------------------------------------- 

 POTCAR:   PAW Cd 03Mar1998                       
   VRHFIN =Cd : s2 d10                                                          
   LEXCH  = CA                                                                  
   EATOM  =  1296.0499 eV,   95.2570 Ry                                         
                                                                                
   TITEL  = PAW Cd 03Mar1998                                                    
   LULTRA =        F    use ultrasoft PP ?                                      
   IUNSCR =        1    unscreen: 0-lin 1-nonlin 2-no                           
   RPACOR =    2.000    partial core radius                                     
   POMASS =  112.411; ZVAL   =   12.000    mass and valenz                      
   RCORE  =    2.300    outmost cutoff radius                                   
   RWIGS  =    2.980; RWIGS  =    1.577    wigner-seitz radius (au A)           
   ENMAX  =  274.265; ENMIN  =  205.699 eV                                      
   RCLOC  =    2.054    cutoff for local pot                                    
   LCOR   =        T    correct aug charges                                     
   LPAW   =        T    paw PP                                                  
   EAUG   =  456.106                                                            
   DEXC   =    -.017                                                            
   RMAX   =    2.784    core radius for proj-oper                               
   RAUG   =    1.300    factor for augmentation sphere                          
   RDEP   =    2.450    core radius for depl-charge                             
   QCUT   =   -4.490; QGAM   =    8.980    optimization parameters              
                                                                                
   Description                                                                  
     l     E      TYP  RCUT    TYP  RCUT                                        
     2   .000     23  2.300                                                     
     2   .000     23  2.300                                                     
     0   .000     23  2.300                                                     
     0   .000     23  2.300                                                     
     1  -.200     23  2.300                                                     
     1   .000     23  2.300                                                     
     3   .000      7   .000                                                     
  local pseudopotential read in
  partial core-charges read in
  atomic valenz-charges read in
  non local Contribution for L=           2  read in
    real space projection operators read in
  non local Contribution for L=           2  read in
    real space projection operators read in
  non local Contribution for L=           0  read in
    real space projection operators read in
  non local Contribution for L=           0  read in
    real space projection operators read in
  non local Contribution for L=           1  read in
    real space projection operators read in
  non local Contribution for L=           1  read in
    real space projection operators read in
    PAW grid and wavefunctions read in
 
   number of l-projection  operators is LMAX  =           6
   number of lm-projection operators is LMMAX =          18
 
 POTCAR:   PAW Te 03Oct2001                       
   VRHFIN =Te: s2p4                                                             
   LEXCH  = CA                                                                  
   EATOM  =   225.3402 eV,   16.5620 Ry                                         
                                                                                
   TITEL  = PAW Te 03Oct2001                                                    
   LULTRA =        F    use ultrasoft PP ?                                      
   IUNSCR =        1    unscreen: 0-lin 1-nonlin 2-no                           
   RPACOR =    2.200    partial core radius                                     
   POMASS =  127.600; ZVAL   =    6.000    mass and valenz                      
   RCORE  =    2.300    outmost cutoff radius                                   
   RWIGS  =    2.900; RWIGS  =    1.535    wigner-seitz radius (au A)           
   ENMAX  =  175.144; ENMIN  =  131.358 eV                                      
   ICORE  =        3    local potential                                         
   LCOR   =        T    correct aug charges                                     
   LPAW   =        T    paw PP                                                  
   EAUG   =  368.792                                                            
   DEXC   =    -.131                                                            
   RMAX   =    3.484    core radius for proj-oper                               
   RAUG   =    1.300    factor for augmentation sphere                          
   RDEP   =    2.397    radius for radial grids                                 
   QCUT   =   -3.588; QGAM   =    7.176    optimization parameters              
                                                                                
   Description                                                                  
     l     E      TYP  RCUT    TYP  RCUT                                        
     0   .000     23  2.300                                                     
     0   .000     23  2.300                                                     
     1   .000     23  2.300                                                     
     1   .000     23  2.300                                                     
     2   .000     23  2.300                                                     
     3  -.100     23  2.300                                                     
  local pseudopotential read in
  partial core-charges read in
  atomic valenz-charges read in
  non local Contribution for L=           0  read in
    real space projection operators read in
  non local Contribution for L=           0  read in
    real space projection operators read in
  non local Contribution for L=           1  read in
    real space projection operators read in
  non local Contribution for L=           1  read in
    real space projection operators read in
  non local Contribution for L=           2  read in
    real space projection operators read in
    PAW grid and wavefunctions read in
 
   number of l-projection  operators is LMAX  =           5
   number of lm-projection operators is LMMAX =          13
 
 PAW Cd 03Mar1998                       :
 energy of atom  1       EATOM=-1296.0499
 kinetic energy error for atom=    0.0063 (will be added to EATOM!!)
 PAW Te 03Oct2001                       :
 energy of atom  2       EATOM= -225.3402
 kinetic energy error for atom=    0.0007 (will be added to EATOM!!)
 
 
 POSCAR: CdTe (ICSD, 295K, Rabadanov 2001)       
  positions in direct lattice
  velocities in cartesian coordinates
 exchange correlation table for  LEXCH =        2
   RHO(1)=    0.500       N(1)  =     2000
   RHO(2)=  100.500       N(2)  =     4000
 


--------------------------------------------------------------------------------------------------------


 ion  position               nearest neighbor table
   1  0.000  0.000  0.000-   2 2.81   2 2.81   2 2.81   2 2.81
   2  0.250  0.250  0.250-   1 2.81   1 2.81   1 2.81   1 2.81
 
  LATTYP: Found a face centered cubic cell.
 ALAT       =     6.4827000000
  
  Lattice vectors:
  
 A1 = (   3.2413500000,   3.2413500000,   0.0000000000)
 A2 = (   3.2413500000,   0.0000000000,  -3.2413500000)
 A3 = (   0.0000000000,   3.2413500000,  -3.2413500000)


Analysis of symmetry for initial positions (statically):
=====================================================================
 Subroutine PRICEL returns:
 Original cell was already a primitive cell.
 

 Routine SETGRP: Setting up the symmetry group for a 
 face centered cubic supercell.


 Subroutine GETGRP returns: Found 24 space group operations
 (whereof 24 operations were pure point group operations)
 out of a pool of 48 trial point group operations.


The static configuration has the point symmetry T_d .


Analysis of symmetry for dynamics (positions and initial velocities):
=====================================================================
 Subroutine PRICEL returns:
 Original cell was already a primitive cell.
 

 Routine SETGRP: Setting up the symmetry group for a 
 face centered cubic supercell.


 Subroutine GETGRP returns: Found 24 space group operations
 (whereof 24 operations were pure point group operations)
 out of a pool of 48 trial point group operations.


The dynamic configuration has the point symmetry T_d .
 
 
 KPOINTS: Automatically generated mesh            
  k-points in reciprocal lattice
Space group operators:
 irot       det(A)        alpha          n_x          n_y          n_z        tau_x        tau_y        tau_z
    1     1.000000     0.000000     1.000000     0.000000     0.000000     0.000000     0.000000     0.000000
    2     1.000000   120.000000    -0.577350    -0.577350     0.577350     0.000000     0.000000     0.000000
    3     1.000000   120.000000     0.577350     0.577350    -0.577350     0.000000     0.000000     0.000000
    4    -1.000000    90.000000    -1.000000     0.000000     0.000000     0.000000     0.000000     0.000000
    5    -1.000000   180.000000     0.707107     0.707107     0.000000     0.000000     0.000000     0.000000
    6    -1.000000    90.000000     0.000000     1.000000     0.000000     0.000000     0.000000     0.000000
    7     1.000000   180.000000     1.000000     0.000000     0.000000     0.000000     0.000000     0.000000
    8     1.000000   120.000000     0.577350     0.577350     0.577350     0.000000     0.000000     0.000000
    9     1.000000   120.000000    -0.577350     0.577350     0.577350     0.000000     0.000000     0.000000
   10    -1.000000    90.000000     1.000000     0.000000     0.000000     0.000000     0.000000     0.000000
   11    -1.000000    90.000000     0.000000     0.000000     1.000000     0.000000     0.000000     0.000000
   12    -1.000000   180.000000     0.707107     0.000000    -0.707107     0.000000     0.000000     0.000000
   13     1.000000   120.000000     0.577350    -0.577350    -0.577350     0.000000     0.000000     0.000000
   14     1.000000   120.000000     0.577350    -0.577350     0.577350     0.000000     0.000000     0.000000
   15     1.000000   180.000000     0.000000     0.000000     1.000000     0.000000     0.000000     0.000000
   16    -1.000000    90.000000     0.000000    -1.000000     0.000000     0.000000     0.000000     0.000000
   17    -1.000000   180.000000     0.000000    -0.707107     0.707107     0.000000     0.000000     0.000000
   18    -1.000000    90.000000     0.000000     0.000000    -1.000000     0.000000     0.000000     0.000000
   19     1.000000   120.000000    -0.577350    -0.577350    -0.577350     0.000000     0.000000     0.000000
   20     1.000000   180.000000     0.000000     1.000000     0.000000     0.000000     0.000000     0.000000
   21     1.000000   120.000000    -0.577350     0.577350    -0.577350     0.000000     0.000000     0.000000
   22    -1.000000   180.000000     0.707107    -0.707107     0.000000     0.000000     0.000000     0.000000
   23    -1.000000   180.000000     0.000000     0.707107     0.707107     0.000000     0.000000     0.000000
   24    -1.000000   180.000000     0.707107     0.000000     0.707107     0.000000     0.000000     0.000000


--------------------------------------------------------------------------------------------------------




 Dimension of arrays:
   k-points           NKPTS =    603   k-points in BZ     NKDIM =    603   number of bands    NBANDS=     16
   number of dos      NEDOS =    301   number of ions     NIONS =      2
   non local maximal  LDIM  =      6   non local SUM 2l+1 LMDIM =     18
   total plane-waves  NPLWV =  46656
   max r-space proj   IRMAX =      1   max aug-charges    IRDMAX=  40037
   dimension x,y,z NGX =    36 NGY =   36 NGZ =   36
   dimension x,y,z NGXF=    72 NGYF=   72 NGZF=   72
   support grid    NGXF=    72 NGYF=   72 NGZF=   72
   ions per type =               1   1
 NGX,Y,Z   is equivalent  to a cutoff of  13.06, 13.06, 13.06 a.u.
 NGXF,Y,Z  is equivalent  to a cutoff of  26.11, 26.11, 26.11 a.u.


 I would recommend the setting:
   dimension x,y,z NGX =    33 NGY =   33 NGZ =   33
 SYSTEM =  Name                                    
 POSCAR =  CdTe (ICSD, 295K, Rabadanov 2001)       

 Startparameter for this run:
   NWRITE =      2    write-flag & timer
   PREC   = accura    normal or accurate (medium, high low for compatibility)
   ISTART =      0    job   : 0-new  1-cont  2-samecut
   ICHARG =     11    charge: 1-file 2-atom 10-const
   ISPIN  =      1    spin polarized calculation?
   LNONCOLLINEAR =      F non collinear calculations
   LSORBIT =      F    spin-orbit coupling
   INIWAV =      1    electr: 0-lowe 1-rand  2-diag
   LASPH  =      F    aspherical Exc in radial PAW
   METAGGA=      F    non-selfconsistent MetaGGA calc.

 Electronic Relaxation 1
   ENCUT  =  500.0 eV  36.75 Ry    6.06 a.u.   8.36  8.36  8.36*2*pi/ulx,y,z
   ENINI  =  500.0     initial cutoff
   ENAUG  =  456.1 eV  augmentation charge cutoff
   NELM   =     60;   NELMIN=  2; NELMDL=  0     # of ELM steps 
   EDIFF  = 0.1E-05   stopping-criterion for ELM
   LREAL  =      F    real-space projection
   NLSPLINE    = F    spline interpolate recip. space projectors
   LCOMPAT=      F    compatible to vasp.4.4
   GGA_COMPAT  = T    GGA compatible to vasp.4.4-vasp.4.6
   LMAXPAW     = -100 max onsite density
   LMAXMIX     =    2 max onsite mixed and CHGCAR
   VOSKOWN=      0    Vosko Wilk Nusair interpolation
   ROPT   =    0.00000   0.00000
 Ionic relaxation
   EDIFFG = -.5E-02   stopping-criterion for IOM
   NSW    =      1    number of steps for IOM
   NBLOCK =      1;   KBLOCK =      1    inner block; outer block 
   IBRION =      2    ionic relax: 0-MD 1-quasi-New 2-CG
   NFREE  =      1    steps in history (QN), initial steepest desc. (CG)
   ISIF   =      3    stress and relaxation
   IWAVPR =     11    prediction:  0-non 1-charg 2-wave 3-comb
   ISYM   =      2    0-nonsym 1-usesym 2-fastsym
   LCORR  =      T    Harris-Foulkes like correction to forces

   POTIM  = 0.5000    time-step for ionic-motion
   TEIN   =    0.0    initial temperature
   TEBEG  =    0.0;   TEEND  =   0.0 temperature during run
   SMASS  =  -3.00    Nose mass-parameter (am)
   estimated Nose-frequenzy (Omega)   =  0.10E-29 period in steps =****** mass=  -0.480E-27a.u.
   SCALEE = 1.0000    scale energy and forces
   NPACO  =    256;   APACO  = 16.0  distance and # of slots for P.C.
   PSTRESS=    0.0 pullay stress

  Mass of Ions in am
   POMASS = 112.41127.60
  Ionic Valenz
   ZVAL   =  12.00  6.00
  Atomic Wigner-Seitz radii
   RWIGS  =  -1.00 -1.00
  virtual crystal weights 
   VCA    =   1.00  1.00
   NELECT =      18.0000    total number of electrons
   NUPDOWN=      -1.0000    fix difference up-down

 DOS related values:
   EMIN   =  10.00;   EMAX   =-10.00  energy-range for DOS
   EFERMI =   0.00
   ISMEAR =     0;   SIGMA  =   0.01  broadening in eV -4-tet -1-fermi 0-gaus

 Electronic relaxation 2 (details)
   IALGO  =     38    algorithm
   LDIAG  =      T    sub-space diagonalisation (order eigenvalues)
   LSUBROT=      F    optimize rotation matrix (better conditioning)
   TURBO    =      0    0=normal 1=particle mesh
   IRESTART =      0    0=no restart 2=restart with 2 vectors
   NREBOOT  =      0    no. of reboots
   NMIN     =      0    reboot dimension
   EREF     =   0.00    reference energy to select bands
   IMIX   =      4    mixing-type and parameters
     AMIX     =   0.40;   BMIX     =  1.00
     AMIX_MAG =   1.60;   BMIX_MAG =  1.00
     AMIN     =   0.01
     WC   =   100.;   INIMIX=   1;  MIXPRE=   1;  MAXMIX= -45

 Intra band minimization:
   WEIMIN = 0.0010     energy-eigenvalue tresh-hold
   EBREAK =  0.16E-07  absolut break condition
   DEPER  =   0.30     relativ break condition  

   TIME   =   0.40     timestep for ELM

  volume/ion in A,a.u.               =      34.05       229.81
  Fermi-wavevector in a.u.,A,eV,Ry     =   1.050581  1.985311 15.017042  1.103721
  Thomas-Fermi vector in A             =   2.185590
 
 Write flags
   LWAVE  =      T    write WAVECAR
   LCHARG =      T    write CHGCAR
   LVTOT  =      F    write LOCPOT, total local potential
   LVHAR  =      F    write LOCPOT, Hartree potential only
   LELF   =      F    write electronic localiz. function (ELF)
   LORBIT =     10    0 simple, 1 ext, 2 COOP (PROOUT)


 Dipole corrections
   LMONO  =      F    monopole corrections only (constant potential shift)
   LDIPOL =      F    correct potential (dipole corrections)
   IDIPOL =      0    1-x, 2-y, 3-z, 4-all directions 
   EPSILON=  1.0000000 bulk dielectric constant

 Core level calculations are selected ICORELEVEL =  1
 Exchange correlation treatment:
   GGA     =    --    GGA type
   LEXCH   =     2    internal setting for exchange type
   VOSKOWN=      0    Vosko Wilk Nusair interpolation
   LHFCALC =     F    Hartree Fock is set to
   LHFONE  =     F    Hartree Fock one center treatment
   AEXX    =    0.0000 exact exchange contribution

 Linear response parameters
   LEPSILON=     F    determine dielectric tensor
   LRPA    =     F    only Hartree local field effects (RPA)
   LNABLA  =     F    use nabla operator in PAW spheres
   LVEL    =     F    velocity operator in full k-point grid
   LINTERFAST=   F  fast interpolation
   KINTER  =     0    interpolate to denser k-point grid
   CSHIFT  =0.1000    complex shift for real part using Kramers Kronig
   OMEGAMAX=  -1.0    maximum frequency
   DEG_THRESHOLD= 0.2000000E-02 threshold for treating states as degnerate
   RTIME   =    0.100 relaxation time in fs

 Orbital magnetization related:
   ORBITALMAG=     F  switch on orbital magnetization
   LCHIMAG   =     F  perturbation theory with respect to B field
   DQ        =  0.001000  dq finite difference perturbation B field



--------------------------------------------------------------------------------------------------------


 conjugate gradient relaxation of ions
 charge density and potential remain constant during run
 non-spin polarized calculation
 Variant of blocked Davidson
 Davidson routine will perform the subspace rotation
 perform sub-space diagonalisation
    after iterative eigenvector-optimisation
 no mixing
 using additional bands            7
 reciprocal scheme for non local part
 use partial core corrections
 calculate Harris-corrections to forces 
   (improved forces if not selfconsistent)
 use of overlap-Matrix (Vanderbilt PP)
 Gauss-broadening in eV      SIGMA  =   0.01


--------------------------------------------------------------------------------------------------------


  energy-cutoff  :      500.00
  volume of cell :       68.11
      direct lattice vectors                 reciprocal lattice vectors
     3.241350000  3.241350000  0.000000000     0.154256714  0.154256714  0.154256714
     3.241350000  0.000000000 -3.241350000     0.154256714 -0.154256714 -0.154256714
     0.000000000  3.241350000 -3.241350000    -0.154256714  0.154256714 -0.154256714

  length of vectors
     4.583961130  4.583961130  4.583961130     0.267180466  0.267180466  0.267180466


 
 k-points in units of 2pi/SCALE and weight: Automatically generated mesh            
   0.00000000  0.00000000  0.00000000       0.005
   0.16666667  0.16666667  0.16666667       0.037
   0.33333333  0.33333333  0.33333333       0.037
   0.50000000  0.50000000  0.50000000       0.019
   0.33333333  0.00000000  0.00000000       0.028
   0.50000000  0.16666667  0.16666667       0.111
   0.66666667  0.33333333  0.33333333       0.111
  -0.16666667 -0.50000000 -0.50000000       0.111
   0.00000000 -0.33333333 -0.33333333       0.056
   0.66666667  0.00000000  0.00000000       0.028
   0.83333333  0.16666667  0.16666667       0.111
   0.00000000 -0.66666667 -0.66666667       0.056
   1.00000000  0.00000000  0.00000000       0.014
   0.66666667  0.33333333  0.00000000       0.111
  -0.16666667 -0.50000000 -0.83333333       0.111
   0.00000000 -0.66666667 -1.00000000       0.056
   0.00000000  0.00000000  0.00000000       0.000
   0.00000000  0.01000000  0.00000000       0.000
   0.00000000  0.02000000  0.00000000       0.000
   0.00000000  0.03000000  0.00000000       0.000
   0.00000000  0.04000000  0.00000000       0.000
   0.00000000  0.05000000  0.00000000       0.000
   0.00000000  0.06000000  0.00000000       0.000
   0.00000000  0.07000000  0.00000000       0.000
   0.00000000  0.08000000  0.00000000       0.000
   0.00000000  0.09000000  0.00000000       0.000
   0.00000000  0.10000000  0.00000000       0.000
   0.00000000  0.11000000  0.00000000       0.000
   0.00000000  0.12000000  0.00000000       0.000
   0.00000000  0.13000000  0.00000000       0.000
   0.00000000  0.14000000  0.00000000       0.000
   0.00000000  0.15000000  0.00000000       0.000
   0.00000000  0.16000000  0.00000000       0.000
   0.00000000  0.17000000  0.00000000       0.000
   0.00000000  0.18000000  0.00000000       0.000
   0.00000000  0.19000000  0.00000000       0.000
   0.00000000  0.19999998  0.00000000       0.000
   0.00000000  0.21000000  0.00000000       0.000
   0.00000000  0.22000000  0.00000000       0.000
   0.00000000  0.22999998  0.00000000       0.000
   0.00000000  0.24000000  0.00000000       0.000
   0.00000000  0.25000000  0.00000000       0.000
   0.00000000  0.26000000  0.00000000       0.000
   0.00000000  0.26999998  0.00000000       0.000
   0.00000000  0.28000000  0.00000000       0.000
   0.00000000  0.29000000  0.00000000       0.000
   0.00000000  0.29999998  0.00000000       0.000
   0.00000000  0.31000000  0.00000000       0.000
   0.00000000  0.32000000  0.00000000       0.000
   0.00000000  0.32999998  0.00000000       0.000
   0.00000000  0.34000000  0.00000000       0.000
   0.00000000  0.35000000  0.00000000       0.000
   0.00000000  0.36000002  0.00000000       0.000
   0.00000000  0.36999998  0.00000000       0.000
   0.00000000  0.38000000  0.00000000       0.000
   0.00000000  0.39000002  0.00000000       0.000
   0.00000000  0.39999998  0.00000000       0.000
   0.00000000  0.41000000  0.00000000       0.000
   0.00000000  0.42000002  0.00000000       0.000
   0.00000000  0.42999998  0.00000000       0.000
   0.00000000  0.44000000  0.00000000       0.000
   0.00000000  0.45000002  0.00000000       0.000
   0.00000000  0.45999998  0.00000000       0.000
   0.00000000  0.47000000  0.00000000       0.000
   0.00000000  0.48000002  0.00000000       0.000
   0.00000000  0.48999998  0.00000000       0.000
   0.00000000  0.50000000  0.00000000       0.000
   0.00000000  0.51000000  0.00000000       0.000
   0.00000000  0.51999998  0.00000000       0.000
   0.00000000  0.52999998  0.00000000       0.000
   0.00000000  0.53999996  0.00000000       0.000
   0.00000000  0.55000002  0.00000000       0.000
   0.00000000  0.56000000  0.00000000       0.000
   0.00000000  0.57000000  0.00000000       0.000
   0.00000000  0.57999998  0.00000000       0.000
   0.00000000  0.58999998  0.00000000       0.000
   0.00000000  0.59999996  0.00000000       0.000
   0.00000000  0.61000002  0.00000000       0.000
   0.00000000  0.62000000  0.00000000       0.000
   0.00000000  0.63000000  0.00000000       0.000
   0.00000000  0.63999998  0.00000000       0.000
   0.00000000  0.64999998  0.00000000       0.000
   0.00000000  0.65999996  0.00000000       0.000
   0.00000000  0.67000002  0.00000000       0.000
   0.00000000  0.68000000  0.00000000       0.000
   0.00000000  0.69000000  0.00000000       0.000
   0.00000000  0.69999998  0.00000000       0.000
   0.00000000  0.70999998  0.00000000       0.000
   0.00000000  0.72000002  0.00000000       0.000
   0.00000000  0.72999996  0.00000000       0.000
   0.00000000  0.73999994  0.00000000       0.000
   0.00000000  0.75000000  0.00000000       0.000
   0.00000000  0.76000000  0.00000000       0.000
   0.00000000  0.76999998  0.00000000       0.000
   0.00000000  0.78000004  0.00000000       0.000
   0.00000000  0.78999996  0.00000000       0.000
   0.00000000  0.79999996  0.00000000       0.000
   0.00000000  0.81000000  0.00000000       0.000
   0.00000000  0.82000000  0.00000000       0.000
   0.00000000  0.82999998  0.00000000       0.000
   0.00000000  0.84000004  0.00000000       0.000
   0.00000000  0.84999996  0.00000000       0.000
   0.00000000  0.85999996  0.00000000       0.000
   0.00000000  0.87000000  0.00000000       0.000
   0.00000000  0.88000000  0.00000000       0.000
   0.00000000  0.88999998  0.00000000       0.000
   0.00000000  0.90000004  0.00000000       0.000
   0.00000000  0.90999996  0.00000000       0.000
   0.00000000  0.91999996  0.00000000       0.000
   0.00000000  0.93000000  0.00000000       0.000
   0.00000000  0.94000000  0.00000000       0.000
   0.00000000  0.94999998  0.00000000       0.000
   0.00000000  0.96000004  0.00000000       0.000
   0.00000000  0.96999996  0.00000000       0.000
   0.00000000  0.97999996  0.00000000       0.000
   0.00000000  0.99000000  0.00000000       0.000
   0.00000000  1.00000000  0.00000000       0.000
   0.00000000  1.00000000 -0.01000000       0.000
   0.00000001  0.99999999 -0.01999999       0.000
   0.00000001  0.99999999 -0.02999999       0.000
   0.00000002  0.99999998 -0.03999998       0.000
   0.00000002  0.99999998 -0.04999998       0.000
   0.00000003  0.99999997 -0.05999997       0.000
  -0.00000003  1.00000003 -0.07000003       0.000
  -0.00000002  1.00000002 -0.08000002       0.000
  -0.00000002  1.00000002 -0.09000002       0.000
  -0.00000001  1.00000001 -0.10000001       0.000
  -0.00000001  1.00000001 -0.11000001       0.000
   0.00000000  1.00000000 -0.12000000       0.000
   0.00000000  1.00000000 -0.13000000       0.000
   0.00000001  0.99999999 -0.13999999       0.000
   0.00000001  0.99999999 -0.14999999       0.000
   0.00000002  0.99999998 -0.15999998       0.000
   0.00000002  0.99999998 -0.16999998       0.000
  -0.00000003  1.00000003 -0.18000003       0.000
  -0.00000003  1.00000003 -0.19000003       0.000
  -0.00000003  1.00000003 -0.20000001       0.000
  -0.00000002  1.00000002 -0.21000002       0.000
  -0.00000001  1.00000001 -0.22000001       0.000
  -0.00000002  1.00000002 -0.23000000       0.000
   0.00000000  1.00000000 -0.24000000       0.000
   0.00000000  1.00000000 -0.25000000       0.000
  -0.00000000  1.00000000 -0.26000000       0.000
   0.00000000  1.00000000 -0.26999998       0.000
   0.00000001  0.99999999 -0.27999999       0.000
   0.00000002  0.99999998 -0.28999998       0.000
   0.00000001  0.99999999 -0.29999997       0.000
   0.00000003  0.99999997 -0.30999997       0.000
   0.00000003  0.99999997 -0.31999997       0.000
   0.00000003  0.99999997 -0.32999995       0.000
  -0.00000002  1.00000002 -0.34000002       0.000
  -0.00000001  1.00000001 -0.35000001       0.000
   0.00000000  1.00000000 -0.36000002       0.000
  -0.00000001  1.00000001 -0.36999999       0.000
   0.00000000  1.00000000 -0.38000000       0.000
   0.00000002  0.99999998 -0.39000000       0.000
   0.00000000  1.00000000 -0.39999998       0.000
   0.00000002  0.99999998 -0.40999998       0.000
  -0.00000003  1.00000003 -0.42000005       0.000
   0.00000002  0.99999998 -0.42999996       0.000
  -0.00000003  1.00000003 -0.44000003       0.000
  -0.00000001  1.00000001 -0.45000003       0.000
  -0.00000003  1.00000003 -0.46000001       0.000
  -0.00000001  1.00000001 -0.47000001       0.000
   0.00000000  1.00000000 -0.48000002       0.000
  -0.00000001  1.00000001 -0.48999999       0.000
   0.00000000  1.00000000 -0.50000000       0.000
   0.00000000  0.99000000 -0.51000000       0.000
   0.00000000  0.98000002 -0.51999998       0.000
   0.00000000  0.97000002 -0.52999998       0.000
   0.00000000  0.95999998 -0.54000002       0.000
   0.00000000  0.94999998 -0.55000002       0.000
   0.00000000  0.94000000 -0.56000000       0.000
   0.00000000  0.93000000 -0.57000000       0.000
   0.00000000  0.92000002 -0.57999998       0.000
   0.00000000  0.90999996 -0.59000004       0.000
   0.00000000  0.89999998 -0.60000002       0.000
   0.00000000  0.88999998 -0.61000002       0.000
   0.00000000  0.88000000 -0.62000000       0.000
   0.00000000  0.87000000 -0.63000000       0.000
   0.00000000  0.86000002 -0.63999998       0.000
   0.00000000  0.85000002 -0.64999998       0.000
   0.00000000  0.84000004 -0.65999996       0.000
   0.00000000  0.82999998 -0.67000002       0.000
   0.00000000  0.82000000 -0.68000000       0.000
   0.00000000  0.81000000 -0.69000000       0.000
   0.00000000  0.80000002 -0.69999998       0.000
   0.00000000  0.78999996 -0.71000004       0.000
   0.00000000  0.77999998 -0.72000002       0.000
   0.00000000  0.76999998 -0.73000002       0.000
   0.00000000  0.76000000 -0.74000000       0.000
   0.00000000  0.75000000 -0.75000000       0.000
   0.00000000  0.74418604 -0.74418604       0.000
  -0.00000001  0.73837209 -0.73837209       0.000
   0.00000001  0.73255813 -0.73255813       0.000
   0.00000001  0.72674417 -0.72674417       0.000
   0.00000000  0.72093022 -0.72093022       0.000
   0.00000000  0.71511626 -0.71511626       0.000
  -0.00000001  0.70930231 -0.70930231       0.000
  -0.00000001  0.70348835 -0.70348835       0.000
   0.00000001  0.69767439 -0.69767439       0.000
   0.00000000  0.69186044 -0.69186044       0.000
   0.00000000  0.68604648 -0.68604648       0.000
   0.00000000  0.68023252 -0.68023252       0.000
  -0.00000001  0.67441857 -0.67441857       0.000
   0.00000001  0.66860467 -0.66860467       0.000
   0.00000000  0.66279072 -0.66279072       0.000
   0.00000000  0.65697676 -0.65697676       0.000
   0.00000000  0.65116280 -0.65116280       0.000
  -0.00000001  0.64534885 -0.64534885       0.000
   0.00000001  0.63953489 -0.63953489       0.000
   0.00000001  0.63372093 -0.63372093       0.000
   0.00000000  0.62790698 -0.62790698       0.000
   0.00000000  0.62209302 -0.62209302       0.000
  -0.00000001  0.61627907 -0.61627907       0.000
  -0.00000001  0.61046511 -0.61046511       0.000
   0.00000001  0.60465115 -0.60465115       0.000
   0.00000000  0.59883720 -0.59883720       0.000
   0.00000000  0.59302324 -0.59302324       0.000
   0.00000000  0.58720928 -0.58720928       0.000
  -0.00000001  0.58139533 -0.58139533       0.000
   0.00000001  0.57558137 -0.57558137       0.000
   0.00000000  0.56976742 -0.56976742       0.000
   0.00000000  0.56395352 -0.56395352       0.000
   0.00000000  0.55813956 -0.55813956       0.000
  -0.00000001  0.55232561 -0.55232561       0.000
   0.00000001  0.54651165 -0.54651165       0.000
   0.00000001  0.54069769 -0.54069769       0.000
   0.00000000  0.53488374 -0.53488374       0.000
   0.00000000  0.52906978 -0.52906978       0.000
  -0.00000001  0.52325583 -0.52325583       0.000
  -0.00000001  0.51744187 -0.51744187       0.000
   0.00000001  0.51162791 -0.51162791       0.000
   0.00000000  0.50581396 -0.50581396       0.000
   0.00000000  0.50000000 -0.50000000       0.000
   0.00000000  0.49418604 -0.49418604       0.000
  -0.00000001  0.48837209 -0.48837209       0.000
   0.00000001  0.48255813 -0.48255813       0.000
   0.00000001  0.47674417 -0.47674417       0.000
   0.00000000  0.47093022 -0.47093022       0.000
   0.00000000  0.46511626 -0.46511626       0.000
  -0.00000001  0.45930231 -0.45930231       0.000
  -0.00000001  0.45348835 -0.45348835       0.000
   0.00000001  0.44767439 -0.44767439       0.000
  -0.00000001  0.44186047 -0.44186047       0.000
   0.00000001  0.43604651 -0.43604651       0.000
   0.00000001  0.43023255 -0.43023255       0.000
   0.00000000  0.42441860 -0.42441860       0.000
   0.00000000  0.41860464 -0.41860464       0.000
  -0.00000001  0.41279069 -0.41279069       0.000
  -0.00000001  0.40697673 -0.40697673       0.000
   0.00000001  0.40116277 -0.40116277       0.000
   0.00000000  0.39534882 -0.39534882       0.000
   0.00000000  0.38953486 -0.38953486       0.000
   0.00000001  0.38372093 -0.38372093       0.000
   0.00000000  0.37790698 -0.37790698       0.000
   0.00000000  0.37209302 -0.37209302       0.000
  -0.00000001  0.36627907 -0.36627907       0.000
  -0.00000001  0.36046511 -0.36046511       0.000
   0.00000001  0.35465115 -0.35465115       0.000
   0.00000000  0.34883720 -0.34883720       0.000
   0.00000000  0.34302324 -0.34302324       0.000
   0.00000000  0.33720928 -0.33720928       0.000
   0.00000000  0.33139536 -0.33139536       0.000
   0.00000000  0.32558140 -0.32558140       0.000
  -0.00000001  0.31976745 -0.31976745       0.000
  -0.00000001  0.31395349 -0.31395349       0.000
   0.00000001  0.30813953 -0.30813953       0.000
   0.00000000  0.30232558 -0.30232558       0.000
   0.00000000  0.29651162 -0.29651162       0.000
   0.00000000  0.29069766 -0.29069766       0.000
  -0.00000001  0.28488371 -0.28488371       0.000
   0.00000001  0.27906975 -0.27906975       0.000
  -0.00000001  0.27325583 -0.27325583       0.000
  -0.00000001  0.26744187 -0.26744187       0.000
   0.00000001  0.26162791 -0.26162791       0.000
   0.00000000  0.25581396 -0.25581396       0.000
   0.00000000  0.25000000 -0.25000000       0.000
   0.00000000  0.24418604 -0.24418604       0.000
  -0.00000001  0.23837209 -0.23837209       0.000
   0.00000001  0.23255813 -0.23255813       0.000
   0.00000001  0.22674417 -0.22674417       0.000
   0.00000000  0.22093022 -0.22093022       0.000
   0.00000000  0.21511626 -0.21511626       0.000
  -0.00000001  0.20930231 -0.20930231       0.000
  -0.00000001  0.20348835 -0.20348835       0.000
   0.00000001  0.19767439 -0.19767439       0.000
   0.00000000  0.19186044 -0.19186044       0.000
   0.00000000  0.18604648 -0.18604648       0.000
   0.00000000  0.18023252 -0.18023252       0.000
  -0.00000001  0.17441857 -0.17441857       0.000
   0.00000001  0.16860461 -0.16860461       0.000
   0.00000000  0.16279066 -0.16279066       0.000
   0.00000000  0.15697670 -0.15697670       0.000
   0.00000000  0.15116274 -0.15116274       0.000
  -0.00000001  0.14534879 -0.14534879       0.000
   0.00000001  0.13953483 -0.13953483       0.000
   0.00000001  0.13372093 -0.13372093       0.000
   0.00000000  0.12790698 -0.12790698       0.000
   0.00000000  0.12209302 -0.12209302       0.000
  -0.00000001  0.11627907 -0.11627907       0.000
  -0.00000001  0.11046511 -0.11046511       0.000
   0.00000001  0.10465115 -0.10465115       0.000
   0.00000000  0.09883720 -0.09883720       0.000
   0.00000000  0.09302324 -0.09302324       0.000
   0.00000000  0.08720928 -0.08720928       0.000
  -0.00000001  0.08139533 -0.08139533       0.000
   0.00000001  0.07558137 -0.07558137       0.000
   0.00000000  0.06976742 -0.06976742       0.000
   0.00000000  0.06395346 -0.06395346       0.000
   0.00000000  0.05813950 -0.05813950       0.000
  -0.00000001  0.05232555 -0.05232555       0.000
   0.00000001  0.04651159 -0.04651159       0.000
   0.00000001  0.04069763 -0.04069763       0.000
   0.00000000  0.03488368 -0.03488368       0.000
   0.00000000  0.02906972 -0.02906972       0.000
  -0.00000001  0.02325583 -0.02325583       0.000
  -0.00000001  0.01744187 -0.01744187       0.000
   0.00000001  0.01162791 -0.01162791       0.000
   0.00000000  0.00581396 -0.00581396       0.000
   0.00000000  0.00000000  0.00000000       0.000
   0.00409836  0.00409836 -0.00409836       0.000
   0.00819672  0.00819672 -0.00819672       0.000
   0.01229508  0.01229508 -0.01229508       0.000
   0.01639344  0.01639344 -0.01639344       0.000
   0.02049180  0.02049180 -0.02049180       0.000
   0.02459016  0.02459016 -0.02459016       0.000
   0.02868852  0.02868852 -0.02868852       0.000
   0.03278688  0.03278688 -0.03278688       0.000
   0.03688525  0.03688525 -0.03688525       0.000
   0.04098361  0.04098361 -0.04098361       0.000
   0.04508197  0.04508197 -0.04508197       0.000
   0.04918033  0.04918033 -0.04918033       0.000
   0.05327869  0.05327869 -0.05327869       0.000
   0.05737704  0.05737704 -0.05737704       0.000
   0.06147541  0.06147541 -0.06147541       0.000
   0.06557377  0.06557377 -0.06557377       0.000
   0.06967213  0.06967213 -0.06967213       0.000
   0.07377049  0.07377049 -0.07377049       0.000
   0.07786886  0.07786886 -0.07786886       0.000
   0.08196721  0.08196721 -0.08196721       0.000
   0.08606557  0.08606557 -0.08606557       0.000
   0.09016393  0.09016393 -0.09016393       0.000
   0.09426229  0.09426229 -0.09426229       0.000
   0.09836065  0.09836065 -0.09836065       0.000
   0.10245901  0.10245901 -0.10245901       0.000
   0.10655738  0.10655738 -0.10655738       0.000
   0.11065574  0.11065574 -0.11065574       0.000
   0.11475409  0.11475409 -0.11475409       0.000
   0.11885245  0.11885245 -0.11885245       0.000
   0.12295081  0.12295081 -0.12295081       0.000
   0.12704918  0.12704918 -0.12704918       0.000
   0.13114753  0.13114753 -0.13114753       0.000
   0.13524590  0.13524590 -0.13524590       0.000
   0.13934426  0.13934426 -0.13934426       0.000
   0.14344262  0.14344262 -0.14344262       0.000
   0.14754099  0.14754099 -0.14754099       0.000
   0.15163934  0.15163934 -0.15163934       0.000
   0.15573771  0.15573771 -0.15573771       0.000
   0.15983605  0.15983605 -0.15983605       0.000
   0.16393442  0.16393442 -0.16393442       0.000
   0.16803278  0.16803278 -0.16803278       0.000
   0.17213114  0.17213114 -0.17213114       0.000
   0.17622951  0.17622951 -0.17622951       0.000
   0.18032786  0.18032786 -0.18032786       0.000
   0.18442623  0.18442623 -0.18442623       0.000
   0.18852459  0.18852459 -0.18852459       0.000
   0.19262296  0.19262296 -0.19262296       0.000
   0.19672130  0.19672130 -0.19672130       0.000
   0.20081966  0.20081966 -0.20081966       0.000
   0.20491803  0.20491803 -0.20491803       0.000
   0.20901638  0.20901638 -0.20901638       0.000
   0.21311475  0.21311475 -0.21311475       0.000
   0.21721311  0.21721311 -0.21721311       0.000
   0.22131148  0.22131148 -0.22131148       0.000
   0.22540984  0.22540984 -0.22540984       0.000
   0.22950818  0.22950818 -0.22950818       0.000
   0.23360655  0.23360655 -0.23360655       0.000
   0.23770490  0.23770490 -0.23770490       0.000
   0.24180327  0.24180327 -0.24180327       0.000
   0.24590163  0.24590163 -0.24590163       0.000
   0.25000000  0.25000000 -0.25000000       0.000
   0.25409836  0.25409836 -0.25409836       0.000
   0.25819671  0.25819671 -0.25819671       0.000
   0.26229507  0.26229507 -0.26229507       0.000
   0.26639342  0.26639342 -0.26639342       0.000
   0.27049181  0.27049181 -0.27049181       0.000
   0.27459016  0.27459016 -0.27459016       0.000
   0.27868852  0.27868852 -0.27868852       0.000
   0.28278688  0.28278688 -0.28278688       0.000
   0.28688523  0.28688523 -0.28688523       0.000
   0.29098362  0.29098362 -0.29098362       0.000
   0.29508197  0.29508197 -0.29508197       0.000
   0.29918033  0.29918033 -0.29918033       0.000
   0.30327868  0.30327868 -0.30327868       0.000
   0.30737704  0.30737704 -0.30737704       0.000
   0.31147543  0.31147543 -0.31147543       0.000
   0.31557378  0.31557378 -0.31557378       0.000
   0.31967211  0.31967211 -0.31967211       0.000
   0.32377046  0.32377046 -0.32377046       0.000
   0.32786885  0.32786885 -0.32786885       0.000
   0.33196720  0.33196720 -0.33196720       0.000
   0.33606556  0.33606556 -0.33606556       0.000
   0.34016392  0.34016392 -0.34016392       0.000
   0.34426227  0.34426227 -0.34426227       0.000
   0.34836066  0.34836066 -0.34836066       0.000
   0.35245901  0.35245901 -0.35245901       0.000
   0.35655737  0.35655737 -0.35655737       0.000
   0.36065573  0.36065573 -0.36065573       0.000
   0.36475408  0.36475408 -0.36475408       0.000
   0.36885247  0.36885247 -0.36885247       0.000
   0.37295082  0.37295082 -0.37295082       0.000
   0.37704918  0.37704918 -0.37704918       0.000
   0.38114753  0.38114753 -0.38114753       0.000
   0.38524592  0.38524592 -0.38524592       0.000
   0.38934427  0.38934427 -0.38934427       0.000
   0.39344260  0.39344260 -0.39344260       0.000
   0.39754096  0.39754096 -0.39754096       0.000
   0.40163931  0.40163931 -0.40163931       0.000
   0.40573770  0.40573770 -0.40573770       0.000
   0.40983605  0.40983605 -0.40983605       0.000
   0.41393441  0.41393441 -0.41393441       0.000
   0.41803277  0.41803277 -0.41803277       0.000
   0.42213115  0.42213115 -0.42213115       0.000
   0.42622951  0.42622951 -0.42622951       0.000
   0.43032786  0.43032786 -0.43032786       0.000
   0.43442622  0.43442622 -0.43442622       0.000
   0.43852457  0.43852457 -0.43852457       0.000
   0.44262296  0.44262296 -0.44262296       0.000
   0.44672132  0.44672132 -0.44672132       0.000
   0.45081967  0.45081967 -0.45081967       0.000
   0.45491803  0.45491803 -0.45491803       0.000
   0.45901635  0.45901635 -0.45901635       0.000
   0.46311477  0.46311477 -0.46311477       0.000
   0.46721309  0.46721309 -0.46721309       0.000
   0.47131145  0.47131145 -0.47131145       0.000
   0.47540981  0.47540981 -0.47540981       0.000
   0.47950819  0.47950819 -0.47950819       0.000
   0.48360655  0.48360655 -0.48360655       0.000
   0.48770490  0.48770490 -0.48770490       0.000
   0.49180326  0.49180326 -0.49180326       0.000
   0.49590161  0.49590161 -0.49590161       0.000
   0.50000000  0.50000000 -0.50000000       0.000
   0.49418604  0.51162792 -0.49418604       0.000
   0.48837209  0.52325583 -0.48837209       0.000
   0.48255813  0.53488373 -0.48255813       0.000
   0.47674417  0.54651165 -0.47674417       0.000
   0.47093022  0.55813956 -0.47093022       0.000
   0.46511629  0.56976745 -0.46511629       0.000
   0.45930234  0.58139536 -0.45930234       0.000
   0.45348838  0.59302328 -0.45348838       0.000
   0.44767442  0.60465118 -0.44767442       0.000
   0.44186047  0.61627909 -0.44186047       0.000
   0.43604651  0.62790701 -0.43604651       0.000
   0.43023255  0.63953493 -0.43023255       0.000
   0.42441860  0.65116284 -0.42441860       0.000
   0.41860464  0.66279074 -0.41860464       0.000
   0.41279072  0.67441862 -0.41279072       0.000
   0.40697676  0.68604654 -0.40697676       0.000
   0.40116280  0.69767446 -0.40116280       0.000
   0.39534885  0.70930237 -0.39534885       0.000
   0.38953489  0.72093027 -0.38953489       0.000
   0.38372093  0.73255819 -0.38372093       0.000
   0.37790698  0.74418598 -0.37790698       0.000
   0.37209302  0.75581402 -0.37209302       0.000
   0.36627907  0.76744181 -0.36627907       0.000
   0.36046511  0.77906973 -0.36046511       0.000
   0.35465115  0.79069763 -0.35465115       0.000
   0.34883720  0.80232554 -0.34883720       0.000
   0.34302324  0.81395346 -0.34302324       0.000
   0.33720928  0.82558138 -0.33720928       0.000
   0.33139536  0.83720926 -0.33139536       0.000
   0.32558140  0.84883716 -0.32558140       0.000
   0.31976745  0.86046507 -0.31976745       0.000
   0.31395349  0.87209299 -0.31395349       0.000
   0.30813956  0.88372088 -0.30813956       0.000
   0.30232561  0.89534879 -0.30232561       0.000
   0.29651165  0.90697669 -0.29651165       0.000
   0.29069766  0.91860464 -0.29069766       0.000
   0.28488374  0.93023252 -0.28488374       0.000
   0.27906978  0.94186044 -0.27906978       0.000
   0.27325583  0.95348835 -0.27325583       0.000
   0.26744187  0.96511627 -0.26744187       0.000
   0.26162791  0.97674417 -0.26162791       0.000
   0.25581396  0.98837208 -0.25581396       0.000
   0.25000000  1.00000000 -0.25000000       0.000
   0.24000000  1.00000000 -0.26000000       0.000
   0.23000002  1.00000000 -0.26999998       0.000
   0.22000002  1.00000000 -0.27999998       0.000
   0.21000004  1.00000000 -0.28999996       0.000
   0.20000004  1.00000000 -0.29999996       0.000
   0.19000006  1.00000000 -0.30999994       0.000
   0.17999994  1.00000000 -0.32000006       0.000
   0.16999996  1.00000000 -0.33000004       0.000
   0.15999996  1.00000000 -0.34000004       0.000
   0.14999998  1.00000000 -0.35000002       0.000
   0.13999998  1.00000000 -0.36000002       0.000
   0.13000000  1.00000000 -0.37000000       0.000
   0.12000000  1.00000000 -0.38000000       0.000
   0.11000002  1.00000000 -0.38999998       0.000
   0.10000002  1.00000000 -0.39999998       0.000
   0.09000004  1.00000000 -0.40999996       0.000
   0.08000004  1.00000000 -0.41999996       0.000
   0.06999994  1.00000000 -0.43000006       0.000
   0.05999994  1.00000000 -0.44000006       0.000
   0.04999996  1.00000000 -0.45000004       0.000
   0.03999996  1.00000000 -0.46000004       0.000
   0.02999998  1.00000000 -0.47000002       0.000
   0.01999998  1.00000000 -0.48000002       0.000
   0.01000000  1.00000000 -0.49000000       0.000
   0.00000000  1.00000000 -0.50000000       0.000
   0.01000000  0.99000000 -0.50000000       0.000
   0.01999998  0.98000002 -0.50000000       0.000
   0.02999998  0.97000002 -0.50000000       0.000
   0.03999999  0.96000001 -0.50000003       0.000
   0.04999999  0.95000001 -0.50000003       0.000
   0.05999997  0.94000003 -0.50000003       0.000
   0.07000003  0.92999997 -0.49999997       0.000
   0.08000001  0.91999999 -0.49999997       0.000
   0.09000004  0.90999996 -0.50000000       0.000
   0.10000002  0.89999998 -0.50000000       0.000
   0.11000002  0.88999998 -0.50000000       0.000
   0.12000000  0.88000000 -0.50000000       0.000
   0.13000000  0.87000000 -0.50000000       0.000
   0.13999998  0.86000002 -0.50000000       0.000
   0.14999998  0.85000002 -0.50000000       0.000
   0.15999996  0.84000004 -0.50000000       0.000
   0.16999999  0.83000001 -0.50000003       0.000
   0.18000003  0.81999997 -0.49999997       0.000
   0.19000003  0.80999997 -0.49999997       0.000
   0.20000001  0.79999999 -0.49999997       0.000
   0.21000004  0.78999996 -0.50000000       0.000
   0.22000002  0.77999998 -0.50000000       0.000
   0.23000002  0.76999998 -0.50000000       0.000
   0.24000000  0.76000000 -0.50000000       0.000
   0.25000000  0.75000000 -0.50000000       0.000
   0.26000000  0.74000000 -0.50000000       0.000
   0.26999998  0.73000002 -0.50000000       0.000
   0.27999998  0.72000002 -0.50000000       0.000
   0.28999996  0.71000004 -0.50000000       0.000
   0.29999996  0.70000004 -0.50000000       0.000
   0.30999997  0.69000003 -0.50000003       0.000
   0.31999997  0.68000003 -0.50000003       0.000
   0.32999995  0.67000005 -0.50000003       0.000
   0.34000004  0.65999996 -0.50000000       0.000
   0.35000002  0.64999998 -0.50000000       0.000
   0.36000002  0.63999998 -0.50000000       0.000
   0.37000000  0.63000000 -0.50000000       0.000
   0.38000000  0.62000000 -0.50000000       0.000
   0.38999998  0.61000002 -0.50000000       0.000
   0.39999998  0.60000002 -0.50000000       0.000
   0.40999996  0.59000004 -0.50000000       0.000
   0.42000005  0.57999995 -0.49999997       0.000
   0.42999994  0.57000006 -0.50000000       0.000
   0.44000003  0.55999997 -0.49999997       0.000
   0.45000004  0.54999996 -0.50000000       0.000
   0.46000001  0.53999999 -0.49999997       0.000
   0.47000002  0.52999998 -0.50000000       0.000
   0.48000002  0.51999998 -0.50000000       0.000
   0.49000000  0.51000000 -0.50000000       0.000
   0.50000000  0.50000000 -0.50000000       0.000
   0.48837208  0.50581396 -0.50581396       0.000
   0.47674417  0.51162791 -0.51162791       0.000
   0.46511627  0.51744187 -0.51744187       0.000
   0.45348835  0.52325583 -0.52325583       0.000
   0.44186044  0.52906978 -0.52906978       0.000
   0.43023252  0.53488374 -0.53488374       0.000
   0.41860461  0.54069769 -0.54069769       0.000
   0.40697669  0.54651165 -0.54651165       0.000
   0.39534879  0.55232561 -0.55232561       0.000
   0.38372088  0.55813956 -0.55813956       0.000
   0.37209296  0.56395352 -0.56395352       0.000
   0.36046516  0.56976742 -0.56976742       0.000
   0.34883725  0.57558137 -0.57558137       0.000
   0.33720935  0.58139533 -0.58139533       0.000
   0.32558144  0.58720928 -0.58720928       0.000
   0.31395352  0.59302324 -0.59302324       0.000
   0.30232560  0.59883720 -0.59883720       0.000
   0.29069769  0.60465115 -0.60465115       0.000
   0.27906979  0.61046511 -0.61046511       0.000
   0.26744187  0.61627907 -0.61627907       0.000
   0.25581396  0.62209302 -0.62209302       0.000
   0.24418604  0.62790698 -0.62790698       0.000
   0.23255813  0.63372093 -0.63372093       0.000
   0.22093021  0.63953489 -0.63953489       0.000
   0.20930231  0.64534885 -0.64534885       0.000
   0.19767440  0.65116280 -0.65116280       0.000
   0.18604648  0.65697676 -0.65697676       0.000
   0.17441856  0.66279072 -0.66279072       0.000
   0.16279077  0.66860461 -0.66860461       0.000
   0.15116287  0.67441857 -0.67441857       0.000
   0.13953496  0.68023252 -0.68023252       0.000
   0.12790704  0.68604648 -0.68604648       0.000
   0.11627912  0.69186044 -0.69186044       0.000
   0.10465121  0.69767439 -0.69767439       0.000
   0.09302331  0.70348835 -0.70348835       0.000
   0.08139539  0.70930231 -0.70930231       0.000
   0.06976748  0.71511626 -0.71511626       0.000
   0.05813956  0.72093022 -0.72093022       0.000
   0.04651165  0.72674417 -0.72674417       0.000
   0.03488373  0.73255813 -0.73255813       0.000
   0.02325583  0.73837209 -0.73837209       0.000
   0.01162792  0.74418604 -0.74418604       0.000
 
 k-points in reciprocal lattice and weights: Automatically generated mesh            
   0.00000000  0.00000000  0.00000000       0.005
   0.16666667  0.00000000  0.00000000       0.037
   0.33333333  0.00000000  0.00000000       0.037
   0.50000000  0.00000000  0.00000000       0.019
   0.16666667  0.16666667  0.00000000       0.028
   0.33333333  0.16666667  0.00000000       0.111
   0.50000000  0.16666667  0.00000000       0.111
  -0.33333333  0.16666667  0.00000000       0.111
  -0.16666667  0.16666667  0.00000000       0.056
   0.33333333  0.33333333  0.00000000       0.028
   0.50000000  0.33333333  0.00000000       0.111
  -0.33333333  0.33333333  0.00000000       0.056
   0.50000000  0.50000000  0.00000000       0.014
   0.50000000  0.33333333  0.16666667       0.111
  -0.33333333  0.33333333  0.16666667       0.111
  -0.33333333  0.50000000  0.16666667       0.056
   0.00000000  0.00000000  0.00000000       0.000
   0.00500000  0.00000000  0.00500000       0.000
   0.01000000  0.00000000  0.01000000       0.000
   0.01500000  0.00000000  0.01500000       0.000
   0.02000000  0.00000000  0.02000000       0.000
   0.02500000  0.00000000  0.02500000       0.000
   0.03000000  0.00000000  0.03000000       0.000
   0.03500000  0.00000000  0.03500000       0.000
   0.04000000  0.00000000  0.04000000       0.000
   0.04500000  0.00000000  0.04500000       0.000
   0.05000000  0.00000000  0.05000000       0.000
   0.05500000  0.00000000  0.05500000       0.000
   0.06000000  0.00000000  0.06000000       0.000
   0.06500000  0.00000000  0.06500000       0.000
   0.07000000  0.00000000  0.07000000       0.000
   0.07500000  0.00000000  0.07500000       0.000
   0.08000000  0.00000000  0.08000000       0.000
   0.08500000  0.00000000  0.08500000       0.000
   0.09000000  0.00000000  0.09000000       0.000
   0.09500000  0.00000000  0.09500000       0.000
   0.09999999  0.00000000  0.09999999       0.000
   0.10500000  0.00000000  0.10500000       0.000
   0.11000000  0.00000000  0.11000000       0.000
   0.11499999  0.00000000  0.11499999       0.000
   0.12000000  0.00000000  0.12000000       0.000
   0.12500000  0.00000000  0.12500000       0.000
   0.13000000  0.00000000  0.13000000       0.000
   0.13499999  0.00000000  0.13499999       0.000
   0.14000000  0.00000000  0.14000000       0.000
   0.14500000  0.00000000  0.14500000       0.000
   0.14999999  0.00000000  0.14999999       0.000
   0.15500000  0.00000000  0.15500000       0.000
   0.16000000  0.00000000  0.16000000       0.000
   0.16499999  0.00000000  0.16499999       0.000
   0.17000000  0.00000000  0.17000000       0.000
   0.17500000  0.00000000  0.17500000       0.000
   0.18000001  0.00000000  0.18000001       0.000
   0.18499999  0.00000000  0.18499999       0.000
   0.19000000  0.00000000  0.19000000       0.000
   0.19500001  0.00000000  0.19500001       0.000
   0.19999999  0.00000000  0.19999999       0.000
   0.20500000  0.00000000  0.20500000       0.000
   0.21000001  0.00000000  0.21000001       0.000
   0.21499999  0.00000000  0.21499999       0.000
   0.22000000  0.00000000  0.22000000       0.000
   0.22500001  0.00000000  0.22500001       0.000
   0.22999999  0.00000000  0.22999999       0.000
   0.23500000  0.00000000  0.23500000       0.000
   0.24000001  0.00000000  0.24000001       0.000
   0.24499999  0.00000000  0.24499999       0.000
   0.25000000  0.00000000  0.25000000       0.000
   0.25500000  0.00000000  0.25500000       0.000
   0.25999999  0.00000000  0.25999999       0.000
   0.26499999  0.00000000  0.26499999       0.000
   0.26999998  0.00000000  0.26999998       0.000
   0.27500001  0.00000000  0.27500001       0.000
   0.28000000  0.00000000  0.28000000       0.000
   0.28500000  0.00000000  0.28500000       0.000
   0.28999999  0.00000000  0.28999999       0.000
   0.29499999  0.00000000  0.29499999       0.000
   0.29999998  0.00000000  0.29999998       0.000
   0.30500001  0.00000000  0.30500001       0.000
   0.31000000  0.00000000  0.31000000       0.000
   0.31500000  0.00000000  0.31500000       0.000
   0.31999999  0.00000000  0.31999999       0.000
   0.32499999  0.00000000  0.32499999       0.000
   0.32999998  0.00000000  0.32999998       0.000
   0.33500001  0.00000000  0.33500001       0.000
   0.34000000  0.00000000  0.34000000       0.000
   0.34500000  0.00000000  0.34500000       0.000
   0.34999999  0.00000000  0.34999999       0.000
   0.35499999  0.00000000  0.35499999       0.000
   0.36000001  0.00000000  0.36000001       0.000
   0.36499998  0.00000000  0.36499998       0.000
   0.36999997  0.00000000  0.36999997       0.000
   0.37500000  0.00000000  0.37500000       0.000
   0.38000000  0.00000000  0.38000000       0.000
   0.38499999  0.00000000  0.38499999       0.000
   0.39000002  0.00000000  0.39000002       0.000
   0.39499998  0.00000000  0.39499998       0.000
   0.39999998  0.00000000  0.39999998       0.000
   0.40500000  0.00000000  0.40500000       0.000
   0.41000000  0.00000000  0.41000000       0.000
   0.41499999  0.00000000  0.41499999       0.000
   0.42000002  0.00000000  0.42000002       0.000
   0.42499998  0.00000000  0.42499998       0.000
   0.42999998  0.00000000  0.42999998       0.000
   0.43500000  0.00000000  0.43500000       0.000
   0.44000000  0.00000000  0.44000000       0.000
   0.44499999  0.00000000  0.44499999       0.000
   0.45000002  0.00000000  0.45000002       0.000
   0.45499998  0.00000000  0.45499998       0.000
   0.45999998  0.00000000  0.45999998       0.000
   0.46500000  0.00000000  0.46500000       0.000
   0.47000000  0.00000000  0.47000000       0.000
   0.47499999  0.00000000  0.47499999       0.000
   0.48000002  0.00000000  0.48000002       0.000
   0.48499998  0.00000000  0.48499998       0.000
   0.48999998  0.00000000  0.48999998       0.000
   0.49500000  0.00000000  0.49500000       0.000
   0.50000000  0.00000000  0.50000000       0.000
   0.50000000  0.00500000  0.50500000       0.000
   0.50000000  0.01000000  0.50999999       0.000
   0.50000000  0.01500000  0.51499999       0.000
   0.50000000  0.02000000  0.51999998       0.000
   0.50000000  0.02500000  0.52499998       0.000
   0.50000000  0.03000000  0.52999997       0.000
   0.50000000  0.03500000  0.53500003       0.000
   0.50000000  0.04000000  0.54000002       0.000
   0.50000000  0.04500000  0.54500002       0.000
   0.50000000  0.05000000  0.55000001       0.000
   0.50000000  0.05500000  0.55500001       0.000
   0.50000000  0.06000000  0.56000000       0.000
   0.50000000  0.06500000  0.56500000       0.000
   0.50000000  0.07000000  0.56999999       0.000
   0.50000000  0.07500000  0.57499999       0.000
   0.50000000  0.08000000  0.57999998       0.000
   0.50000000  0.08500000  0.58499998       0.000
   0.50000000  0.09000000  0.59000003       0.000
   0.50000000  0.09500000  0.59500003       0.000
   0.50000000  0.09999999  0.60000002       0.000
   0.50000000  0.10500000  0.60500002       0.000
   0.50000000  0.11000000  0.61000001       0.000
   0.50000000  0.11499999  0.61500001       0.000
   0.50000000  0.12000000  0.62000000       0.000
   0.50000000  0.12500000  0.62500000       0.000
   0.50000000  0.13000000  0.63000000       0.000
   0.50000000  0.13499999  0.63499999       0.000
   0.50000000  0.14000000  0.63999999       0.000
   0.50000000  0.14500000  0.64499998       0.000
   0.50000000  0.14999999  0.64999998       0.000
   0.50000000  0.15500000  0.65499997       0.000
   0.50000000  0.16000000  0.65999997       0.000
   0.50000000  0.16499999  0.66499996       0.000
   0.50000000  0.17000000  0.67000002       0.000
   0.50000000  0.17500000  0.67500001       0.000
   0.50000000  0.18000001  0.68000001       0.000
   0.50000000  0.18499999  0.68500000       0.000
   0.50000000  0.19000000  0.69000000       0.000
   0.50000000  0.19500001  0.69499999       0.000
   0.50000000  0.19999999  0.69999999       0.000
   0.50000000  0.20500000  0.70499998       0.000
   0.50000000  0.21000001  0.71000004       0.000
   0.50000000  0.21499999  0.71499997       0.000
   0.50000000  0.22000000  0.72000003       0.000
   0.50000000  0.22500001  0.72500002       0.000
   0.50000000  0.22999999  0.73000002       0.000
   0.50000000  0.23500000  0.73500001       0.000
   0.50000000  0.24000001  0.74000001       0.000
   0.50000000  0.24499999  0.74500000       0.000
   0.50000000  0.25000000  0.75000000       0.000
   0.49500000  0.25500000  0.75000000       0.000
   0.49000001  0.25999999  0.75000000       0.000
   0.48500001  0.26499999  0.75000000       0.000
   0.47999999  0.27000001  0.75000000       0.000
   0.47499999  0.27500001  0.75000000       0.000
   0.47000000  0.28000000  0.75000000       0.000
   0.46500000  0.28500000  0.75000000       0.000
   0.46000001  0.28999999  0.75000000       0.000
   0.45499998  0.29500002  0.75000000       0.000
   0.44999999  0.30000001  0.75000000       0.000
   0.44499999  0.30500001  0.75000000       0.000
   0.44000000  0.31000000  0.75000000       0.000
   0.43500000  0.31500000  0.75000000       0.000
   0.43000001  0.31999999  0.75000000       0.000
   0.42500001  0.32499999  0.75000000       0.000
   0.42000002  0.32999998  0.75000000       0.000
   0.41499999  0.33500001  0.75000000       0.000
   0.41000000  0.34000000  0.75000000       0.000
   0.40500000  0.34500000  0.75000000       0.000
   0.40000001  0.34999999  0.75000000       0.000
   0.39499998  0.35500002  0.75000000       0.000
   0.38999999  0.36000001  0.75000000       0.000
   0.38499999  0.36500001  0.75000000       0.000
   0.38000000  0.37000000  0.75000000       0.000
   0.37500000  0.37500000  0.75000000       0.000
   0.37209302  0.37209302  0.74418604       0.000
   0.36918604  0.36918604  0.73837209       0.000
   0.36627907  0.36627907  0.73255813       0.000
   0.36337209  0.36337209  0.72674417       0.000
   0.36046511  0.36046511  0.72093022       0.000
   0.35755813  0.35755813  0.71511626       0.000
   0.35465115  0.35465115  0.70930231       0.000
   0.35174417  0.35174417  0.70348835       0.000
   0.34883720  0.34883720  0.69767439       0.000
   0.34593022  0.34593022  0.69186044       0.000
   0.34302324  0.34302324  0.68604648       0.000
   0.34011626  0.34011626  0.68023252       0.000
   0.33720928  0.33720928  0.67441857       0.000
   0.33430234  0.33430234  0.66860467       0.000
   0.33139536  0.33139536  0.66279072       0.000
   0.32848838  0.32848838  0.65697676       0.000
   0.32558140  0.32558140  0.65116280       0.000
   0.32267442  0.32267442  0.64534885       0.000
   0.31976745  0.31976745  0.63953489       0.000
   0.31686047  0.31686047  0.63372093       0.000
   0.31395349  0.31395349  0.62790698       0.000
   0.31104651  0.31104651  0.62209302       0.000
   0.30813953  0.30813953  0.61627907       0.000
   0.30523255  0.30523255  0.61046511       0.000
   0.30232558  0.30232558  0.60465115       0.000
   0.29941860  0.29941860  0.59883720       0.000
   0.29651162  0.29651162  0.59302324       0.000
   0.29360464  0.29360464  0.58720928       0.000
   0.29069766  0.29069766  0.58139533       0.000
   0.28779069  0.28779069  0.57558137       0.000
   0.28488371  0.28488371  0.56976742       0.000
   0.28197676  0.28197676  0.56395352       0.000
   0.27906978  0.27906978  0.55813956       0.000
   0.27616280  0.27616280  0.55232561       0.000
   0.27325583  0.27325583  0.54651165       0.000
   0.27034885  0.27034885  0.54069769       0.000
   0.26744187  0.26744187  0.53488374       0.000
   0.26453489  0.26453489  0.52906978       0.000
   0.26162791  0.26162791  0.52325583       0.000
   0.25872093  0.25872093  0.51744187       0.000
   0.25581396  0.25581396  0.51162791       0.000
   0.25290698  0.25290698  0.50581396       0.000
   0.25000000  0.25000000  0.50000000       0.000
   0.24709302  0.24709302  0.49418604       0.000
   0.24418604  0.24418604  0.48837209       0.000
   0.24127907  0.24127907  0.48255813       0.000
   0.23837209  0.23837209  0.47674417       0.000
   0.23546511  0.23546511  0.47093022       0.000
   0.23255813  0.23255813  0.46511626       0.000
   0.22965115  0.22965115  0.45930231       0.000
   0.22674417  0.22674417  0.45348835       0.000
   0.22383720  0.22383720  0.44767439       0.000
   0.22093023  0.22093023  0.44186047       0.000
   0.21802326  0.21802326  0.43604651       0.000
   0.21511628  0.21511628  0.43023255       0.000
   0.21220930  0.21220930  0.42441860       0.000
   0.20930232  0.20930232  0.41860464       0.000
   0.20639534  0.20639534  0.41279069       0.000
   0.20348836  0.20348836  0.40697673       0.000
   0.20058139  0.20058139  0.40116277       0.000
   0.19767441  0.19767441  0.39534882       0.000
   0.19476743  0.19476743  0.38953486       0.000
   0.19186047  0.19186047  0.38372093       0.000
   0.18895349  0.18895349  0.37790698       0.000
   0.18604651  0.18604651  0.37209302       0.000
   0.18313953  0.18313953  0.36627907       0.000
   0.18023255  0.18023255  0.36046511       0.000
   0.17732558  0.17732558  0.35465115       0.000
   0.17441860  0.17441860  0.34883720       0.000
   0.17151162  0.17151162  0.34302324       0.000
   0.16860464  0.16860464  0.33720928       0.000
   0.16569768  0.16569768  0.33139536       0.000
   0.16279070  0.16279070  0.32558140       0.000
   0.15988372  0.15988372  0.31976745       0.000
   0.15697674  0.15697674  0.31395349       0.000
   0.15406977  0.15406977  0.30813953       0.000
   0.15116279  0.15116279  0.30232558       0.000
   0.14825581  0.14825581  0.29651162       0.000
   0.14534883  0.14534883  0.29069766       0.000
   0.14244185  0.14244185  0.28488371       0.000
   0.13953488  0.13953488  0.27906975       0.000
   0.13662791  0.13662791  0.27325583       0.000
   0.13372093  0.13372093  0.26744187       0.000
   0.13081396  0.13081396  0.26162791       0.000
   0.12790698  0.12790698  0.25581396       0.000
   0.12500000  0.12500000  0.25000000       0.000
   0.12209302  0.12209302  0.24418604       0.000
   0.11918604  0.11918604  0.23837209       0.000
   0.11627907  0.11627907  0.23255813       0.000
   0.11337209  0.11337209  0.22674417       0.000
   0.11046511  0.11046511  0.22093022       0.000
   0.10755813  0.10755813  0.21511626       0.000
   0.10465115  0.10465115  0.20930231       0.000
   0.10174417  0.10174417  0.20348835       0.000
   0.09883720  0.09883720  0.19767439       0.000
   0.09593022  0.09593022  0.19186044       0.000
   0.09302324  0.09302324  0.18604648       0.000
   0.09011626  0.09011626  0.18023252       0.000
   0.08720928  0.08720928  0.17441857       0.000
   0.08430231  0.08430231  0.16860461       0.000
   0.08139533  0.08139533  0.16279066       0.000
   0.07848835  0.07848835  0.15697670       0.000
   0.07558137  0.07558137  0.15116274       0.000
   0.07267439  0.07267439  0.14534879       0.000
   0.06976742  0.06976742  0.13953483       0.000
   0.06686047  0.06686047  0.13372093       0.000
   0.06395349  0.06395349  0.12790698       0.000
   0.06104651  0.06104651  0.12209302       0.000
   0.05813953  0.05813953  0.11627907       0.000
   0.05523255  0.05523255  0.11046511       0.000
   0.05232558  0.05232558  0.10465115       0.000
   0.04941860  0.04941860  0.09883720       0.000
   0.04651162  0.04651162  0.09302324       0.000
   0.04360464  0.04360464  0.08720928       0.000
   0.04069766  0.04069766  0.08139533       0.000
   0.03779069  0.03779069  0.07558137       0.000
   0.03488371  0.03488371  0.06976742       0.000
   0.03197673  0.03197673  0.06395346       0.000
   0.02906975  0.02906975  0.05813950       0.000
   0.02616277  0.02616277  0.05232555       0.000
   0.02325580  0.02325580  0.04651159       0.000
   0.02034882  0.02034882  0.04069763       0.000
   0.01744184  0.01744184  0.03488368       0.000
   0.01453486  0.01453486  0.02906972       0.000
   0.01162791  0.01162791  0.02325583       0.000
   0.00872093  0.00872093  0.01744187       0.000
   0.00581396  0.00581396  0.01162791       0.000
   0.00290698  0.00290698  0.00581396       0.000
   0.00000000  0.00000000  0.00000000       0.000
   0.00409836  0.00409836  0.00409836       0.000
   0.00819672  0.00819672  0.00819672       0.000
   0.01229508  0.01229508  0.01229508       0.000
   0.01639344  0.01639344  0.01639344       0.000
   0.02049180  0.02049180  0.02049180       0.000
   0.02459016  0.02459016  0.02459016       0.000
   0.02868852  0.02868852  0.02868852       0.000
   0.03278688  0.03278688  0.03278688       0.000
   0.03688525  0.03688525  0.03688525       0.000
   0.04098361  0.04098361  0.04098361       0.000
   0.04508197  0.04508197  0.04508197       0.000
   0.04918033  0.04918033  0.04918033       0.000
   0.05327869  0.05327869  0.05327869       0.000
   0.05737704  0.05737704  0.05737704       0.000
   0.06147541  0.06147541  0.06147541       0.000
   0.06557377  0.06557377  0.06557377       0.000
   0.06967213  0.06967213  0.06967213       0.000
   0.07377049  0.07377049  0.07377049       0.000
   0.07786886  0.07786886  0.07786886       0.000
   0.08196721  0.08196721  0.08196721       0.000
   0.08606557  0.08606557  0.08606557       0.000
   0.09016393  0.09016393  0.09016393       0.000
   0.09426229  0.09426229  0.09426229       0.000
   0.09836065  0.09836065  0.09836065       0.000
   0.10245901  0.10245901  0.10245901       0.000
   0.10655738  0.10655738  0.10655738       0.000
   0.11065574  0.11065574  0.11065574       0.000
   0.11475409  0.11475409  0.11475409       0.000
   0.11885245  0.11885245  0.11885245       0.000
   0.12295081  0.12295081  0.12295081       0.000
   0.12704918  0.12704918  0.12704918       0.000
   0.13114753  0.13114753  0.13114753       0.000
   0.13524590  0.13524590  0.13524590       0.000
   0.13934426  0.13934426  0.13934426       0.000
   0.14344262  0.14344262  0.14344262       0.000
   0.14754099  0.14754099  0.14754099       0.000
   0.15163934  0.15163934  0.15163934       0.000
   0.15573771  0.15573771  0.15573771       0.000
   0.15983605  0.15983605  0.15983605       0.000
   0.16393442  0.16393442  0.16393442       0.000
   0.16803278  0.16803278  0.16803278       0.000
   0.17213114  0.17213114  0.17213114       0.000
   0.17622951  0.17622951  0.17622951       0.000
   0.18032786  0.18032786  0.18032786       0.000
   0.18442623  0.18442623  0.18442623       0.000
   0.18852459  0.18852459  0.18852459       0.000
   0.19262296  0.19262296  0.19262296       0.000
   0.19672130  0.19672130  0.19672130       0.000
   0.20081966  0.20081966  0.20081966       0.000
   0.20491803  0.20491803  0.20491803       0.000
   0.20901638  0.20901638  0.20901638       0.000
   0.21311475  0.21311475  0.21311475       0.000
   0.21721311  0.21721311  0.21721311       0.000
   0.22131148  0.22131148  0.22131148       0.000
   0.22540984  0.22540984  0.22540984       0.000
   0.22950818  0.22950818  0.22950818       0.000
   0.23360655  0.23360655  0.23360655       0.000
   0.23770490  0.23770490  0.23770490       0.000
   0.24180327  0.24180327  0.24180327       0.000
   0.24590163  0.24590163  0.24590163       0.000
   0.25000000  0.25000000  0.25000000       0.000
   0.25409836  0.25409836  0.25409836       0.000
   0.25819671  0.25819671  0.25819671       0.000
   0.26229507  0.26229507  0.26229507       0.000
   0.26639342  0.26639342  0.26639342       0.000
   0.27049181  0.27049181  0.27049181       0.000
   0.27459016  0.27459016  0.27459016       0.000
   0.27868852  0.27868852  0.27868852       0.000
   0.28278688  0.28278688  0.28278688       0.000
   0.28688523  0.28688523  0.28688523       0.000
   0.29098362  0.29098362  0.29098362       0.000
   0.29508197  0.29508197  0.29508197       0.000
   0.29918033  0.29918033  0.29918033       0.000
   0.30327868  0.30327868  0.30327868       0.000
   0.30737704  0.30737704  0.30737704       0.000
   0.31147543  0.31147543  0.31147543       0.000
   0.31557378  0.31557378  0.31557378       0.000
   0.31967211  0.31967211  0.31967211       0.000
   0.32377046  0.32377046  0.32377046       0.000
   0.32786885  0.32786885  0.32786885       0.000
   0.33196720  0.33196720  0.33196720       0.000
   0.33606556  0.33606556  0.33606556       0.000
   0.34016392  0.34016392  0.34016392       0.000
   0.34426227  0.34426227  0.34426227       0.000
   0.34836066  0.34836066  0.34836066       0.000
   0.35245901  0.35245901  0.35245901       0.000
   0.35655737  0.35655737  0.35655737       0.000
   0.36065573  0.36065573  0.36065573       0.000
   0.36475408  0.36475408  0.36475408       0.000
   0.36885247  0.36885247  0.36885247       0.000
   0.37295082  0.37295082  0.37295082       0.000
   0.37704918  0.37704918  0.37704918       0.000
   0.38114753  0.38114753  0.38114753       0.000
   0.38524592  0.38524592  0.38524592       0.000
   0.38934427  0.38934427  0.38934427       0.000
   0.39344260  0.39344260  0.39344260       0.000
   0.39754096  0.39754096  0.39754096       0.000
   0.40163931  0.40163931  0.40163931       0.000
   0.40573770  0.40573770  0.40573770       0.000
   0.40983605  0.40983605  0.40983605       0.000
   0.41393441  0.41393441  0.41393441       0.000
   0.41803277  0.41803277  0.41803277       0.000
   0.42213115  0.42213115  0.42213115       0.000
   0.42622951  0.42622951  0.42622951       0.000
   0.43032786  0.43032786  0.43032786       0.000
   0.43442622  0.43442622  0.43442622       0.000
   0.43852457  0.43852457  0.43852457       0.000
   0.44262296  0.44262296  0.44262296       0.000
   0.44672132  0.44672132  0.44672132       0.000
   0.45081967  0.45081967  0.45081967       0.000
   0.45491803  0.45491803  0.45491803       0.000
   0.45901635  0.45901635  0.45901635       0.000
   0.46311477  0.46311477  0.46311477       0.000
   0.46721309  0.46721309  0.46721309       0.000
   0.47131145  0.47131145  0.47131145       0.000
   0.47540981  0.47540981  0.47540981       0.000
   0.47950819  0.47950819  0.47950819       0.000
   0.48360655  0.48360655  0.48360655       0.000
   0.48770490  0.48770490  0.48770490       0.000
   0.49180326  0.49180326  0.49180326       0.000
   0.49590161  0.49590161  0.49590161       0.000
   0.50000000  0.50000000  0.50000000       0.000
   0.50290698  0.49418604  0.50290698       0.000
   0.50581396  0.48837209  0.50581396       0.000
   0.50872093  0.48255813  0.50872093       0.000
   0.51162791  0.47674417  0.51162791       0.000
   0.51453489  0.47093022  0.51453489       0.000
   0.51744187  0.46511629  0.51744187       0.000
   0.52034885  0.45930234  0.52034885       0.000
   0.52325583  0.45348838  0.52325583       0.000
   0.52616280  0.44767442  0.52616280       0.000
   0.52906978  0.44186047  0.52906978       0.000
   0.53197676  0.43604651  0.53197676       0.000
   0.53488374  0.43023255  0.53488374       0.000
   0.53779072  0.42441860  0.53779072       0.000
   0.54069769  0.41860464  0.54069769       0.000
   0.54360467  0.41279072  0.54360467       0.000
   0.54651165  0.40697676  0.54651165       0.000
   0.54941863  0.40116280  0.54941863       0.000
   0.55232561  0.39534885  0.55232561       0.000
   0.55523258  0.38953489  0.55523258       0.000
   0.55813956  0.38372093  0.55813956       0.000
   0.56104648  0.37790698  0.56104648       0.000
   0.56395352  0.37209302  0.56395352       0.000
   0.56686044  0.36627907  0.56686044       0.000
   0.56976742  0.36046511  0.56976742       0.000
   0.57267439  0.35465115  0.57267439       0.000
   0.57558137  0.34883720  0.57558137       0.000
   0.57848835  0.34302324  0.57848835       0.000
   0.58139533  0.33720928  0.58139533       0.000
   0.58430231  0.33139536  0.58430231       0.000
   0.58720928  0.32558140  0.58720928       0.000
   0.59011626  0.31976745  0.59011626       0.000
   0.59302324  0.31395349  0.59302324       0.000
   0.59593022  0.30813956  0.59593022       0.000
   0.59883720  0.30232561  0.59883720       0.000
   0.60174417  0.29651165  0.60174417       0.000
   0.60465115  0.29069766  0.60465115       0.000
   0.60755813  0.28488374  0.60755813       0.000
   0.61046511  0.27906978  0.61046511       0.000
   0.61337209  0.27325583  0.61337209       0.000
   0.61627907  0.26744187  0.61627907       0.000
   0.61918604  0.26162791  0.61918604       0.000
   0.62209302  0.25581396  0.62209302       0.000
   0.62500000  0.25000000  0.62500000       0.000
   0.62000000  0.25000000  0.63000000       0.000
   0.61500001  0.25000000  0.63499999       0.000
   0.61000001  0.25000000  0.63999999       0.000
   0.60500002  0.25000000  0.64499998       0.000
   0.60000002  0.25000000  0.64999998       0.000
   0.59500003  0.25000000  0.65499997       0.000
   0.58999997  0.25000000  0.66000003       0.000
   0.58499998  0.25000000  0.66500002       0.000
   0.57999998  0.25000000  0.67000002       0.000
   0.57499999  0.25000000  0.67500001       0.000
   0.56999999  0.25000000  0.68000001       0.000
   0.56500000  0.25000000  0.68500000       0.000
   0.56000000  0.25000000  0.69000000       0.000
   0.55500001  0.25000000  0.69499999       0.000
   0.55000001  0.25000000  0.69999999       0.000
   0.54500002  0.25000000  0.70499998       0.000
   0.54000002  0.25000000  0.70999998       0.000
   0.53499997  0.25000000  0.71500003       0.000
   0.52999997  0.25000000  0.72000003       0.000
   0.52499998  0.25000000  0.72500002       0.000
   0.51999998  0.25000000  0.73000002       0.000
   0.51499999  0.25000000  0.73500001       0.000
   0.50999999  0.25000000  0.74000001       0.000
   0.50500000  0.25000000  0.74500000       0.000
   0.50000000  0.25000000  0.75000000       0.000
   0.50000000  0.25500000  0.74500000       0.000
   0.50000000  0.25999999  0.74000001       0.000
   0.50000000  0.26499999  0.73500001       0.000
   0.50000000  0.27000001  0.73000002       0.000
   0.50000000  0.27500001  0.72500002       0.000
   0.50000000  0.28000000  0.72000003       0.000
   0.50000000  0.28500000  0.71499997       0.000
   0.50000000  0.28999999  0.70999998       0.000
   0.50000000  0.29500002  0.70499998       0.000
   0.50000000  0.30000001  0.69999999       0.000
   0.50000000  0.30500001  0.69499999       0.000
   0.50000000  0.31000000  0.69000000       0.000
   0.50000000  0.31500000  0.68500000       0.000
   0.50000000  0.31999999  0.68000001       0.000
   0.50000000  0.32499999  0.67500001       0.000
   0.50000000  0.32999998  0.67000002       0.000
   0.50000000  0.33500001  0.66500002       0.000
   0.50000000  0.34000000  0.65999997       0.000
   0.50000000  0.34500000  0.65499997       0.000
   0.50000000  0.34999999  0.64999998       0.000
[...]
  band No.  band energies     occupation 
      1      -8.8828      2.00000
      2      -6.9068      2.00000
      3      -6.8953      2.00000
      4      -6.7760      2.00000
      5      -6.7517      2.00000
      6      -6.2207      2.00000
      7      -2.2240      2.00000
      8      -0.2320      2.00000
      9       0.7767      2.00000
     10       4.9550      0.00000
     11       6.8364      0.00000
     12       8.3665      0.00000
     13       8.6187      0.00000
     14      10.2713      0.00000
     15      11.5261      0.00000
     16      12.6724      0.00000

 k-point   589 :       0.4186    0.4186    0.6628
  band No.  band energies     occupation 
      1      -8.8802      2.00000
      2      -6.9053      2.00000
      3      -6.8933      2.00000
      4      -6.7774      2.00000
      5      -6.7515      2.00000
      6      -6.2134      2.00000
      7      -2.2168      2.00000
      8      -0.2802      2.00000
      9       0.7534      2.00000
     10       4.9636      0.00000
     11       6.8560      0.00000
     12       8.4406      0.00000
     13       8.6001      0.00000
     14      10.2158      0.00000
     15      11.5059      0.00000
     16      12.8067      0.00000

 k-point   590 :       0.4157    0.4157    0.6686
  band No.  band energies     occupation 
      1      -8.8778      2.00000
      2      -6.9039      2.00000
      3      -6.8913      2.00000
      4      -6.7788      2.00000
      5      -6.7514      2.00000
      6      -6.2062      2.00000
      7      -2.2105      2.00000
      8      -0.3250      2.00000
      9       0.7304      2.00000
     10       4.9681      0.00000
     11       6.8727      0.00000
     12       8.5152      0.00000
     13       8.5902      0.00000
     14      10.1608      0.00000
     15      11.4882      0.00000
     16      12.9443      0.00000

 k-point   591 :       0.4128    0.4128    0.6744
  band No.  band energies     occupation 
      1      -8.8754      2.00000
      2      -6.9025      2.00000
      3      -6.8894      2.00000
      4      -6.7801      2.00000
      5      -6.7512      2.00000
      6      -6.1991      2.00000
      7      -2.2052      2.00000
      8      -0.3662      2.00000
      9       0.7076      2.00000
     10       4.9690      0.00000
     11       6.8847      0.00000
     12       8.5900      0.00000
     13       8.5901      0.00000
     14      10.1065      0.00000
     15      11.4730      0.00000
     16      13.0842      0.00000

 k-point   592 :       0.4099    0.4099    0.6802
  band No.  band energies     occupation 
      1      -8.8730      2.00000
      2      -6.9011      2.00000
      3      -6.8875      2.00000
      4      -6.7815      2.00000
      5      -6.7510      2.00000
      6      -6.1921      2.00000
      7      -2.2009      2.00000
      8      -0.4037      2.00000
      9       0.6852      2.00000
     10       4.9668      0.00000
     11       6.8908      0.00000
     12       8.6007      0.00000
     13       8.6649      0.00000
     14      10.0533      0.00000
     15      11.4606      0.00000
     16      13.2258      0.00000

 k-point   593 :       0.4070    0.4070    0.6860
  band No.  band energies     occupation 
      1      -8.8707      2.00000
      2      -6.8997      2.00000
      3      -6.8856      2.00000
      4      -6.7829      2.00000
      5      -6.7507      2.00000
      6      -6.1853      2.00000
      7      -2.1978      2.00000
      8      -0.4373      2.00000
      9       0.6633      2.00000
     10       4.9621      0.00000
     11       6.8898      0.00000
     12       8.6226      0.00000
     13       8.7393      0.00000
     14      10.0013      0.00000
     15      11.4513      0.00000
     16      13.3680      0.00000

 k-point   594 :       0.4041    0.4041    0.6919
  band No.  band energies     occupation 
      1      -8.8686      2.00000
      2      -6.8984      2.00000
      3      -6.8838      2.00000
      4      -6.7842      2.00000
      5      -6.7504      2.00000
      6      -6.1787      2.00000
      7      -2.1958      2.00000
      8      -0.4669      2.00000
      9       0.6418      2.00000
     10       4.9552      0.00000
     11       6.8812      0.00000
     12       8.6560      0.00000
     13       8.8132      0.00000
     14       9.9506      0.00000
     15      11.4453      0.00000
     16      13.5097      0.00000

 k-point   595 :       0.4012    0.4012    0.6977
  band No.  band energies     occupation 
      1      -8.8665      2.00000
      2      -6.8970      2.00000
      3      -6.8820      2.00000
      4      -6.7855      2.00000
      5      -6.7501      2.00000
      6      -6.1725      2.00000
      7      -2.1950      2.00000
      8      -0.4923      2.00000
      9       0.6209      2.00000
     10       4.9468      0.00000
     11       6.8649      0.00000
     12       8.7004      0.00000
     13       8.8860      0.00000
     14       9.9016      0.00000
     15      11.4429      0.00000
     16      13.6492      0.00000

 k-point   596 :       0.3983    0.3983    0.7035
  band No.  band energies     occupation 
      1      -8.8645      2.00000
      2      -6.8957      2.00000
      3      -6.8803      2.00000
      4      -6.7868      2.00000
      5      -6.7498      2.00000
      6      -6.1666      2.00000
      7      -2.1953      2.00000
      8      -0.5135      2.00000
      9       0.6005      2.00000
     10       4.9371      0.00000
     11       6.8410      0.00000
     12       8.7550      0.00000
     13       8.9575      0.00000
     14       9.8544      0.00000
     15      11.4444      0.00000
     16      13.7842      0.00000

 k-point   597 :       0.3953    0.3953    0.7093
  band No.  band energies     occupation 
      1      -8.8627      2.00000
      2      -6.8945      2.00000
      3      -6.8787      2.00000
      4      -6.7881      2.00000
      5      -6.7495      2.00000
      6      -6.1610      2.00000
      7      -2.1967      2.00000
      8      -0.5305      2.00000
      9       0.5808      2.00000
     10       4.9264      0.00000
     11       6.8103      0.00000
     12       8.8186      0.00000
     13       9.0272      0.00000
     14       9.8095      0.00000
     15      11.4500      0.00000
     16      13.9114      0.00000

 k-point   598 :       0.3924    0.3924    0.7151
  band No.  band energies     occupation 
      1      -8.8610      2.00000
      2      -6.8933      2.00000
      3      -6.8772      2.00000
      4      -6.7894      2.00000
      5      -6.7491      2.00000
      6      -6.1560      2.00000
      7      -2.1991      2.00000
      8      -0.5433      2.00000
      9       0.5618      2.00000
     10       4.9152      0.00000
     11       6.7735      0.00000
     12       8.8896      0.00000
     13       9.0948      0.00000
     14       9.7675      0.00000
     15      11.4601      0.00000
     16      14.0258      0.00000

 k-point   599 :       0.3895    0.3895    0.7209
  band No.  band energies     occupation 
      1      -8.8595      2.00000
      2      -6.8921      2.00000
      3      -6.8757      2.00000
      4      -6.7906      2.00000
      5      -6.7486      2.00000
      6      -6.1514      2.00000
      7      -2.2023      2.00000
      8      -0.5519      2.00000
      9       0.5435      2.00000
     10       4.9035      0.00000
     11       6.7315      0.00000
     12       8.9658      0.00000
     13       9.1598      0.00000
     14       9.7293      0.00000
     15      11.4750      0.00000
     16      14.1220      0.00000

 k-point   600 :       0.3866    0.3866    0.7267
  band No.  band energies     occupation 
      1      -8.8581      2.00000
      2      -6.8910      2.00000
      3      -6.8744      2.00000
      4      -6.7919      2.00000
      5      -6.7482      2.00000
      6      -6.1475      2.00000
      7      -2.2062      2.00000
      8      -0.5565      2.00000
      9       0.5260      2.00000
     10       4.8918      0.00000
     11       6.6850      0.00000
     12       9.0447      0.00000
     13       9.2219      0.00000
     14       9.6965      0.00000
     15      11.4949      0.00000
     16      14.1949      0.00000

 k-point   601 :       0.3837    0.3837    0.7326
  band No.  band energies     occupation 
      1      -8.8568      2.00000
      2      -6.8899      2.00000
      3      -6.8731      2.00000
      4      -6.7931      2.00000
      5      -6.7477      2.00000
      6      -6.1441      2.00000
      7      -2.2105      2.00000
      8      -0.5572      2.00000
      9       0.5093      2.00000
     10       4.8801      0.00000
     11       6.6350      0.00000
     12       9.1221      0.00000
     13       9.2806      0.00000
     14       9.6721      0.00000
     15      11.5203      0.00000
     16      14.2424      0.00000

 k-point   602 :       0.3808    0.3808    0.7384
  band No.  band energies     occupation 
      1      -8.8558      2.00000
      2      -6.8889      2.00000
      3      -6.8720      2.00000
      4      -6.7943      2.00000
      5      -6.7472      2.00000
      6      -6.1414      2.00000
      7      -2.2151      2.00000
      8      -0.5542      2.00000
      9       0.4935      2.00000
     10       4.8686      0.00000
     11       6.5820      0.00000
     12       9.1919      0.00000
     13       9.3358      0.00000
     14       9.6614      0.00000
     15      11.5512      0.00000
     16      14.2660      0.00000

 k-point   603 :       0.3779    0.3779    0.7442
  band No.  band energies     occupation 
      1      -8.8549      2.00000
      2      -6.8880      2.00000
      3      -6.8709      2.00000
      4      -6.7955      2.00000
      5      -6.7467      2.00000
      6      -6.1395      2.00000
      7      -2.2197      2.00000
      8      -0.5476      2.00000
      9       0.4785      2.00000
     10       4.8575      0.00000
     11       6.5268      0.00000
     12       9.2453      0.00000
     13       9.3869      0.00000
     14       9.6723      0.00000
     15      11.5879      0.00000
     16      14.2687      0.00000


--------------------------------------------------------------------------------------------------------


 soft charge-density along one line, spin component           1
         0         1         2         3         4         5         6         7         8         9
 total charge-density along one line
 
 pseudopotential strength for first ion, spin component:           1
-18.577  -0.000  -0.000  -0.000  -0.000   0.828   0.000   0.000
 -0.000 -18.577  -0.000   0.000   0.000   0.000   0.828   0.000
 -0.000  -0.000 -18.574  -0.000  -0.000   0.000   0.000   0.828
 -0.000   0.000  -0.000 -18.577  -0.000   0.000  -0.000   0.000
 -0.000   0.000  -0.000  -0.000 -18.574   0.000  -0.000   0.000
  0.828   0.000   0.000   0.000   0.000   0.416  -0.000  -0.000
  0.000   0.828   0.000  -0.000  -0.000  -0.000   0.416  -0.000
  0.000   0.000   0.828   0.000   0.000  -0.000  -0.000   0.416
  0.000  -0.000   0.000   0.828   0.000  -0.000   0.000  -0.000
  0.000  -0.000   0.000   0.000   0.828  -0.000   0.000  -0.000
 -0.000   0.000  -0.000   0.000  -0.000   0.000  -0.000  -0.000
  0.000  -0.000   0.000  -0.000   0.000  -0.000   0.000  -0.000
 -0.000   0.000   0.000  -0.001   0.000   0.000  -0.000  -0.000
 -0.001  -0.000   0.000  -0.000  -0.000   0.000   0.000  -0.000
 -0.000  -0.001   0.000   0.000  -0.000   0.000   0.000  -0.000
  0.000  -0.000  -0.000   0.001  -0.000  -0.000   0.000   0.000
  0.001   0.000  -0.000   0.000   0.000  -0.000  -0.000   0.000
  0.000   0.001  -0.000  -0.000   0.000  -0.000  -0.000   0.000
 total augmentation occupancy for first ion, spin component:           1
  2.000   0.000   0.000   0.000   0.000   0.000   0.000   0.000   0.000   0.000   0.000   0.000   0.000   0.000   0.000   0.000
  0.000   2.000   0.000   0.000   0.000   0.000   0.000   0.000   0.000   0.000   0.000   0.000   0.000   0.000   0.000   0.000
  0.000   0.000   2.000   0.000   0.000   0.000   0.000   0.000   0.000   0.000   0.000   0.000   0.000   0.000   0.000   0.000
  0.000   0.000   0.000   2.000   0.000   0.000   0.000   0.000   0.000   0.000   0.000   0.000   0.000   0.000   0.000   0.000
  0.000   0.000   0.000   0.000   2.000   0.000   0.000   0.000   0.000   0.000   0.000   0.000   0.000   0.000   0.000   0.000
  0.000   0.000   0.000   0.000   0.000   0.000   0.000   0.000   0.000   0.000   0.000   0.000   0.000   0.000   0.000   0.000
  0.000   0.000   0.000   0.000   0.000   0.000   0.000   0.000   0.000   0.000   0.000   0.000   0.000   0.000   0.000   0.000
  0.000   0.000   0.000   0.000   0.000   0.000   0.000   0.000   0.000   0.000   0.000   0.000   0.000   0.000   0.000   0.000
  0.000   0.000   0.000   0.000   0.000   0.000   0.000   0.000   0.000   0.000   0.000   0.000   0.000   0.000   0.000   0.000
  0.000   0.000   0.000   0.000   0.000   0.000   0.000   0.000   0.000   0.000   0.000   0.000   0.000   0.000   0.000   0.000
  0.000   0.000   0.000   0.000   0.000   0.000   0.000   0.000   0.000   0.000   2.000   0.000   0.000   0.000   0.000   0.000
  0.000   0.000   0.000   0.000   0.000   0.000   0.000   0.000   0.000   0.000   0.000   0.000   0.000   0.000   0.000   0.000
  0.000   0.000   0.000   0.000   0.000   0.000   0.000   0.000   0.000   0.000   0.000   0.000   0.000   0.000   0.000   0.000
  0.000   0.000   0.000   0.000   0.000   0.000   0.000   0.000   0.000   0.000   0.000   0.000   0.000   0.000   0.000   0.000
  0.000   0.000   0.000   0.000   0.000   0.000   0.000   0.000   0.000   0.000   0.000   0.000   0.000   0.000   0.000   0.000
  0.000   0.000   0.000   0.000   0.000   0.000   0.000   0.000   0.000   0.000   0.000   0.000   0.000   0.000   0.000   0.000
  0.000   0.000   0.000   0.000   0.000   0.000   0.000   0.000   0.000   0.000   0.000   0.000   0.000   0.000   0.000   0.000
  0.000   0.000   0.000   0.000   0.000   0.000   0.000   0.000   0.000   0.000   0.000   0.000   0.000   0.000   0.000   0.000


------------------------ aborting loop because EDIFF is reached ----------------------------------------


 


 total charge     
 
# of ion     s       p       d       tot
----------------------------------------
  1        0.481   0.322   9.537  10.340
  2        1.360   2.074   0.021   3.456
------------------------------------------------
tot        1.841   2.397   9.558  13.796
 
    CHARGE:  cpu time    0.02: real time    0.02
    FORLOC:  cpu time    0.00: real time    0.00
    FORNL :  cpu time    0.10: real time    0.10
    STRESS:  cpu time    4.92: real time    4.93
    FORCOR:  cpu time    0.02: real time    0.02
    FORHAR:  cpu time    0.01: real time    0.01
    OFIELD:  cpu time    0.00: real time    0.00

  FORCE on cell =-STRESS in cart. coord.  units (eV):
  Direction    XX          YY          ZZ          XY          YZ          ZX
  --------------------------------------------------------------------------------------
  Alpha Z    48.00481    48.00481    48.00481
  Ewald    -348.27726  -348.27726  -348.27726     0.00000     0.00000    -0.00000
  Hartree   170.77477   170.77477   170.77477     0.00000    -0.00000    -0.00000
  E(xc)     -84.87237   -84.87237   -84.87237    -0.00000     0.00000     0.00000
  Local     -19.62980   -19.62980   -19.62980     0.00001    -0.00001    -0.00001
  n-local    29.32171    35.05732    34.08557    -1.86276    -3.19754    -1.21934
  augment     8.28516     8.28516     8.28516    -0.00001     0.00001     0.00001
  Kinetic   202.17924   206.00070   206.14985    -1.68525    -3.16548    -1.27279
  Fock        0.00000     0.00000     0.00000     0.00000     0.00000     0.00000
  -------------------------------------------------------------------------------------
  Total      11.88345    11.88345    11.88345     0.00000    -0.00000    -0.00000
  in kB     279.54089   279.54089   279.54089     0.00000    -0.00000    -0.00000
  external pressure =      279.54 kB  Pullay stress =        0.00 kB


 VOLUME and BASIS-vectors are now :
 -----------------------------------------------------------------------------
  energy-cutoff  :      500.00
  volume of cell :       68.11
      direct lattice vectors                 reciprocal lattice vectors
     3.241350000  3.241350000  0.000000000     0.154256714  0.154256714  0.154256714
     3.241350000  0.000000000 -3.241350000     0.154256714 -0.154256714 -0.154256714
     0.000000000  3.241350000 -3.241350000    -0.154256714  0.154256714 -0.154256714

  length of vectors
     4.583961130  4.583961130  4.583961130     0.267180466  0.267180466  0.267180466


 FORCES acting on ions
    electron-ion (+dipol)            ewald-force                    non-local-force                 convergence-correction
 -----------------------------------------------------------------------------------------------
   -.251E-08 -.272E-08 0.272E-08   -.153E-13 -.130E-13 0.167E-13   -.694E-17 0.694E-17 0.694E-17   -.361E-09 -.361E-09 0.361E-09
   0.195E-06 0.202E-06 -.202E-06   0.145E-13 0.128E-13 -.169E-13   0.269E-16 0.278E-16 0.278E-16   -.482E-10 -.482E-10 0.483E-10
 -----------------------------------------------------------------------------------------------
   0.192E-06 0.199E-06 -.199E-06   -.840E-15 -.129E-15 -.231E-15   0.199E-16 0.347E-16 0.347E-16   -.409E-09 -.409E-09 0.409E-09
 
 
 POSITION                                       TOTAL-FORCE (eV/Angst)
 -----------------------------------------------------------------------------------
      0.00000      0.00000      0.00000         0.000000      0.000000      0.000000
      1.62068      1.62068     -1.62068        -0.000000     -0.000000     -0.000000
 -----------------------------------------------------------------------------------
    total drift:                                0.000000      0.000000     -0.000000


--------------------------------------------------------------------------------------------------------



  FREE ENERGIE OF THE ION-ELECTRON SYSTEM (eV)
  ---------------------------------------------------
  free  energy   TOTEN  =        -6.15989817 eV

  energy  without entropy=       -6.15989817  energy(sigma->0) =       -6.15989817
 


--------------------------------------------------------------------------------------------------------


    POTLOK:  cpu time    0.02: real time    0.03


--------------------------------------------------------------------------------------------------------




--------------------------------------------------------------------------------------------------------


 writing wavefunctions
     LOOP+:  cpu time   14.67: real time   16.03
    4ORBIT:  cpu time    0.00: real time    0.00
 


 total charge     
 
# of ion     s       p       d       tot
----------------------------------------
  1        0.481   0.322   9.537  10.340
  2        1.360   2.074   0.021   3.456
------------------------------------------------
tot        1.841   2.397   9.558  13.796
 

 total amount of memory used by VASP on root node   418913. kBytes
========================================================================

   base      :      30000. kBytes
   nonl-proj :     308484. kBytes
   fftplans  :       3408. kBytes
   grid      :       7216. kBytes
   one-center:         31. kBytes
   wavefun   :      69774. kBytes
 
  
  
 General timing and accounting informations for this job:
 ========================================================
  
                  Total CPU time used (sec):       18.998
                            User time (sec):       18.222
                          System time (sec):        0.776
                         Elapsed time (sec):       20.801
  
                   Maximum memory used (kb):      482712.
                   Average memory used (kb):           0.
  
                          Minor page faults:       122187
                          Major page faults:            0
                 Voluntary context switches:         2484
