   8   8   1   0
  0.3394927E+02  0.6476000E-09  0.6476000E-09  0.6476000E-09  0.5000000E-15
  1.000000000000000E-004
  CAR 
 Name                                    
     12.22542581     -9.82026792  301      2.46102063      1.00000000
     -9.820  0.0000E+00  0.0000E+00
     -9.747  0.0000E+00  0.0000E+00
     -9.673  0.0000E+00  0.0000E+00
     -9.600  0.0000E+00  0.0000E+00
     -9.526  0.0000E+00  0.0000E+00
     -9.453  0.0000E+00  0.0000E+00
     -9.379  0.0000E+00  0.0000E+00
     -9.306  0.0000E+00  0.0000E+00
     -9.232  0.0000E+00  0.0000E+00
     -9.159  0.0000E+00  0.0000E+00
     -9.085  0.0000E+00  0.0000E+00
     -9.012  0.0000E+00  0.0000E+00
     -8.938  0.0000E+00  0.0000E+00
     -8.865  0.7988E-13  0.5870E-14
     -8.791  0.4252E-02  0.3125E-03
     -8.718  0.2549E-01  0.2186E-02
     -8.644  0.5103E-01  0.5938E-02
     -8.571  0.3414E-01  0.8446E-02
     -8.498  0.1318E+00  0.1813E-01
     -8.424  0.1597E+00  0.2995E-01
     -8.351  0.4150E+00  0.6044E-01
     -8.277  0.2406E+00  0.8000E-01
     -8.204  0.0000E+00  0.8000E-01
     -8.130  0.0000E+00  0.8000E-01
     -8.057  0.0000E+00  0.8000E-01
     -7.983  0.0000E+00  0.8000E-01
     -7.910  0.0000E+00  0.8000E-01
     -7.836  0.0000E+00  0.8000E-01
     -7.763  0.0000E+00  0.8000E-01
     -7.689  0.0000E+00  0.8000E-01
     -7.616  0.0000E+00  0.8000E-01
     -7.542  0.0000E+00  0.8000E-01
     -7.469  0.0000E+00  0.8000E-01
     -7.395  0.0000E+00  0.8000E-01
     -7.322  0.0000E+00  0.8000E-01
     -7.248  0.0000E+00  0.8000E-01
     -7.175  0.0000E+00  0.8000E-01
     -7.101  0.0000E+00  0.8000E-01
     -7.028  0.0000E+00  0.8000E-01
     -6.954  0.0000E+00  0.8000E-01
     -6.881  0.0000E+00  0.8000E-01
     -6.807  0.0000E+00  0.8000E-01
     -6.734  0.0000E+00  0.8000E-01
     -6.660  0.0000E+00  0.8000E-01
     -6.587  0.0000E+00  0.8000E-01
     -6.513  0.0000E+00  0.8000E-01
     -6.440  0.0000E+00  0.8000E-01
     -6.366  0.0000E+00  0.8000E-01
     -6.293  0.0000E+00  0.8000E-01
     -6.219  0.0000E+00  0.8000E-01
     -6.146  0.0000E+00  0.8000E-01
     -6.072  0.0000E+00  0.8000E-01
     -5.999  0.0000E+00  0.8000E-01
     -5.926  0.7352E-02  0.8054E-01
     -5.852  0.7647E+00  0.1367E+00
     -5.779  0.1428E+01  0.2425E+00
     -5.705  0.4757E+00  0.2784E+00
     -5.632  0.1761E+01  0.4087E+00
     -5.558  0.1138E+00  0.4178E+00
     -5.485  0.1021E+00  0.4253E+00
     -5.411  0.3324E-04  0.4253E+00
     -5.338  0.1752E+00  0.4382E+00
     -5.264  0.1302E+00  0.4480E+00
     -5.191  0.1951E+00  0.4623E+00
     -5.117  0.2035E+00  0.4773E+00
     -5.044  0.2551E-01  0.4800E+00
     -4.970  0.0000E+00  0.4800E+00
     -4.897  0.0000E+00  0.4800E+00
     -4.823  0.0000E+00  0.4800E+00
     -4.750  0.0000E+00  0.4800E+00
     -4.676  0.0000E+00  0.4800E+00
     -4.603  0.0000E+00  0.4800E+00
     -4.529  0.0000E+00  0.4800E+00
     -4.456  0.0000E+00  0.4800E+00
     -4.382  0.0000E+00  0.4800E+00
     -4.309  0.0000E+00  0.4800E+00
     -4.235  0.0000E+00  0.4800E+00
     -4.162  0.0000E+00  0.4800E+00
     -4.088  0.0000E+00  0.4800E+00
     -4.015  0.0000E+00  0.4800E+00
     -3.941  0.0000E+00  0.4800E+00
     -3.868  0.0000E+00  0.4800E+00
     -3.794  0.0000E+00  0.4800E+00
     -3.721  0.0000E+00  0.4800E+00
     -3.647  0.0000E+00  0.4800E+00
     -3.574  0.0000E+00  0.4800E+00
     -3.501  0.0000E+00  0.4800E+00
     -3.427  0.0000E+00  0.4800E+00
     -3.354  0.0000E+00  0.4800E+00
     -3.280  0.0000E+00  0.4800E+00
     -3.207  0.0000E+00  0.4800E+00
     -3.133  0.0000E+00  0.4800E+00
     -3.060  0.0000E+00  0.4800E+00
     -2.986  0.0000E+00  0.4800E+00
     -2.913  0.0000E+00  0.4800E+00
     -2.839  0.0000E+00  0.4800E+00
     -2.766  0.0000E+00  0.4800E+00
     -2.692  0.0000E+00  0.4800E+00
     -2.619  0.0000E+00  0.4800E+00
     -2.545  0.0000E+00  0.4800E+00
     -2.472  0.0000E+00  0.4800E+00
     -2.398  0.0000E+00  0.4800E+00
     -2.325  0.0000E+00  0.4800E+00
     -2.251  0.0000E+00  0.4800E+00
     -2.178  0.0000E+00  0.4800E+00
     -2.104  0.5818E-08  0.4800E+00
     -2.031  0.1701E-01  0.4812E+00
     -1.957  0.1873E-02  0.4814E+00
     -1.884  0.8307E-01  0.4875E+00
     -1.810  0.1517E+00  0.4990E+00
     -1.737  0.1183E+00  0.5078E+00
     -1.663  0.1879E+00  0.5216E+00
     -1.590  0.5328E-10  0.5216E+00
     -1.516  0.1021E+00  0.5291E+00
     -1.443  0.2254E-01  0.5307E+00
     -1.369  0.3260E-03  0.5310E+00
     -1.296  0.5070E-01  0.5347E+00
     -1.222  0.1204E-01  0.5356E+00
     -1.149  0.9002E-01  0.5422E+00
     -1.075  0.0000E+00  0.5422E+00
     -1.002  0.0000E+00  0.5422E+00
     -0.929  0.0000E+00  0.5422E+00
     -0.855  0.0000E+00  0.5422E+00
     -0.782  0.1700E-16  0.5422E+00
     -0.708  0.1008E+00  0.5496E+00
     -0.635  0.0000E+00  0.5497E+00
     -0.561  0.0000E+00  0.5497E+00
     -0.488  0.0000E+00  0.5497E+00
     -0.414  0.1955E-13  0.5497E+00
     -0.341  0.3400E-01  0.5522E+00
     -0.267  0.2552E-01  0.5541E+00
     -0.194  0.3622E-01  0.5567E+00
     -0.120  0.1158E+00  0.5652E+00
     -0.047  0.0000E+00  0.5653E+00
      0.027  0.3498E-02  0.5656E+00
      0.100  0.2202E-01  0.5672E+00
      0.174  0.2432E-01  0.5690E+00
      0.247  0.5406E-01  0.5730E+00
      0.321  0.3049E+00  0.5954E+00
      0.394  0.1513E+00  0.6066E+00
      0.468  0.6807E-06  0.6066E+00
      0.541  0.2551E-01  0.6084E+00
      0.615  0.0000E+00  0.6084E+00
      0.688  0.1871E-03  0.6085E+00
      0.762  0.1529E+00  0.6197E+00
      0.835  0.5080E-01  0.6234E+00
      0.909  0.2720E+00  0.6434E+00
      0.982  0.6849E-01  0.6485E+00
      1.056  0.6772E-01  0.6534E+00
      1.129  0.1268E+00  0.6628E+00
      1.203  0.0000E+00  0.6628E+00
      1.276  0.2245E-01  0.6645E+00
      1.350  0.1306E+00  0.6741E+00
      1.423  0.3222E-01  0.6764E+00
      1.497  0.6985E-01  0.6816E+00
      1.570  0.1785E+00  0.6947E+00
      1.643  0.1589E+00  0.7066E+00
      1.717  0.0000E+00  0.7066E+00
      1.790  0.0000E+00  0.7066E+00
      1.864  0.0000E+00  0.7066E+00
      1.937  0.3217E-01  0.7089E+00
      2.011  0.8674E-01  0.7153E+00
      2.084  0.0000E+00  0.7153E+00
      2.158  0.4925E-04  0.7153E+00
      2.231  0.5098E-01  0.7191E+00
      2.305  0.0000E+00  0.7191E+00
      2.378  0.1171E-01  0.7199E+00
      2.452  0.0000E+00  0.7200E+00
      2.525  0.0000E+00  0.7200E+00
      2.599  0.0000E+00  0.7200E+00
      2.672  0.0000E+00  0.7200E+00
      2.746  0.0000E+00  0.7200E+00
      2.819  0.0000E+00  0.7200E+00
      2.893  0.0000E+00  0.7200E+00
      2.966  0.0000E+00  0.7200E+00
      3.040  0.0000E+00  0.7200E+00
      3.113  0.5193E-08  0.7200E+00
      3.187  0.4253E-02  0.7203E+00
      3.260  0.0000E+00  0.7203E+00
      3.334  0.0000E+00  0.7203E+00
      3.407  0.0000E+00  0.7203E+00
      3.481  0.0000E+00  0.7203E+00
      3.554  0.0000E+00  0.7203E+00
      3.628  0.0000E+00  0.7203E+00
      3.701  0.0000E+00  0.7203E+00
      3.775  0.0000E+00  0.7203E+00
      3.848  0.0000E+00  0.7203E+00
      3.922  0.0000E+00  0.7203E+00
      3.995  0.0000E+00  0.7203E+00
      4.069  0.0000E+00  0.7203E+00
      4.142  0.1350E-12  0.7203E+00
      4.215  0.1701E-01  0.7216E+00
      4.289  0.0000E+00  0.7216E+00
      4.362  0.1614E-01  0.7227E+00
      4.436  0.4266E-01  0.7259E+00
      4.509  0.0000E+00  0.7259E+00
      4.583  0.0000E+00  0.7259E+00
      4.656  0.6248E-02  0.7264E+00
      4.730  0.4478E-01  0.7297E+00
      4.803  0.0000E+00  0.7297E+00
      4.877  0.6371E-02  0.7302E+00
      4.950  0.1295E+00  0.7397E+00
      5.024  0.1068E+00  0.7475E+00
      5.097  0.1243E-01  0.7484E+00
      5.171  0.0000E+00  0.7484E+00
      5.244  0.1740E-03  0.7485E+00
      5.318  0.7146E-01  0.7537E+00
      5.391  0.1313E+00  0.7634E+00
      5.465  0.7246E-06  0.7634E+00
      5.538  0.1531E+00  0.7747E+00
      5.612  0.6179E-01  0.7792E+00
      5.685  0.1216E+00  0.7882E+00
      5.759  0.1445E+00  0.7991E+00
      5.832  0.0000E+00  0.7991E+00
      5.906  0.2382E-06  0.7991E+00
      5.979  0.1021E+00  0.8066E+00
      6.053  0.1021E+00  0.8141E+00
      6.126  0.0000E+00  0.8141E+00
      6.200  0.0000E+00  0.8141E+00
      6.273  0.0000E+00  0.8141E+00
      6.347  0.2820E-02  0.8143E+00
      6.420  0.1248E+00  0.8234E+00
      6.494  0.0000E+00  0.8234E+00
      6.567  0.0000E+00  0.8234E+00
      6.641  0.2250E-01  0.8251E+00
      6.714  0.0000E+00  0.8253E+00
      6.787  0.0000E+00  0.8253E+00
      6.861  0.4660E-01  0.8287E+00
      6.934  0.1528E+00  0.8403E+00
      7.008  0.2064E+00  0.8555E+00
      7.081  0.2551E-01  0.8581E+00
      7.155  0.0000E+00  0.8581E+00
      7.228  0.0000E+00  0.8581E+00
      7.302  0.4446E-01  0.8614E+00
      7.375  0.2040E+00  0.8769E+00
      7.449  0.0000E+00  0.8769E+00
      7.522  0.4746E-01  0.8804E+00
      7.596  0.1558E+00  0.8918E+00
      7.669  0.0000E+00  0.8919E+00
      7.743  0.1489E-01  0.8930E+00
      7.816  0.1748E+00  0.9058E+00
      7.890  0.2006E+00  0.9206E+00
      7.963  0.2551E-01  0.9225E+00
      8.037  0.2653E-01  0.9244E+00
      8.110  0.2450E-01  0.9263E+00
      8.184  0.1020E+00  0.9337E+00
      8.257  0.1269E-05  0.9338E+00
      8.331  0.1021E+00  0.9412E+00
      8.404  0.1059E-11  0.9413E+00
      8.478  0.1020E+00  0.9487E+00
      8.551  0.2279E-01  0.9504E+00
      8.625  0.4525E-01  0.9538E+00
      8.698  0.2552E-01  0.9556E+00
      8.772  0.0000E+00  0.9556E+00
      8.845  0.0000E+00  0.9556E+00
      8.919  0.0000E+00  0.9556E+00
      8.992  0.0000E+00  0.9556E+00
      9.066  0.0000E+00  0.9556E+00
      9.139  0.0000E+00  0.9556E+00
      9.213  0.0000E+00  0.9556E+00
      9.286  0.0000E+00  0.9556E+00
      9.359  0.0000E+00  0.9556E+00
      9.433  0.0000E+00  0.9556E+00
      9.506  0.0000E+00  0.9556E+00
      9.580  0.0000E+00  0.9556E+00
      9.653  0.0000E+00  0.9556E+00
      9.727  0.0000E+00  0.9556E+00
      9.800  0.1978E-07  0.9556E+00
      9.874  0.5350E-01  0.9596E+00
      9.947  0.0000E+00  0.9597E+00
     10.021  0.0000E+00  0.9597E+00
     10.094  0.0000E+00  0.9597E+00
     10.168  0.0000E+00  0.9597E+00
     10.241  0.0000E+00  0.9597E+00
     10.315  0.0000E+00  0.9597E+00
     10.388  0.0000E+00  0.9597E+00
     10.462  0.0000E+00  0.9597E+00
     10.535  0.0000E+00  0.9597E+00
     10.609  0.0000E+00  0.9597E+00
     10.682  0.0000E+00  0.9597E+00
     10.756  0.0000E+00  0.9597E+00
     10.829  0.0000E+00  0.9597E+00
     10.903  0.0000E+00  0.9597E+00
     10.976  0.0000E+00  0.9597E+00
     11.050  0.0000E+00  0.9597E+00
     11.123  0.0000E+00  0.9597E+00
     11.197  0.3347E-06  0.9597E+00
     11.270  0.4252E-02  0.9600E+00
     11.344  0.0000E+00  0.9600E+00
     11.417  0.0000E+00  0.9600E+00
     11.491  0.0000E+00  0.9600E+00
     11.564  0.0000E+00  0.9600E+00
     11.638  0.0000E+00  0.9600E+00
     11.711  0.0000E+00  0.9600E+00
     11.785  0.0000E+00  0.9600E+00
     11.858  0.0000E+00  0.9600E+00
     11.931  0.0000E+00  0.9600E+00
     12.005  0.0000E+00  0.9600E+00
     12.078  0.0000E+00  0.9600E+00
     12.152  0.0000E+00  0.9600E+00
     12.225  0.0000E+00  0.9600E+00
     12.22542581     -9.82026792  301      2.46102063      1.00000000
     -9.820  0.0000E+00  0.0000E+00  0.0000E+00
     -9.747  0.0000E+00  0.0000E+00  0.0000E+00
     -9.673  0.0000E+00  0.0000E+00  0.0000E+00
     -9.600  0.0000E+00  0.0000E+00  0.0000E+00
     -9.526  0.0000E+00  0.0000E+00  0.0000E+00
     -9.453  0.0000E+00  0.0000E+00  0.0000E+00
     -9.379  0.0000E+00  0.0000E+00  0.0000E+00
     -9.306  0.0000E+00  0.0000E+00  0.0000E+00
     -9.232  0.0000E+00  0.0000E+00  0.0000E+00
     -9.159  0.0000E+00  0.0000E+00  0.0000E+00
     -9.085  0.0000E+00  0.0000E+00  0.0000E+00
     -9.012  0.0000E+00  0.0000E+00  0.0000E+00
     -8.938  0.0000E+00  0.0000E+00  0.0000E+00
     -8.865  0.1260E-12  0.4619E-26  0.5162E-27
     -8.791  0.6706E-02  0.5020E-15  0.1783E-14
     -8.718  0.3524E-01  0.1264E-02  0.8661E-02
     -8.644  0.6142E-01  0.4711E-02  0.3503E-01
     -8.571  0.3568E-01  0.4360E-02  0.3494E-01
     -8.498  0.9927E-01  0.2547E-01  0.2196E+00
     -8.424  0.8910E-01  0.3677E-01  0.3483E+00
     -8.351  0.1133E+00  0.1194E+00  0.1211E+01
     -8.277  0.1456E-01  0.7929E-01  0.8427E+00
     -8.204  0.0000E+00  0.0000E+00  0.0000E+00
     -8.130  0.0000E+00  0.0000E+00  0.0000E+00
     -8.057  0.0000E+00  0.0000E+00  0.0000E+00
     -7.983  0.0000E+00  0.0000E+00  0.0000E+00
     -7.910  0.0000E+00  0.0000E+00  0.0000E+00
     -7.836  0.0000E+00  0.0000E+00  0.0000E+00
     -7.763  0.0000E+00  0.0000E+00  0.0000E+00
     -7.689  0.0000E+00  0.0000E+00  0.0000E+00
     -7.616  0.0000E+00  0.0000E+00  0.0000E+00
     -7.542  0.0000E+00  0.0000E+00  0.0000E+00
     -7.469  0.0000E+00  0.0000E+00  0.0000E+00
     -7.395  0.0000E+00  0.0000E+00  0.0000E+00
     -7.322  0.0000E+00  0.0000E+00  0.0000E+00
     -7.248  0.0000E+00  0.0000E+00  0.0000E+00
     -7.175  0.0000E+00  0.0000E+00  0.0000E+00
     -7.101  0.0000E+00  0.0000E+00  0.0000E+00
     -7.028  0.0000E+00  0.0000E+00  0.0000E+00
     -6.954  0.0000E+00  0.0000E+00  0.0000E+00
     -6.881  0.0000E+00  0.0000E+00  0.0000E+00
     -6.807  0.0000E+00  0.0000E+00  0.0000E+00
     -6.734  0.0000E+00  0.0000E+00  0.0000E+00
     -6.660  0.0000E+00  0.0000E+00  0.0000E+00
     -6.587  0.0000E+00  0.0000E+00  0.0000E+00
     -6.513  0.0000E+00  0.0000E+00  0.0000E+00
     -6.440  0.0000E+00  0.0000E+00  0.0000E+00
     -6.366  0.0000E+00  0.0000E+00  0.0000E+00
     -6.293  0.0000E+00  0.0000E+00  0.0000E+00
     -6.219  0.0000E+00  0.0000E+00  0.0000E+00
     -6.146  0.0000E+00  0.0000E+00  0.0000E+00
     -6.072  0.0000E+00  0.0000E+00  0.0000E+00
     -5.999  0.0000E+00  0.0000E+00  0.0000E+00
     -5.926  0.3731E-10  0.7076E-04  0.1661E+00
     -5.852  0.3954E-02  0.8636E-02  0.1744E+02
     -5.779  0.1233E-01  0.1768E-01  0.3284E+02
     -5.705  0.2272E-01  0.9647E-03  0.1095E+02
     -5.632  0.7149E-02  0.6110E-03  0.4159E+02
     -5.558  0.2509E-01  0.1309E-02  0.2485E+01
     -5.485  0.2809E-01  0.2223E-02  0.2163E+01
     -5.411  0.9365E-05  0.1188E-05  0.6913E-03
     -5.338  0.4250E-01  0.7677E-02  0.3648E+01
     -5.264  0.2590E-01  0.8547E-02  0.2670E+01
     -5.191  0.3063E-01  0.1330E-01  0.4026E+01
     -5.117  0.1389E-01  0.2007E-01  0.4136E+01
     -5.044  0.2307E-20  0.2848E-02  0.5180E+00
     -4.970  0.0000E+00  0.0000E+00  0.0000E+00
     -4.897  0.0000E+00  0.0000E+00  0.0000E+00
     -4.823  0.0000E+00  0.0000E+00  0.0000E+00
     -4.750  0.0000E+00  0.0000E+00  0.0000E+00
     -4.676  0.0000E+00  0.0000E+00  0.0000E+00
     -4.603  0.0000E+00  0.0000E+00  0.0000E+00
     -4.529  0.0000E+00  0.0000E+00  0.0000E+00
     -4.456  0.0000E+00  0.0000E+00  0.0000E+00
     -4.382  0.0000E+00  0.0000E+00  0.0000E+00
     -4.309  0.0000E+00  0.0000E+00  0.0000E+00
     -4.235  0.0000E+00  0.0000E+00  0.0000E+00
     -4.162  0.0000E+00  0.0000E+00  0.0000E+00
     -4.088  0.0000E+00  0.0000E+00  0.0000E+00
     -4.015  0.0000E+00  0.0000E+00  0.0000E+00
     -3.941  0.0000E+00  0.0000E+00  0.0000E+00
     -3.868  0.0000E+00  0.0000E+00  0.0000E+00
     -3.794  0.0000E+00  0.0000E+00  0.0000E+00
     -3.721  0.0000E+00  0.0000E+00  0.0000E+00
     -3.647  0.0000E+00  0.0000E+00  0.0000E+00
     -3.574  0.0000E+00  0.0000E+00  0.0000E+00
     -3.501  0.0000E+00  0.0000E+00  0.0000E+00
     -3.427  0.0000E+00  0.0000E+00  0.0000E+00
     -3.354  0.0000E+00  0.0000E+00  0.0000E+00
     -3.280  0.0000E+00  0.0000E+00  0.0000E+00
     -3.207  0.0000E+00  0.0000E+00  0.0000E+00
     -3.133  0.0000E+00  0.0000E+00  0.0000E+00
     -3.060  0.0000E+00  0.0000E+00  0.0000E+00
     -2.986  0.0000E+00  0.0000E+00  0.0000E+00
     -2.913  0.0000E+00  0.0000E+00  0.0000E+00
     -2.839  0.0000E+00  0.0000E+00  0.0000E+00
     -2.766  0.0000E+00  0.0000E+00  0.0000E+00
     -2.692  0.0000E+00  0.0000E+00  0.0000E+00
     -2.619  0.0000E+00  0.0000E+00  0.0000E+00
     -2.545  0.0000E+00  0.0000E+00  0.0000E+00
     -2.472  0.0000E+00  0.0000E+00  0.0000E+00
     -2.398  0.0000E+00  0.0000E+00  0.0000E+00
     -2.325  0.0000E+00  0.0000E+00  0.0000E+00
     -2.251  0.0000E+00  0.0000E+00  0.0000E+00
     -2.178  0.0000E+00  0.0000E+00  0.0000E+00
     -2.104  0.2412E-07  0.3838E-08  0.1494E-10
     -2.031  0.7053E-01  0.1122E-01  0.4369E-04
     -1.957  0.1147E-01  0.5900E-18  0.1395E-02
     -1.884  0.4897E+00  0.1161E-01  0.3305E-01
     -1.810  0.8700E+00  0.3563E-01  0.2725E-01
     -1.737  0.5291E+00  0.6526E-01  0.4360E-01
     -1.663  0.1045E+01  0.4811E-01  0.7627E-01
     -1.590  0.2965E-09  0.8661E-11  0.4832E-10
     -1.516  0.5680E+00  0.1659E-01  0.9255E-01
     -1.443  0.1234E+00  0.2364E-02  0.2867E-01
     -1.369  0.1560E-02  0.1374E-03  0.2633E-03
     -1.296  0.2426E+00  0.2137E-01  0.4096E-01
     -1.222  0.4752E-01  0.7363E-02  0.1165E-01
     -1.149  0.3554E+00  0.5506E-01  0.8709E-01
     -1.075  0.0000E+00  0.0000E+00  0.0000E+00
     -1.002  0.0000E+00  0.0000E+00  0.0000E+00
     -0.929  0.0000E+00  0.0000E+00  0.0000E+00
     -0.855  0.0000E+00  0.0000E+00  0.0000E+00
     -0.782  0.7246E-16  0.7376E-17  0.2272E-16
     -0.708  0.4296E+00  0.4373E-01  0.1347E+00
     -0.635  0.0000E+00  0.0000E+00  0.0000E+00
     -0.561  0.0000E+00  0.0000E+00  0.0000E+00
     -0.488  0.0000E+00  0.0000E+00  0.0000E+00
     -0.414  0.6399E-13  0.1385E-13  0.2543E-13
     -0.341  0.1113E+00  0.2408E-01  0.4422E-01
     -0.267  0.1132E+00  0.6578E-02  0.4170E-01
     -0.194  0.4774E-04  0.6807E-01  0.2156E-01
     -0.120  0.1899E-01  0.2076E+00  0.8106E-01
     -0.047  0.0000E+00  0.0000E+00  0.0000E+00
      0.027  0.2908E-22  0.5764E-02  0.3851E-02
      0.100  0.1830E-21  0.3628E-01  0.2424E-01
      0.174  0.2239E-09  0.5231E-01  0.4451E-02
      0.247  0.2327E-01  0.9147E-01  0.4448E-01
      0.321  0.2229E+00  0.4880E+00  0.2582E+00
      0.394  0.1116E+00  0.2487E+00  0.1155E+00
      0.468  0.3139E-23  0.1369E-05  0.2980E-06
      0.541  0.1176E-18  0.5133E-01  0.1117E-01
      0.615  0.0000E+00  0.0000E+00  0.0000E+00
      0.688  0.1394E-11  0.3617E-03  0.1186E-03
      0.762  0.4398E-02  0.2891E+00  0.1089E+00
      0.835  0.2368E-05  0.9708E-01  0.3484E-01
      0.909  0.8432E-01  0.4591E+00  0.2555E+00
      0.982  0.2386E-01  0.1149E+00  0.6332E-01
      1.056  0.7705E-11  0.1246E+00  0.5541E-01
      1.129  0.8432E-01  0.1898E+00  0.1344E+00
      1.203  0.0000E+00  0.0000E+00  0.0000E+00
      1.276  0.4747E-05  0.3728E-01  0.2477E-01
      1.350  0.6801E-01  0.1884E+00  0.1560E+00
      1.423  0.3458E-18  0.5170E-01  0.3711E-01
      1.497  0.7662E-14  0.1121E+00  0.8046E-01
      1.570  0.1355E-01  0.2680E+00  0.2224E+00
      1.643  0.8660E-02  0.2366E+00  0.2005E+00
      1.717  0.0000E+00  0.0000E+00  0.0000E+00
      1.790  0.0000E+00  0.0000E+00  0.0000E+00
      1.864  0.0000E+00  0.0000E+00  0.0000E+00
      1.937  0.1138E-20  0.3896E-01  0.4954E-01
      2.011  0.2899E-20  0.1004E+00  0.1390E+00
      2.084  0.0000E+00  0.0000E+00  0.0000E+00
      2.158  0.2646E-22  0.4720E-04  0.8551E-04
      2.231  0.2739E-19  0.4885E-01  0.8851E-01
      2.305  0.0000E+00  0.0000E+00  0.0000E+00
      2.378  0.1743E-21  0.7901E-02  0.2294E-01
      2.452  0.0000E+00  0.0000E+00  0.0000E+00
      2.525  0.0000E+00  0.0000E+00  0.0000E+00
      2.599  0.0000E+00  0.0000E+00  0.0000E+00
      2.672  0.0000E+00  0.0000E+00  0.0000E+00
      2.746  0.0000E+00  0.0000E+00  0.0000E+00
      2.819  0.0000E+00  0.0000E+00  0.0000E+00
      2.893  0.0000E+00  0.0000E+00  0.0000E+00
      2.966  0.0000E+00  0.0000E+00  0.0000E+00
      3.040  0.0000E+00  0.0000E+00  0.0000E+00
      3.113  0.4054E-07  0.6421E-25  0.4844E-25
      3.187  0.3320E-01  0.5258E-19  0.3967E-19
      3.260  0.0000E+00  0.0000E+00  0.0000E+00
      3.334  0.0000E+00  0.0000E+00  0.0000E+00
      3.407  0.0000E+00  0.0000E+00  0.0000E+00
      3.481  0.0000E+00  0.0000E+00  0.0000E+00
      3.554  0.0000E+00  0.0000E+00  0.0000E+00
      3.628  0.0000E+00  0.0000E+00  0.0000E+00
      3.701  0.0000E+00  0.0000E+00  0.0000E+00
      3.775  0.0000E+00  0.0000E+00  0.0000E+00
      3.848  0.0000E+00  0.0000E+00  0.0000E+00
      3.922  0.0000E+00  0.0000E+00  0.0000E+00
      3.995  0.0000E+00  0.0000E+00  0.0000E+00
      4.069  0.0000E+00  0.0000E+00  0.0000E+00
      4.142  0.8358E-12  0.1050E-12  0.3209E-13
      4.215  0.1053E+00  0.1324E-01  0.4044E-02
      4.289  0.0000E+00  0.0000E+00  0.0000E+00
      4.362  0.9332E-01  0.1687E-01  0.1072E-02
      4.436  0.2303E+00  0.2460E-01  0.1099E-01
      4.509  0.0000E+00  0.0000E+00  0.0000E+00
      4.583  0.0000E+00  0.0000E+00  0.0000E+00
      4.656  0.3386E-01  0.4820E-02  0.9463E-03
      4.730  0.2427E+00  0.3455E-01  0.6782E-02
      4.803  0.0000E+00  0.0000E+00  0.0000E+00
      4.877  0.3461E-01  0.6149E-02  0.1723E-02
      4.950  0.6978E+00  0.1222E+00  0.3608E-01
      5.024  0.4410E+00  0.1299E+00  0.5036E-01
      5.097  0.6522E-01  0.7875E-16  0.1177E-01
      5.171  0.0000E+00  0.0000E+00  0.0000E+00
      5.244  0.5262E-03  0.2316E-03  0.1362E-03
      5.318  0.2747E+00  0.7566E-01  0.5129E-01
      5.391  0.4692E+00  0.1556E+00  0.8689E-01
      5.465  0.4286E-05  0.3120E-06  0.2169E-06
      5.538  0.8646E+00  0.1111E+00  0.4374E-01
      5.612  0.3175E+00  0.5607E-01  0.2329E-01
      5.685  0.3837E+00  0.1496E+00  0.8404E-01
      5.759  0.5708E+00  0.1514E+00  0.8691E-01
      5.832  0.0000E+00  0.0000E+00  0.0000E+00
      5.906  0.2172E-06  0.4998E-06  0.1650E-06
      5.979  0.9310E-01  0.2141E+00  0.7067E-01
      6.053  0.4691E+00  0.9805E-01  0.5245E-01
      6.126  0.0000E+00  0.0000E+00  0.0000E+00
      6.200  0.0000E+00  0.0000E+00  0.0000E+00
      6.273  0.0000E+00  0.0000E+00  0.0000E+00
      6.347  0.7846E-03  0.1017E-01  0.1073E-02
      6.420  0.4816E-01  0.4728E+00  0.4028E-01
      6.494  0.0000E+00  0.0000E+00  0.0000E+00
      6.567  0.0000E+00  0.0000E+00  0.0000E+00
      6.641  0.1409E+00  0.3368E-19  0.6415E-02
      6.714  0.0000E+00  0.0000E+00  0.0000E+00
      6.787  0.0000E+00  0.0000E+00  0.0000E+00
      6.861  0.4916E-01  0.1516E+00  0.1831E-01
      6.934  0.3637E+00  0.1893E+00  0.8408E-01
      7.008  0.6696E-01  0.6329E+00  0.1281E+00
      7.081  0.1403E-18  0.1744E-01  0.3348E-01
      7.155  0.0000E+00  0.0000E+00  0.0000E+00
      7.228  0.0000E+00  0.0000E+00  0.0000E+00
      7.302  0.1575E-04  0.2646E+00  0.5013E-02
      7.375  0.1284E+00  0.3559E+00  0.1622E+00
      7.449  0.0000E+00  0.0000E+00  0.0000E+00
      7.522  0.8376E-15  0.2496E+00  0.1585E-01
      7.596  0.5374E-01  0.5907E+00  0.6526E-01
      7.669  0.0000E+00  0.0000E+00  0.0000E+00
      7.743  0.1882E-01  0.2913E-01  0.5646E-02
      7.816  0.9038E-01  0.6188E+00  0.7115E-01
      7.890  0.1981E-02  0.6585E+00  0.1416E+00
      7.963  0.6574E-14  0.1188E+00  0.8668E-02
      8.037  0.8958E-02  0.5809E-01  0.2539E-01
      8.110  0.8271E-02  0.5364E-01  0.2345E-01
      8.184  0.1347E-07  0.4280E+00  0.6642E-01
      8.257  0.4786E-06  0.2250E-05  0.9578E-06
      8.331  0.3774E-01  0.1809E+00  0.7614E-01
      8.404  0.3753E-12  0.2742E-11  0.7208E-12
      8.478  0.3615E-01  0.2641E+00  0.6944E-01
      8.551  0.3557E-02  0.7333E-01  0.2013E-01
      8.625  0.7061E-02  0.1456E+00  0.3996E-01
      8.698  0.6404E-12  0.6073E-01  0.2363E-01
      8.772  0.0000E+00  0.0000E+00  0.0000E+00
      8.845  0.0000E+00  0.0000E+00  0.0000E+00
      8.919  0.0000E+00  0.0000E+00  0.0000E+00
      8.992  0.0000E+00  0.0000E+00  0.0000E+00
      9.066  0.0000E+00  0.0000E+00  0.0000E+00
      9.139  0.0000E+00  0.0000E+00  0.0000E+00
      9.213  0.0000E+00  0.0000E+00  0.0000E+00
      9.286  0.0000E+00  0.0000E+00  0.0000E+00
      9.359  0.0000E+00  0.0000E+00  0.0000E+00
      9.433  0.0000E+00  0.0000E+00  0.0000E+00
      9.506  0.0000E+00  0.0000E+00  0.0000E+00
      9.580  0.0000E+00  0.0000E+00  0.0000E+00
      9.653  0.0000E+00  0.0000E+00  0.0000E+00
      9.727  0.0000E+00  0.0000E+00  0.0000E+00
      9.800  0.7634E-08  0.6373E-07  0.1104E-07
      9.874  0.4398E-01  0.1715E+00  0.2605E-01
      9.947  0.0000E+00  0.0000E+00  0.0000E+00
     10.021  0.0000E+00  0.0000E+00  0.0000E+00
     10.094  0.0000E+00  0.0000E+00  0.0000E+00
     10.168  0.0000E+00  0.0000E+00  0.0000E+00
     10.241  0.0000E+00  0.0000E+00  0.0000E+00
     10.315  0.0000E+00  0.0000E+00  0.0000E+00
     10.388  0.0000E+00  0.0000E+00  0.0000E+00
     10.462  0.0000E+00  0.0000E+00  0.0000E+00
     10.535  0.0000E+00  0.0000E+00  0.0000E+00
     10.609  0.0000E+00  0.0000E+00  0.0000E+00
     10.682  0.0000E+00  0.0000E+00  0.0000E+00
     10.756  0.0000E+00  0.0000E+00  0.0000E+00
     10.829  0.0000E+00  0.0000E+00  0.0000E+00
     10.903  0.0000E+00  0.0000E+00  0.0000E+00
     10.976  0.0000E+00  0.0000E+00  0.0000E+00
     11.050  0.0000E+00  0.0000E+00  0.0000E+00
     11.123  0.0000E+00  0.0000E+00  0.0000E+00
     11.197  0.5237E-06  0.5666E-12  0.5622E-07
     11.270  0.6653E-02  0.7199E-08  0.7143E-03
     11.344  0.0000E+00  0.0000E+00  0.0000E+00
     11.417  0.0000E+00  0.0000E+00  0.0000E+00
     11.491  0.0000E+00  0.0000E+00  0.0000E+00
     11.564  0.0000E+00  0.0000E+00  0.0000E+00
     11.638  0.0000E+00  0.0000E+00  0.0000E+00
     11.711  0.0000E+00  0.0000E+00  0.0000E+00
     11.785  0.0000E+00  0.0000E+00  0.0000E+00
     11.858  0.0000E+00  0.0000E+00  0.0000E+00
     11.931  0.0000E+00  0.0000E+00  0.0000E+00
     12.005  0.0000E+00  0.0000E+00  0.0000E+00
     12.078  0.0000E+00  0.0000E+00  0.0000E+00
     12.152  0.0000E+00  0.0000E+00  0.0000E+00
     12.225  0.0000E+00  0.0000E+00  0.0000E+00
     12.22542581     -9.82026792  301      2.46102063      1.00000000
     -9.820  0.0000E+00  0.0000E+00  0.0000E+00
     -9.747  0.0000E+00  0.0000E+00  0.0000E+00
     -9.673  0.0000E+00  0.0000E+00  0.0000E+00
     -9.600  0.0000E+00  0.0000E+00  0.0000E+00
     -9.526  0.0000E+00  0.0000E+00  0.0000E+00
     -9.453  0.0000E+00  0.0000E+00  0.0000E+00
     -9.379  0.0000E+00  0.0000E+00  0.0000E+00
     -9.306  0.0000E+00  0.0000E+00  0.0000E+00
     -9.232  0.0000E+00  0.0000E+00  0.0000E+00
     -9.159  0.0000E+00  0.0000E+00  0.0000E+00
     -9.085  0.0000E+00  0.0000E+00  0.0000E+00
     -9.012  0.0000E+00  0.0000E+00  0.0000E+00
     -8.938  0.0000E+00  0.0000E+00  0.0000E+00
     -8.865  0.1260E-12  0.4410E-26  0.4508E-27
     -8.791  0.6706E-02  0.4909E-15  0.1779E-14
     -8.718  0.3524E-01  0.1264E-02  0.8661E-02
     -8.644  0.6142E-01  0.4711E-02  0.3503E-01
     -8.571  0.3568E-01  0.4360E-02  0.3494E-01
     -8.498  0.9927E-01  0.2547E-01  0.2196E+00
     -8.424  0.8910E-01  0.3677E-01  0.3483E+00
     -8.351  0.1133E+00  0.1194E+00  0.1211E+01
     -8.277  0.1456E-01  0.7929E-01  0.8427E+00
     -8.204  0.0000E+00  0.0000E+00  0.0000E+00
     -8.130  0.0000E+00  0.0000E+00  0.0000E+00
     -8.057  0.0000E+00  0.0000E+00  0.0000E+00
     -7.983  0.0000E+00  0.0000E+00  0.0000E+00
     -7.910  0.0000E+00  0.0000E+00  0.0000E+00
     -7.836  0.0000E+00  0.0000E+00  0.0000E+00
     -7.763  0.0000E+00  0.0000E+00  0.0000E+00
     -7.689  0.0000E+00  0.0000E+00  0.0000E+00
     -7.616  0.0000E+00  0.0000E+00  0.0000E+00
     -7.542  0.0000E+00  0.0000E+00  0.0000E+00
     -7.469  0.0000E+00  0.0000E+00  0.0000E+00
     -7.395  0.0000E+00  0.0000E+00  0.0000E+00
     -7.322  0.0000E+00  0.0000E+00  0.0000E+00
     -7.248  0.0000E+00  0.0000E+00  0.0000E+00
     -7.175  0.0000E+00  0.0000E+00  0.0000E+00
     -7.101  0.0000E+00  0.0000E+00  0.0000E+00
     -7.028  0.0000E+00  0.0000E+00  0.0000E+00
     -6.954  0.0000E+00  0.0000E+00  0.0000E+00
     -6.881  0.0000E+00  0.0000E+00  0.0000E+00
     -6.807  0.0000E+00  0.0000E+00  0.0000E+00
     -6.734  0.0000E+00  0.0000E+00  0.0000E+00
     -6.660  0.0000E+00  0.0000E+00  0.0000E+00
     -6.587  0.0000E+00  0.0000E+00  0.0000E+00
     -6.513  0.0000E+00  0.0000E+00  0.0000E+00
     -6.440  0.0000E+00  0.0000E+00  0.0000E+00
     -6.366  0.0000E+00  0.0000E+00  0.0000E+00
     -6.293  0.0000E+00  0.0000E+00  0.0000E+00
     -6.219  0.0000E+00  0.0000E+00  0.0000E+00
     -6.146  0.0000E+00  0.0000E+00  0.0000E+00
     -6.072  0.0000E+00  0.0000E+00  0.0000E+00
     -5.999  0.0000E+00  0.0000E+00  0.0000E+00
     -5.926  0.3731E-10  0.7076E-04  0.1661E+00
     -5.852  0.3954E-02  0.8636E-02  0.1744E+02
     -5.779  0.1233E-01  0.1768E-01  0.3284E+02
     -5.705  0.2272E-01  0.9647E-03  0.1095E+02
     -5.632  0.7149E-02  0.6110E-03  0.4159E+02
     -5.558  0.2509E-01  0.1309E-02  0.2485E+01
     -5.485  0.2809E-01  0.2223E-02  0.2163E+01
     -5.411  0.9365E-05  0.1188E-05  0.6913E-03
     -5.338  0.4250E-01  0.7677E-02  0.3648E+01
     -5.264  0.2590E-01  0.8547E-02  0.2670E+01
     -5.191  0.3063E-01  0.1330E-01  0.4026E+01
     -5.117  0.1389E-01  0.2007E-01  0.4136E+01
     -5.044  0.1654E-20  0.2848E-02  0.5180E+00
     -4.970  0.0000E+00  0.0000E+00  0.0000E+00
     -4.897  0.0000E+00  0.0000E+00  0.0000E+00
     -4.823  0.0000E+00  0.0000E+00  0.0000E+00
     -4.750  0.0000E+00  0.0000E+00  0.0000E+00
     -4.676  0.0000E+00  0.0000E+00  0.0000E+00
     -4.603  0.0000E+00  0.0000E+00  0.0000E+00
     -4.529  0.0000E+00  0.0000E+00  0.0000E+00
     -4.456  0.0000E+00  0.0000E+00  0.0000E+00
     -4.382  0.0000E+00  0.0000E+00  0.0000E+00
     -4.309  0.0000E+00  0.0000E+00  0.0000E+00
     -4.235  0.0000E+00  0.0000E+00  0.0000E+00
     -4.162  0.0000E+00  0.0000E+00  0.0000E+00
     -4.088  0.0000E+00  0.0000E+00  0.0000E+00
     -4.015  0.0000E+00  0.0000E+00  0.0000E+00
     -3.941  0.0000E+00  0.0000E+00  0.0000E+00
     -3.868  0.0000E+00  0.0000E+00  0.0000E+00
     -3.794  0.0000E+00  0.0000E+00  0.0000E+00
     -3.721  0.0000E+00  0.0000E+00  0.0000E+00
     -3.647  0.0000E+00  0.0000E+00  0.0000E+00
     -3.574  0.0000E+00  0.0000E+00  0.0000E+00
     -3.501  0.0000E+00  0.0000E+00  0.0000E+00
     -3.427  0.0000E+00  0.0000E+00  0.0000E+00
     -3.354  0.0000E+00  0.0000E+00  0.0000E+00
     -3.280  0.0000E+00  0.0000E+00  0.0000E+00