    8    8  100    1
  0.3394927E+02  0.6476000E-09  0.6476000E-09  0.6476000E-09  0.5000000E-15
  1.000000000000000E-004
  CAR 
 Name                                    
     72     10     48
 
  0.0000000E+00  0.0000000E+00  0.0000000E+00  0.1562500E-01
    1       -8.818191
    2       -8.299044
    3       -8.299044
    4       -8.299044
    5       -5.926713
    6       -5.926713
    7       -5.926713
    8       -5.770409
    9       -5.770409
   10       -5.770409
   11       -5.761928
   12       -5.761928
   13       -5.761928
   14       -5.761928
   15       -5.761928
   16       -5.761928
   17       -5.664772
   18       -5.664772
   19       -5.633970
   20       -5.633970
   21       -5.633970
   22       -5.169786
   23       -5.169786
   24       -5.169786
   25       -1.949879
   26       -1.949879
   27       -1.949879
   28        0.496293
   29        0.496293
   30        0.496293
   31        0.496293
   32        0.496293
   33        0.496293
   34        2.368506
   35        2.368506
   36        2.368506
   37        3.146531
   38        4.970077
   39        4.970077
   40        4.970077
   41        5.037605
   42        5.037605
   43        5.037605
   44        6.968368
   45        6.968368
   46        6.968368
   47        9.835681
   48       11.223349
 
  0.2500000E+00  0.0000000E+00  0.0000000E+00  0.9375000E-01
    1       -8.740176
    2       -8.370954
    3       -8.299905
    4       -8.299905
    5       -5.904801
    6       -5.904801
    7       -5.880394
    8       -5.790554
    9       -5.790554
   10       -5.788503
   11       -5.788503
   12       -5.783511
   13       -5.783511
   14       -5.760979
   15       -5.726687
   16       -5.726687
   17       -5.671149
   18       -5.660268
   19       -5.644370
   20       -5.644370
   21       -5.638501
   22       -5.365467
   23       -5.127644
   24       -5.127644
   25       -1.892610
   26       -1.892610
   27       -1.451331
   28        0.258299
   29        0.258299
   30        0.319648
   31        0.319648
   32        0.707139
   33        0.707139
   34        1.115664
   35        1.991583
   36        1.991583
   37        4.422529
   38        5.003435
   39        5.379291
   40        5.675021
   41        5.675021
   42        5.682926
   43        5.682926
   44        6.366193
   45        7.538999
   46        7.538999
   47        9.834468
   48        9.863436
 
  0.5000000E+00  0.0000000E+00  0.0000000E+00  0.4687500E-01
    1       -8.552620
    2       -8.552620
    3       -8.300758
    4       -8.300758
    5       -5.848971
    6       -5.848971
    7       -5.848971
    8       -5.848971
    9       -5.802818
   10       -5.802818
   11       -5.798038
   12       -5.798038
   13       -5.766878
   14       -5.766878
   15       -5.694224
   16       -5.694224
   17       -5.664624
   18       -5.664624
   19       -5.649399
   20       -5.649399
   21       -5.635649
   22       -5.635649
   23       -5.087353
   24       -5.087353
   25       -1.826588
   26       -1.826588
   27       -0.302676
   28       -0.302676
   29        0.034541
   30        0.034541
   31        0.161918
   32        0.161918
   33        1.277135
   34        1.277135
   35        1.277135
   36        1.277135
   37        5.311832
   38        5.311832
   39        5.708262
   40        5.708262
   41        6.632148
   42        6.632148
   43        7.051123
   44        7.051123
   45        7.936185
   46        7.936185
   47        8.660420
   48        8.660420
 
  0.2500000E+00  0.2500000E+00  0.0000000E+00  0.1875000E+00
    1       -8.673245
    2       -8.360607
    3       -8.360607
    4       -8.310447
    5       -5.903071
    6       -5.890465
    7       -5.812644
    8       -5.809919
    9       -5.809919
   10       -5.806048
   11       -5.805181
   12       -5.805181
   13       -5.787075
   14       -5.725101
   15       -5.725101
   16       -5.711302
   17       -5.671882
   18       -5.658908
   19       -5.651077
   20       -5.645342
   21       -5.645342
   22       -5.296688
   23       -5.296688
   24       -5.124512
   25       -1.849105
   26       -1.546724
   27       -1.546724
   28       -0.197555
   29        0.321236
   30        0.362895
   31        0.362895
   32        0.731891
   33        0.731891
   34        0.817056
   35        1.588252
   36        2.179818
   37        4.664627
   38        5.263420
   39        5.699567
   40        5.699567
   41        5.938040
   42        5.938040
   43        6.851596
   44        6.892337
   45        7.293929
   46        7.800985
   47        8.451553
   48        8.451553
 
  0.5000000E+00  0.2500000E+00  0.0000000E+00  0.1875000E+00
    1       -8.513865
    2       -8.513865
    3       -8.335616
    4       -8.335616
    5       -5.862545
    6       -5.862545
    7       -5.850572
    8       -5.850572
    9       -5.822772
   10       -5.822772
   11       -5.809926
   12       -5.809926
   13       -5.713323
   14       -5.713323
   15       -5.689307
   16       -5.689307
   17       -5.662947
   18       -5.662947
   19       -5.655233
   20       -5.655233
   21       -5.578639
   22       -5.578639
   23       -5.176298
   24       -5.176298
   25       -1.729584
   26       -1.729584
   27       -0.723866
   28       -0.723866
   29       -0.136377
   30       -0.136377
   31        0.859040
   32        0.859040
   33        0.872759
   34        0.872759
   35        1.546819
   36        1.546819
   37        5.495440
   38        5.495440
   39        6.006032
   40        6.006032
   41        6.360206
   42        6.360206
   43        7.352026
   44        7.352026
   45        7.793713
   46        7.793713
   47        7.861495
   48        7.861495
 
  0.5000000E+00  0.5000000E+00  0.0000000E+00  0.4687500E-01
    1       -8.422779
    2       -8.422779
    3       -8.422779
    4       -8.422779
    5       -5.846360
    6       -5.846360
    7       -5.846360
    8       -5.846360
    9       -5.844473
   10       -5.844473
   11       -5.844473
   12       -5.844473
   13       -5.672791
   14       -5.672791
   15       -5.672791
   16       -5.672791
   17       -5.672088
   18       -5.672088
   19       -5.672088
   20       -5.672088
   21       -5.388393
   22       -5.388393
   23       -5.388393
   24       -5.388393
   25       -1.351812
   26       -1.351812
   27       -1.351812
   28       -1.351812
   29        0.213498
   30        0.213498
   31        0.213498
   32        0.213498
   33        1.558645
   34        1.558645
   35        1.558645
   36        1.558645
   37        5.513587
   38        5.513587
   39        5.513587
   40        5.513587
   41        7.580691
   42        7.580691
   43        7.580691
   44        7.580691
   45        8.036391
   46        8.036391
   47        8.036391
   48        8.036391
 
  0.2500000E+00  0.2500000E+00  0.2500000E+00  0.1250000E+00
    1       -8.617606
    2       -8.360340
    3       -8.360340
    4       -8.360340
    5       -5.890765
    6       -5.890765
    7       -5.829637
    8       -5.829637
    9       -5.829637
   10       -5.810631
   11       -5.810631
   12       -5.810631
   13       -5.727011
   14       -5.705880
   15       -5.705880
   16       -5.705880
   17       -5.665156
   18       -5.665156
   19       -5.648633
   20       -5.648633
   21       -5.648633
   22       -5.255437
   23       -5.255437
   24       -5.255437
   25       -1.719430
   26       -1.719430
   27       -1.719430
   28       -0.363821
   29        0.281917
   30        0.281917
   31        0.281917
   32        0.985107
   33        0.985107
   34        0.985107
   35        1.937918
   36        1.937918
   37        4.362917
   38        5.338148
   39        5.338148
   40        5.338148
   41        6.880568
   42        6.880568
   43        6.880568
   44        7.518826
   45        7.518826
   46        7.743911
   47        8.554157
   48        8.554157
 
  0.5000000E+00  0.2500000E+00  0.2500000E+00  0.1875000E+00
    1       -8.486087
    2       -8.486087
    3       -8.360088
    4       -8.360088
    5       -5.866776
    6       -5.866776
    7       -5.855771
    8       -5.855771
    9       -5.837671
   10       -5.837671
   11       -5.825301
   12       -5.825301
   13       -5.688184
   14       -5.688184
   15       -5.680427
   16       -5.680427
   17       -5.659282
   18       -5.659282
   19       -5.652872
   20       -5.652872
   21       -5.516225
   22       -5.516225
   23       -5.214052
   24       -5.214052
   25       -1.879286
   26       -1.879286
   27       -1.214066
   28       -1.214066
   29        0.295090
   30        0.295090
   31        1.096419
   32        1.096419
   33        1.302997
   34        1.302997
   35        1.426429
   36        1.426429
   37        4.953438
   38        4.953438
   39        5.609827
   40        5.609827
   41        6.965462
   42        6.965462
   43        6.998977
   44        6.998977
   45        8.159889
   46        8.159890
   47        8.286975
   48        8.287052
 
  0.5000000E+00  0.5000000E+00  0.2500000E+00  0.9375000E-01
    1       -8.421427
    2       -8.421427
    3       -8.421427
    4       -8.421427
    5       -5.855114
    6       -5.855114
    7       -5.855114
    8       -5.855114
    9       -5.854681
   10       -5.854681
   11       -5.854681
   12       -5.854681
   13       -5.663864
   14       -5.663864
   15       -5.663864
   16       -5.663864
   17       -5.662763
   18       -5.662763
   19       -5.662763
   20       -5.662763
   21       -5.350656
   22       -5.350656
   23       -5.350656
   24       -5.350656
   25       -1.775507
   26       -1.775507
   27       -1.775507
   28       -1.775507
   29        0.905616
   30        0.905616
   31        0.905616
   32        0.905616
   33        1.574275
   34        1.574275
   35        1.574275
   36        1.574275
   37        4.887714
   38        4.887714
   39        4.887714
   40        4.887714
   41        7.324408
   42        7.324408
   43        7.324408
   44        7.324408
   45        7.829188
   46        7.829188
   47        7.829188
   48        7.829188
 
  0.5000000E+00  0.5000000E+00  0.5000000E+00  0.1562500E-01
    1       -8.420045
    2       -8.420045
    3       -8.420045
    4       -8.420045
    5       -5.863101
    6       -5.863101
    7       -5.863101
    8       -5.863101
    9       -5.863101
   10       -5.863101
   11       -5.863101
   12       -5.863101
   13       -5.655688
   14       -5.655688
   15       -5.655688
   16       -5.655688
   17       -5.655688
   18       -5.655688
   19       -5.655688
   20       -5.655688
   21       -5.310061
   22       -5.310061
   23       -5.310061
   24       -5.310061
   25       -2.069161
   26       -2.069161
   27       -2.069161
   28       -2.069161
   29        1.590180
   30        1.590180
   31        1.590180
   32        1.590180
   33        1.590180
   34        1.590180
   35        1.590180
   36        1.590180
   37        4.189662
   38        4.189662
   39        4.189662
   40        4.189662
   41        7.555069
   42        7.555069
   43        7.555069
   44        7.555069
   45        7.555069
   46        7.555069
   47        7.555069
   48        7.555069
