       N       E                     dE             d eps       ncg     rms          rms(c)
DAV:   1     0.457239029854E+03    0.45724E+03   -0.31780E+04   960   0.127E+03
DAV:   2     0.531407102108E+01   -0.45192E+03   -0.43868E+03  1088   0.310E+02
DAV:   3    -0.196538863022E+02   -0.24968E+02   -0.24826E+02  1176   0.728E+01
DAV:   4    -0.199998551004E+02   -0.34597E+00   -0.34586E+00  1152   0.752E+00
DAV:   5    -0.200046207660E+02   -0.47657E-02   -0.47656E-02  1112   0.941E-01    0.112E+01
DAV:   6    -0.191348469772E+02    0.86977E+00   -0.18855E+00  1016   0.977E+00    0.909E+00
DAV:   7    -0.190840958934E+02    0.50751E-01   -0.74229E-01  1048   0.317E+00    0.322E+00
DAV:   8    -0.190844454697E+02   -0.34958E-03   -0.65925E-02  1048   0.191E+00    0.119E+00
DAV:   9    -0.190856890825E+02   -0.12436E-02   -0.76632E-03  1048   0.611E-01    0.286E-01
DAV:  10    -0.190855726730E+02    0.11641E-03   -0.11946E-03  1072   0.241E-01    0.130E-01
DAV:  11    -0.190856987839E+02   -0.12611E-03   -0.58714E-04  1064   0.136E-01    0.409E-02
DAV:  12    -0.190857070737E+02   -0.82898E-05   -0.67793E-05  1064   0.610E-02    0.259E-02
DAV:  13    -0.190857201172E+02   -0.13044E-04   -0.36142E-05  1000   0.177E-02    0.435E-02
DAV:  14    -0.190857184703E+02    0.16469E-05   -0.92512E-06   912   0.154E-02    0.833E-03
DAV:  15    -0.190857192374E+02   -0.76709E-06   -0.17090E-06   776   0.403E-03
   1 F= -.19085719E+02 E0= -.19085719E+02  d E =-.190857E+02
