PROCAR new format
# of k-points:   10         # of bands:  48         # of ions:   8

 k-point    1 :    0.00000000 0.00000000 0.00000000     weight = 0.01562500

band   1 # energy   -8.81819094 # occ.  2.00000000
 
ion      s      p      d    tot
  1  0.016  0.000  0.000  0.016
  2  0.016  0.000  0.000  0.016
  3  0.016  0.000  0.000  0.016
  4  0.016  0.000  0.000  0.016
  5  0.142  0.000  0.000  0.142
  6  0.142  0.000  0.000  0.142
  7  0.142  0.000  0.000  0.142
  8  0.142  0.000  0.000  0.142
tot  0.633  0.000  0.000  0.633
 
band   2 # energy   -8.29904405 # occ.  2.00000000
 
ion      s      p      d    tot
  1  0.000  0.003  0.037  0.040
  2  0.000  0.003  0.037  0.040
  3  0.000  0.003  0.037  0.040
  4  0.000  0.003  0.037  0.040
  5  0.018  0.000  0.000  0.018
  6  0.199  0.000  0.000  0.199
  7  0.197  0.000  0.000  0.197
  8  0.157  0.000  0.000  0.157
tot  0.571  0.014  0.146  0.731
 
band   3 # energy   -8.29904405 # occ.  2.00000000
 
ion      s      p      d    tot
  1  0.000  0.003  0.037  0.040
  2  0.000  0.003  0.037  0.040
  3  0.000  0.003  0.037  0.040
  4  0.000  0.003  0.037  0.040
  5  0.117  0.000  0.000  0.117
  6  0.108  0.000  0.000  0.108
  7  0.213  0.000  0.000  0.213
  8  0.134  0.000  0.000  0.134
tot  0.571  0.014  0.146  0.731
 
band   4 # energy   -8.29904405 # occ.  2.00000000
 
ion      s      p      d    tot
  1  0.000  0.003  0.037  0.040
  2  0.000  0.003  0.037  0.040
  3  0.000  0.003  0.037  0.040
  4  0.000  0.003  0.037  0.040
  5  0.294  0.000  0.000  0.294
  6  0.121  0.000  0.000  0.121
  7  0.019  0.000  0.000  0.019
  8  0.137  0.000  0.000  0.137
tot  0.571  0.014  0.146  0.731
 
band   5 # energy   -5.92671326 # occ.  2.00000000
 
ion      s      p      d    tot
  1  0.000  0.000  0.226  0.226
  2  0.000  0.000  0.226  0.226
  3  0.000  0.000  0.226  0.226
  4  0.000  0.000  0.226  0.226
  5  0.000  0.005  0.000  0.005
  6  0.000  0.005  0.000  0.005
  7  0.000  0.005  0.000  0.005
  8  0.000  0.005  0.000  0.005
tot  0.000  0.021  0.905  0.926
 
band   6 # energy   -5.92671326 # occ.  2.00000000
 
ion      s      p      d    tot
  1  0.000  0.000  0.226  0.226
  2  0.000  0.000  0.226  0.226
  3  0.000  0.000  0.226  0.226
  4  0.000  0.000  0.226  0.226
  5  0.000  0.005  0.000  0.005
  6  0.000  0.005  0.000  0.005
  7  0.000  0.005  0.000  0.005
  8  0.000  0.005  0.000  0.005
tot  0.000  0.021  0.905  0.926
 
band   7 # energy   -5.92671326 # occ.  2.00000000
 
ion      s      p      d    tot
  1  0.000  0.000  0.226  0.226
  2  0.000  0.000  0.226  0.226
  3  0.000  0.000  0.226  0.226
  4  0.000  0.000  0.226  0.226
  5  0.000  0.005  0.000  0.005
  6  0.000  0.005  0.000  0.005
  7  0.000  0.005  0.000  0.005
  8  0.000  0.005  0.000  0.005
tot  0.000  0.021  0.905  0.926
 
band   8 # energy   -5.77040943 # occ.  2.00000000
 
ion      s      p      d    tot
  1  0.000  0.000  0.248  0.249
  2  0.000  0.000  0.209  0.210
  3  0.000  0.000  0.207  0.208
  4  0.000  0.000  0.248  0.248
  5  0.000  0.002  0.000  0.002
  6  0.000  0.002  0.000  0.002
  7  0.000  0.002  0.000  0.002
  8  0.000  0.002  0.000  0.002
tot  0.001  0.008  0.914  0.923
 
band   9 # energy   -5.77040943 # occ.  2.00000000
 
ion      s      p      d    tot
  1  0.000  0.000  0.260  0.260
  2  0.000  0.000  0.201  0.202
  3  0.000  0.000  0.199  0.200
  4  0.000  0.000  0.253  0.253
  5  0.000  0.002  0.000  0.002
  6  0.000  0.002  0.000  0.002
  7  0.000  0.002  0.000  0.002
  8  0.000  0.002  0.000  0.002
tot  0.001  0.008  0.914  0.923
 
band  10 # energy   -5.77040943 # occ.  2.00000000
 
ion      s      p      d    tot
  1  0.001  0.000  0.177  0.177
  2  0.000  0.000  0.274  0.275
  3  0.000  0.000  0.279  0.279
  4  0.001  0.000  0.184  0.184
  5  0.000  0.002  0.000  0.002
  6  0.000  0.002  0.000  0.002
  7  0.000  0.002  0.000  0.002
  8  0.000  0.002  0.000  0.002
tot  0.001  0.008  0.914  0.923
 
band  11 # energy   -5.76192827 # occ.  2.00000000
 
ion      s      p      d    tot
  1  0.000  0.000  0.309  0.310
  2  0.000  0.000  0.084  0.084
  3  0.000  0.000  0.327  0.327
  4  0.000  0.000  0.215  0.215
  5  0.000  0.003  0.000  0.003
  6  0.000  0.003  0.000  0.003
  7  0.000  0.003  0.000  0.003
  8  0.000  0.001  0.000  0.001
tot  0.000  0.010  0.937  0.946
 
band  12 # energy   -5.76192827 # occ.  2.00000000
 
ion      s      p      d    tot
  1  0.000  0.000  0.170  0.171
  2  0.000  0.000  0.165  0.165
  3  0.000  0.000  0.407  0.408
  4  0.000  0.000  0.192  0.193
  5  0.000  0.001  0.000  0.002
  6  0.000  0.002  0.000  0.002
  7  0.000  0.004  0.001  0.004
  8  0.000  0.002  0.000  0.003
tot  0.000  0.010  0.937  0.946
 
band  13 # energy   -5.76192827 # occ.  2.00000000
 
ion      s      p      d    tot
  1  0.000  0.000  0.126  0.126
  2  0.000  0.000  0.331  0.331
  3  0.000  0.000  0.353  0.353
  4  0.000  0.000  0.125  0.125
  5  0.000  0.002  0.000  0.003
  6  0.000  0.002  0.000  0.002
  7  0.000  0.002  0.000  0.003
  8  0.000  0.003  0.000  0.003
tot  0.000  0.010  0.937  0.946
 
band  14 # energy   -5.76192827 # occ.  2.00000000
 
ion      s      p      d    tot
  1  0.000  0.000  0.153  0.153
  2  0.000  0.000  0.401  0.401
  3  0.000  0.000  0.037  0.037
  4  0.000  0.000  0.344  0.345
  5  0.000  0.002  0.000  0.002
  6  0.000  0.003  0.000  0.003
  7  0.000  0.003  0.000  0.003
  8  0.000  0.002  0.000  0.002
tot  0.000  0.010  0.937  0.946
 
band  15 # energy   -5.76192827 # occ.  2.00000000
 
ion      s      p      d    tot
  1  0.000  0.000  0.270  0.271
  2  0.000  0.000  0.331  0.331
  3  0.000  0.000  0.137  0.137
  4  0.000  0.000  0.197  0.197
  5  0.000  0.003  0.000  0.003
  6  0.000  0.003  0.000  0.003
  7  0.000  0.001  0.000  0.001
  8  0.000  0.002  0.000  0.003
tot  0.000  0.010  0.937  0.946
 
band  16 # energy   -5.76192827 # occ.  2.00000000
 
ion      s      p      d    tot
  1  0.000  0.000  0.373  0.373
  2  0.000  0.000  0.091  0.091
  3  0.000  0.000  0.142  0.142
  4  0.000  0.000  0.329  0.329
  5  0.000  0.003  0.000  0.003
  6  0.000  0.002  0.000  0.002
  7  0.000  0.001  0.000  0.001
  8  0.000  0.003  0.001  0.004
tot  0.000  0.010  0.937  0.946
 
band  17 # energy   -5.66477205 # occ.  2.00000000
 
ion      s      p      d    tot
  1  0.000  0.000  0.237  0.237
  2  0.000  0.000  0.237  0.237
  3  0.000  0.000  0.237  0.237
  4  0.000  0.000  0.237  0.237
  5  0.000  0.000  0.000  0.000
  6  0.000  0.000  0.000  0.000
  7  0.000  0.000  0.000  0.000
  8  0.000  0.000  0.000  0.000
tot  0.000  0.000  0.947  0.947
 
band  18 # energy   -5.66477205 # occ.  2.00000000
 
ion      s      p      d    tot
  1  0.000  0.000  0.237  0.237
  2  0.000  0.000  0.237  0.237
  3  0.000  0.000  0.237  0.237
  4  0.000  0.000  0.237  0.237
  5  0.000  0.000  0.000  0.000
  6  0.000  0.000  0.000  0.000
  7  0.000  0.000  0.000  0.000
  8  0.000  0.000  0.000  0.000
tot  0.000  0.000  0.947  0.947
 
band  19 # energy   -5.63396970 # occ.  2.00000000
 
ion      s      p      d    tot
  1  0.000  0.000  0.320  0.320
  2  0.000  0.000  0.345  0.345
  3  0.000  0.000  0.087  0.087
  4  0.000  0.000  0.199  0.199
  5  0.000  0.000  0.000  0.000
  6  0.000  0.000  0.000  0.000
  7  0.000  0.000  0.000  0.000
  8  0.000  0.000  0.000  0.000
tot  0.000  0.000  0.951  0.951
 
band  20 # energy   -5.63396970 # occ.  2.00000000
 
ion      s      p      d    tot
  1  0.000  0.000  0.196  0.196
  2  0.000  0.000  0.311  0.311
  3  0.000  0.000  0.272  0.272
  4  0.000  0.000  0.172  0.172
  5  0.000  0.000  0.000  0.000
  6  0.000  0.000  0.000  0.000
  7  0.000  0.000  0.000  0.000
  8  0.000  0.000  0.000  0.000
tot  0.000  0.000  0.951  0.951
 
band  21 # energy   -5.63396970 # occ.  2.00000000
 
ion      s      p      d    tot
  1  0.000  0.000  0.198  0.198
  2  0.000  0.000  0.057  0.057
  3  0.000  0.000  0.355  0.355
  4  0.000  0.000  0.341  0.341
  5  0.000  0.000  0.000  0.000
  6  0.000  0.000  0.000  0.000
  7  0.000  0.000  0.000  0.000
  8  0.000  0.000  0.000  0.000
tot  0.000  0.000  0.951  0.951
 
band  22 # energy   -5.16978609 # occ.  2.00000000
 
ion      s      p      d    tot
  1  0.000  0.001  0.200  0.201
  2  0.000  0.001  0.200  0.201
  3  0.000  0.001  0.200  0.201
  4  0.000  0.001  0.200  0.201
  5  0.042  0.000  0.000  0.042
  6  0.034  0.000  0.000  0.034
  7  0.023  0.000  0.000  0.023
  8  0.011  0.000  0.000  0.011
tot  0.109  0.005  0.801  0.915
 
band  23 # energy   -5.16978609 # occ.  2.00000000
 
ion      s      p      d    tot
  1  0.000  0.001  0.200  0.201
  2  0.000  0.001  0.200  0.201
  3  0.000  0.001  0.200  0.201
  4  0.000  0.001  0.200  0.201
  5  0.018  0.000  0.000  0.018
  6  0.005  0.000  0.000  0.005
  7  0.051  0.000  0.000  0.051
  8  0.036  0.000  0.000  0.037
tot  0.109  0.005  0.801  0.915
 
band  24 # energy   -5.16978609 # occ.  2.00000000
 
ion      s      p      d    tot
  1  0.000  0.001  0.200  0.201
  2  0.000  0.001  0.200  0.201
  3  0.000  0.001  0.200  0.201
  4  0.000  0.001  0.200  0.201
  5  0.023  0.000  0.000  0.023
  6  0.043  0.000  0.000  0.044
  7  0.009  0.000  0.000  0.009
  8  0.035  0.000  0.000  0.035
tot  0.109  0.005  0.801  0.915
 
band  25 # energy   -1.94987877 # occ.  2.00000000
 
ion      s      p      d    tot
  1  0.028  0.000  0.009  0.037
  2  0.056  0.000  0.008  0.064
  3  0.095  0.000  0.005  0.101
  4  0.065  0.000  0.007  0.073
  5  0.000  0.054  0.001  0.055
  6  0.000  0.054  0.001  0.055
  7  0.000  0.054  0.001  0.055
  8  0.000  0.054  0.001  0.055
tot  0.245  0.218  0.033  0.496
 
band  26 # energy   -1.94987877 # occ.  2.00000000
 
ion      s      p      d    tot
  1  0.056  0.000  0.008  0.064
  2  0.062  0.000  0.007  0.069
  3  0.049  0.000  0.008  0.057
  4  0.078  0.000  0.006  0.085
  5  0.000  0.054  0.001  0.055
  6  0.000  0.054  0.001  0.055
  7  0.000  0.054  0.001  0.055
  8  0.000  0.054  0.001  0.055
tot  0.245  0.218  0.033  0.496
 
band  27 # energy   -1.94987877 # occ.  2.00000000
 
ion      s      p      d    tot
  1  0.100  0.000  0.005  0.105
  2  0.066  0.000  0.007  0.073
  3  0.040  0.000  0.009  0.048
  4  0.040  0.000  0.009  0.049
  5  0.000  0.054  0.001  0.055
  6  0.000  0.054  0.001  0.055
  7  0.000  0.054  0.001  0.055
  8  0.000  0.054  0.001  0.055
tot  0.245  0.218  0.033  0.496
 
band  28 # energy    0.49629255 # occ.  2.00000000
 
ion      s      p      d    tot
  1  0.000  0.030  0.007  0.037
  2  0.000  0.010  0.002  0.012
  3  0.000  0.010  0.002  0.013
  4  0.000  0.030  0.007  0.037
  5  0.000  0.117  0.000  0.118
  6  0.000  0.077  0.000  0.077
  7  0.000  0.077  0.000  0.077
  8  0.000  0.104  0.000  0.104
tot  0.000  0.456  0.018  0.474
 
band  29 # energy    0.49629255 # occ.  2.00000000
 
ion      s      p      d    tot
  1  0.000  0.009  0.002  0.011
  2  0.000  0.029  0.006  0.036
  3  0.000  0.033  0.007  0.040
  4  0.000  0.009  0.002  0.012
  5  0.000  0.109  0.000  0.109
  6  0.000  0.070  0.000  0.070
  7  0.000  0.101  0.000  0.101
  8  0.000  0.096  0.000  0.096
tot  0.000  0.456  0.018  0.474
 
band  30 # energy    0.49629255 # occ.  2.00000000
 
ion      s      p      d    tot
  1  0.000  0.008  0.002  0.010
  2  0.000  0.025  0.005  0.030
  3  0.000  0.016  0.003  0.019
  4  0.000  0.032  0.007  0.039
  5  0.000  0.037  0.000  0.037
  6  0.000  0.035  0.000  0.035
  7  0.000  0.149  0.000  0.149
  8  0.000  0.155  0.000  0.155
tot  0.000  0.456  0.018  0.474
 
band  31 # energy    0.49629255 # occ.  2.00000000
 
ion      s      p      d    tot
  1  0.000  0.029  0.006  0.036
  2  0.000  0.015  0.003  0.019
  3  0.000  0.016  0.003  0.019
  4  0.000  0.020  0.004  0.025
  5  0.000  0.109  0.000  0.109
  6  0.000  0.080  0.000  0.080
  7  0.000  0.117  0.000  0.117
  8  0.000  0.070  0.000  0.070
tot  0.000  0.456  0.018  0.474
 
band  32 # energy    0.49629255 # occ.  2.00000000
 
ion      s      p      d    tot
  1  0.000  0.019  0.004  0.024
  2  0.000  0.020  0.004  0.025
  3  0.000  0.023  0.005  0.028
  4  0.000  0.018  0.004  0.022
  5  0.000  0.110  0.000  0.110
  6  0.000  0.148  0.000  0.148
  7  0.000  0.033  0.000  0.033
  8  0.000  0.084  0.000  0.084
tot  0.000  0.456  0.018  0.474
 
band  33 # energy    0.49629255 # occ.  2.00000000
 
ion      s      p      d    tot
  1  0.000  0.024  0.005  0.030
  2  0.000  0.021  0.005  0.026
  3  0.000  0.024  0.005  0.029
  4  0.000  0.011  0.002  0.014
  5  0.000  0.081  0.000  0.081
  6  0.000  0.155  0.000  0.155
  7  0.000  0.087  0.000  0.087
  8  0.000  0.054  0.000  0.054
tot  0.000  0.456  0.018  0.474
 
band  34 # energy    2.36850605 # occ.  2.00000000
 
ion      s      p      d    tot
  1  0.000  0.007  0.020  0.026
  2  0.000  0.007  0.020  0.026
  3  0.000  0.007  0.020  0.026
  4  0.000  0.007  0.020  0.026
  5  0.000  0.124  0.000  0.124
  6  0.000  0.124  0.000  0.124
  7  0.000  0.124  0.000  0.124
  8  0.000  0.124  0.000  0.124
tot  0.000  0.523  0.079  0.601
 
band  35 # energy    2.36850605 # occ.  2.00000000
 
ion      s      p      d    tot
  1  0.000  0.007  0.020  0.026
  2  0.000  0.007  0.020  0.026
  3  0.000  0.007  0.020  0.026
  4  0.000  0.007  0.020  0.026
  5  0.000  0.124  0.000  0.124
  6  0.000  0.124  0.000  0.124
  7  0.000  0.124  0.000  0.124
  8  0.000  0.124  0.000  0.124
tot  0.000  0.523  0.079  0.601
 
band  36 # energy    2.36850605 # occ.  2.00000000
 
ion      s      p      d    tot
  1  0.000  0.007  0.020  0.026
  2  0.000  0.007  0.020  0.026
  3  0.000  0.007  0.020  0.026
  4  0.000  0.007  0.020  0.026
  5  0.000  0.124  0.000  0.124
  6  0.000  0.124  0.000  0.124
  7  0.000  0.124  0.000  0.124
  8  0.000  0.124  0.000  0.124
tot  0.000  0.523  0.079  0.601
 
band  37 # energy    3.14653093 # occ.  0.00000000
 
ion      s      p      d    tot
  1  0.078  0.000  0.000  0.078
  2  0.078  0.000  0.000  0.078
  3  0.078  0.000  0.000  0.078
  4  0.078  0.000  0.000  0.078
  5  0.060  0.000  0.000  0.060
  6  0.060  0.000  0.000  0.060
  7  0.060  0.000  0.000  0.060
  8  0.060  0.000  0.000  0.060
tot  0.552  0.000  0.000  0.552
 
band  38 # energy    4.97007743 # occ.  0.00000000
 
ion      s      p      d    tot
  1  0.000  0.024  0.009  0.033
  2  0.000  0.024  0.009  0.033
  3  0.000  0.024  0.009  0.033
  4  0.000  0.024  0.009  0.033
  5  0.008  0.000  0.011  0.019
  6  0.030  0.000  0.003  0.033
  7  0.010  0.000  0.011  0.021
  8  0.001  0.000  0.014  0.015
tot  0.049  0.098  0.075  0.222
 
band  39 # energy    4.97007743 # occ.  0.00000000
 
ion      s      p      d    tot
  1  0.000  0.024  0.009  0.033
  2  0.000  0.024  0.009  0.033
  3  0.000  0.024  0.009  0.033
  4  0.000  0.024  0.009  0.033
  5  0.028  0.000  0.004  0.031
  6  0.002  0.000  0.014  0.016
  7  0.012  0.000  0.010  0.022
  8  0.007  0.000  0.012  0.019
tot  0.049  0.098  0.075  0.222
 
band  40 # energy    4.97007743 # occ.  0.00000000
 
ion      s      p      d    tot
  1  0.000  0.024  0.009  0.033
  2  0.000  0.024  0.009  0.033
  3  0.000  0.024  0.009  0.033
  4  0.000  0.024  0.009  0.033
  5  0.001  0.000  0.014  0.015
  6  0.005  0.000  0.013  0.018
  7  0.015  0.000  0.009  0.023
  8  0.029  0.000  0.003  0.032
tot  0.049  0.098  0.075  0.222
 
band  41 # energy    5.03760504 # occ.  0.00000000
 
ion      s      p      d    tot
  1  0.031  0.000  0.011  0.043
  2  0.046  0.000  0.010  0.056
  3  0.061  0.000  0.009  0.069
  4  0.072  0.000  0.008  0.080
  5  0.000  0.026  0.013  0.039
  6  0.000  0.026  0.013  0.039
  7  0.000  0.026  0.013  0.039
  8  0.000  0.026  0.013  0.039
tot  0.210  0.102  0.092  0.404
 
band  42 # energy    5.03760504 # occ.  0.00000000
 
ion      s      p      d    tot
  1  0.066  0.000  0.008  0.074
  2  0.059  0.000  0.009  0.068
  3  0.073  0.000  0.008  0.080
  4  0.012  0.000  0.013  0.025
  5  0.000  0.026  0.013  0.039
  6  0.000  0.026  0.013  0.039
  7  0.000  0.026  0.013  0.039
  8  0.000  0.026  0.013  0.039
tot  0.210  0.102  0.092  0.404
 
band  43 # energy    5.03760504 # occ.  0.00000000
 
ion      s      p      d    tot
  1  0.060  0.000  0.009  0.069
  2  0.053  0.000  0.009  0.062
  3  0.024  0.000  0.012  0.036
  4  0.073  0.000  0.008  0.081
  5  0.000  0.026  0.013  0.039
  6  0.000  0.026  0.013  0.039
  7  0.000  0.026  0.013  0.039
  8  0.000  0.026  0.013  0.039
tot  0.210  0.102  0.092  0.404
 
band  44 # energy    6.96836831 # occ.  0.00000000
 
ion      s      p      d    tot
  1  0.000  0.061  0.000  0.061
  2  0.000  0.061  0.000  0.061
  3  0.000  0.061  0.000  0.061
  4  0.000  0.061  0.000  0.061
  5  0.000  0.002  0.024  0.026
  6  0.000  0.002  0.024  0.026
  7  0.000  0.002  0.024  0.026
  8  0.000  0.002  0.024  0.026
tot  0.000  0.251  0.095  0.346
 
band  45 # energy    6.96836831 # occ.  0.00000000
 
ion      s      p      d    tot
  1  0.000  0.061  0.000  0.061
  2  0.000  0.061  0.000  0.061
  3  0.000  0.061  0.000  0.061
  4  0.000  0.061  0.000  0.061
  5  0.000  0.002  0.024  0.026
  6  0.000  0.002  0.024  0.026
  7  0.000  0.002  0.024  0.026
  8  0.000  0.002  0.024  0.026
tot  0.000  0.251  0.095  0.346
 
band  46 # energy    6.96836831 # occ.  0.00000000
 
ion      s      p      d    tot
  1  0.000  0.061  0.000  0.061
  2  0.000  0.061  0.000  0.061
  3  0.000  0.061  0.000  0.061
  4  0.000  0.061  0.000  0.061
  5  0.000  0.002  0.024  0.026
  6  0.000  0.002  0.024  0.026
  7  0.000  0.002  0.024  0.026
  8  0.000  0.002  0.024  0.026
tot  0.000  0.251  0.095  0.346
 
band  47 # energy    9.83568054 # occ.  0.00000000
 
ion      s      p      d    tot
  1  0.058  0.000  0.000  0.058
  2  0.058  0.000  0.000  0.058
  3  0.058  0.000  0.000  0.058
  4  0.058  0.000  0.000  0.058
  5  0.002  0.000  0.000  0.002
  6  0.002  0.000  0.000  0.002
  7  0.002  0.000  0.000  0.002
  8  0.002  0.000  0.000  0.002
tot  0.240  0.000  0.000  0.240
 
band  48 # energy   11.22334883 # occ.  0.00000000
 
ion      s      p      d    tot
  1  0.016  0.000  0.002  0.017
  2  0.022  0.000  0.001  0.023
  3  0.023  0.000  0.001  0.024
  4  0.018  0.000  0.002  0.019
  5  0.000  0.086  0.004  0.090
  6  0.000  0.086  0.004  0.090
  7  0.000  0.086  0.004  0.090
  8  0.000  0.086  0.004  0.090
tot  0.078  0.345  0.022  0.445
 

 k-point    2 :    0.25000000 0.00000000 0.00000000     weight = 0.09375000

band   1 # energy   -8.74017621 # occ.  2.00000000
 
ion      s      p      d    tot
  1  0.014  0.000  0.003  0.018
  2  0.014  0.000  0.003  0.018
  3  0.014  0.000  0.003  0.018
  4  0.014  0.000  0.003  0.018
  5  0.143  0.000  0.000  0.143
  6  0.143  0.000  0.000  0.143
  7  0.143  0.000  0.000  0.143
  8  0.143  0.000  0.000  0.143
tot  0.629  0.002  0.014  0.644
 
band   2 # energy   -8.37095403 # occ.  2.00000000
 
ion      s      p      d    tot
  1  0.003  0.003  0.029  0.035
  2  0.003  0.003  0.029  0.035
  3  0.003  0.003  0.029  0.035
  4  0.003  0.003  0.029  0.035
  5  0.144  0.000  0.000  0.144
  6  0.144  0.000  0.000  0.144
  7  0.144  0.000  0.000  0.144
  8  0.144  0.000  0.000  0.144
tot  0.586  0.012  0.116  0.714
 
band   3 # energy   -8.29990532 # occ.  2.00000000
 
ion      s      p      d    tot
  1  0.000  0.003  0.037  0.040
  2  0.000  0.003  0.037  0.040
  3  0.000  0.003  0.037  0.040
  4  0.000  0.003  0.037  0.040
  5  0.169  0.000  0.000  0.169
  6  0.116  0.000  0.000  0.116
  7  0.116  0.000  0.000  0.116
  8  0.169  0.000  0.000  0.169
tot  0.571  0.014  0.147  0.731
 
band   4 # energy   -8.29990532 # occ.  2.00000000
 
ion      s      p      d    tot
  1  0.000  0.003  0.037  0.040
  2  0.000  0.003  0.037  0.040
  3  0.000  0.003  0.037  0.040
  4  0.000  0.003  0.037  0.040
  5  0.116  0.000  0.000  0.116
  6  0.169  0.000  0.000  0.169
  7  0.169  0.000  0.000  0.169
  8  0.116  0.000  0.000  0.116
tot  0.571  0.014  0.147  0.731
 
band   5 # energy   -5.90480100 # occ.  2.00000000
 
ion      s      p      d    tot
  1  0.000  0.000  0.227  0.227
  2  0.000  0.000  0.227  0.227
  3  0.000  0.000  0.227  0.227
  4  0.000  0.000  0.227  0.227
  5  0.000  0.005  0.000  0.005
  6  0.000  0.005  0.000  0.005
  7  0.000  0.005  0.000  0.005
  8  0.000  0.005  0.000  0.005
tot  0.000  0.020  0.908  0.928
 
band   6 # energy   -5.90480100 # occ.  2.00000000
 
ion      s      p      d    tot
  1  0.000  0.000  0.227  0.227
  2  0.000  0.000  0.227  0.227
  3  0.000  0.000  0.227  0.227
  4  0.000  0.000  0.227  0.227
  5  0.000  0.005  0.000  0.005
  6  0.000  0.005  0.000  0.005
  7  0.000  0.005  0.000  0.005
  8  0.000  0.005  0.000  0.005
tot  0.000  0.020  0.908  0.928
 
band   7 # energy   -5.88039395 # occ.  2.00000000
 
ion      s      p      d    tot
  1  0.001  0.000  0.222  0.223
  2  0.001  0.000  0.222  0.223
  3  0.001  0.000  0.222  0.223
  4  0.001  0.000  0.222  0.223
  5  0.001  0.005  0.000  0.007
  6  0.001  0.005  0.000  0.007
  7  0.001  0.005  0.000  0.007
  8  0.001  0.005  0.000  0.007
tot  0.008  0.021  0.888  0.917
 
band   8 # energy   -5.79055441 # occ.  2.00000000
 
ion      s      p      d    tot
  1  0.000  0.000  0.197  0.197
  2  0.000  0.000  0.197  0.197
  3  0.000  0.000  0.263  0.263
  4  0.000  0.000  0.263  0.263
  5  0.000  0.003  0.000  0.003
  6  0.000  0.003  0.000  0.003
  7  0.000  0.003  0.000  0.003
  8  0.000  0.003  0.000  0.003
tot  0.000  0.013  0.920  0.933
 
band   9 # energy   -5.79055441 # occ.  2.00000000
 
ion      s      p      d    tot
  1  0.000  0.000  0.263  0.263
  2  0.000  0.000  0.263  0.263
  3  0.000  0.000  0.197  0.197
  4  0.000  0.000  0.197  0.197
  5  0.000  0.003  0.000  0.003
  6  0.000  0.003  0.000  0.003
  7  0.000  0.003  0.000  0.003
  8  0.000  0.003  0.000  0.003
tot  0.000  0.013  0.920  0.933
 
band  10 # energy   -5.78850324 # occ.  2.00000000
 
ion      s      p      d    tot
  1  0.000  0.000  0.232  0.232
  2  0.000  0.000  0.232  0.232
  3  0.000  0.000  0.232  0.232
  4  0.000  0.000  0.232  0.232
  5  0.000  0.003  0.000  0.003
  6  0.000  0.003  0.000  0.003
  7  0.000  0.003  0.000  0.003
  8  0.000  0.003  0.000  0.003
tot  0.000  0.012  0.931  0.942
 
band  11 # energy   -5.78850324 # occ.  2.00000000
 
ion      s      p      d    tot
  1  0.000  0.000  0.232  0.232
  2  0.000  0.000  0.232  0.232
  3  0.000  0.000  0.232  0.232
  4  0.000  0.000  0.232  0.232
  5  0.000  0.003  0.000  0.003
  6  0.000  0.003  0.000  0.003
  7  0.000  0.003  0.000  0.003
  8  0.000  0.003  0.000  0.003
tot  0.000  0.012  0.931  0.942
 
band  12 # energy   -5.78351125 # occ.  2.00000000
 
ion      s      p      d    tot
  1  0.000  0.000  0.233  0.233
  2  0.000  0.000  0.233  0.233
  3  0.000  0.000  0.233  0.233
  4  0.000  0.000  0.233  0.233
  5  0.000  0.002  0.000  0.002
  6  0.000  0.003  0.000  0.003
  7  0.000  0.003  0.000  0.003
  8  0.000  0.002  0.000  0.002
tot  0.000  0.009  0.934  0.943
 
band  13 # energy   -5.78351125 # occ.  2.00000000
 
ion      s      p      d    tot
  1  0.000  0.000  0.233  0.233
  2  0.000  0.000  0.233  0.233
  3  0.000  0.000  0.233  0.233
  4  0.000  0.000  0.233  0.233
  5  0.000  0.003  0.000  0.003
  6  0.000  0.002  0.000  0.002
  7  0.000  0.002  0.000  0.002
  8  0.000  0.003  0.000  0.003
tot  0.000  0.009  0.934  0.943
 
band  14 # energy   -5.76097863 # occ.  2.00000000
 
ion      s      p      d    tot
  1  0.000  0.000  0.228  0.228
  2  0.000  0.000  0.228  0.228
  3  0.000  0.000  0.228  0.228
  4  0.000  0.000  0.228  0.228
  5  0.000  0.002  0.000  0.003
  6  0.000  0.002  0.000  0.003
  7  0.000  0.002  0.000  0.003
  8  0.000  0.002  0.000  0.003
tot  0.003  0.009  0.912  0.924
 
band  15 # energy   -5.72668723 # occ.  2.00000000
 
ion      s      p      d    tot
  1  0.000  0.000  0.201  0.201
  2  0.000  0.000  0.201  0.201
  3  0.000  0.000  0.266  0.266
  4  0.000  0.000  0.266  0.266
  5  0.000  0.001  0.000  0.001
  6  0.000  0.001  0.000  0.001
  7  0.000  0.001  0.000  0.001
  8  0.000  0.001  0.000  0.001
tot  0.001  0.004  0.935  0.940
 
band  16 # energy   -5.72668723 # occ.  2.00000000
 
ion      s      p      d    tot
  1  0.000  0.000  0.266  0.266
  2  0.000  0.000  0.266  0.266
  3  0.000  0.000  0.201  0.201
  4  0.000  0.000  0.201  0.201
  5  0.000  0.001  0.000  0.001
  6  0.000  0.001  0.000  0.001
  7  0.000  0.001  0.000  0.001
  8  0.000  0.001  0.000  0.001
tot  0.001  0.004  0.935  0.940
 
band  17 # energy   -5.67114893 # occ.  2.00000000
 
ion      s      p      d    tot
  1  0.000  0.000  0.236  0.236
  2  0.000  0.000  0.236  0.236
  3  0.000  0.000  0.236  0.236
  4  0.000  0.000  0.236  0.236
  5  0.000  0.000  0.000  0.000
  6  0.000  0.000  0.000  0.000
  7  0.000  0.000  0.000  0.000
  8  0.000  0.000  0.000  0.000
tot  0.000  0.000  0.946  0.946
 
band  18 # energy   -5.66026846 # occ.  2.00000000
 
ion      s      p      d    tot
  1  0.000  0.000  0.237  0.237
  2  0.000  0.000  0.237  0.237
  3  0.000  0.000  0.237  0.237
  4  0.000  0.000  0.237  0.237
  5  0.000  0.000  0.000  0.000
  6  0.000  0.000  0.000  0.000
  7  0.000  0.000  0.000  0.000
  8  0.000  0.000  0.000  0.000
tot  0.000  0.000  0.948  0.948
 
band  19 # energy   -5.64437049 # occ.  2.00000000
 
ion      s      p      d    tot
  1  0.000  0.000  0.369  0.369
  2  0.000  0.000  0.369  0.369
  3  0.000  0.000  0.106  0.106
  4  0.000  0.000  0.106  0.106
  5  0.000  0.000  0.000  0.000
  6  0.000  0.000  0.000  0.000
  7  0.000  0.000  0.000  0.000
  8  0.000  0.000  0.000  0.000
tot  0.000  0.000  0.949  0.949
 
band  20 # energy   -5.64437049 # occ.  2.00000000
 
ion      s      p      d    tot
  1  0.000  0.000  0.106  0.106
  2  0.000  0.000  0.106  0.106
  3  0.000  0.000  0.369  0.369
  4  0.000  0.000  0.369  0.369
  5  0.000  0.000  0.000  0.000
  6  0.000  0.000  0.000  0.000
  7  0.000  0.000  0.000  0.000
  8  0.000  0.000  0.000  0.000
tot  0.000  0.000  0.949  0.949
 
band  21 # energy   -5.63850137 # occ.  2.00000000
 
ion      s      p      d    tot
  1  0.000  0.000  0.238  0.238
  2  0.000  0.000  0.238  0.238
  3  0.000  0.000  0.238  0.238
  4  0.000  0.000  0.238  0.238
  5  0.000  0.000  0.000  0.000
  6  0.000  0.000  0.000  0.000
  7  0.000  0.000  0.000  0.000
  8  0.000  0.000  0.000  0.000
tot  0.000  0.000  0.951  0.951
 
band  22 # energy   -5.36546748 # occ.  2.00000000
 
ion      s      p      d    tot
  1  0.002  0.001  0.204  0.207
  2  0.002  0.001  0.204  0.207
  3  0.002  0.001  0.204  0.207
  4  0.002  0.001  0.204  0.207
  5  0.018  0.002  0.000  0.020
  6  0.018  0.002  0.000  0.020
  7  0.018  0.002  0.000  0.020
  8  0.018  0.002  0.000  0.020
tot  0.081  0.009  0.816  0.906
 
band  23 # energy   -5.12764414 # occ.  2.00000000
 
ion      s      p      d    tot
  1  0.000  0.001  0.202  0.203
  2  0.000  0.001  0.202  0.203
  3  0.000  0.001  0.202  0.203
  4  0.000  0.001  0.202  0.203
  5  0.019  0.000  0.000  0.019
  6  0.037  0.000  0.000  0.037
  7  0.037  0.000  0.000  0.037
  8  0.019  0.000  0.000  0.019
tot  0.111  0.005  0.807  0.923
 
band  24 # energy   -5.12764414 # occ.  2.00000000
 
ion      s      p      d    tot
  1  0.000  0.001  0.202  0.203
  2  0.000  0.001  0.202  0.203
  3  0.000  0.001  0.202  0.203
  4  0.000  0.001  0.202  0.203
  5  0.037  0.000  0.000  0.037
  6  0.019  0.000  0.000  0.019
  7  0.019  0.000  0.000  0.019
  8  0.037  0.000  0.000  0.037
tot  0.111  0.005  0.807  0.923
 
band  25 # energy   -1.89260959 # occ.  2.00000000
 
ion      s      p      d    tot
  1  0.064  0.000  0.005  0.069
  2  0.064  0.000  0.005  0.069
  3  0.062  0.000  0.005  0.067
  4  0.062  0.000  0.005  0.067
  5  0.000  0.055  0.001  0.056
  6  0.000  0.055  0.001  0.056
  7  0.000  0.055  0.001  0.056
  8  0.000  0.055  0.001  0.056
tot  0.254  0.220  0.023  0.497
 
band  26 # energy   -1.89260959 # occ.  2.00000000
 
ion      s      p      d    tot
  1  0.062  0.000  0.005  0.067
  2  0.062  0.000  0.005  0.067
  3  0.064  0.000  0.005  0.069
  4  0.064  0.000  0.005  0.069
  5  0.000  0.055  0.001  0.056
  6  0.000  0.055  0.001  0.056
  7  0.000  0.055  0.001  0.056
  8  0.000  0.055  0.001  0.056
tot  0.254  0.220  0.023  0.497
 
band  27 # energy   -1.45133105 # occ.  2.00000000
 
ion      s      p      d    tot
  1  0.055  0.001  0.013  0.069
  2  0.055  0.001  0.013  0.069
  3  0.055  0.001  0.013  0.069
  4  0.055  0.001  0.013  0.069
  5  0.008  0.054  0.001  0.063
  6  0.008  0.054  0.001  0.063
  7  0.008  0.054  0.001  0.063
  8  0.008  0.054  0.001  0.063
tot  0.252  0.221  0.054  0.527
 
band  28 # energy    0.25829851 # occ.  2.00000000
 
ion      s      p      d    tot
  1  0.001  0.022  0.008  0.030
  2  0.001  0.022  0.008  0.030
  3  0.001  0.014  0.007  0.022
  4  0.001  0.014  0.007  0.022
  5  0.000  0.088  0.000  0.088
  6  0.000  0.088  0.000  0.088
  7  0.000  0.088  0.000  0.088
  8  0.000  0.088  0.000  0.088
tot  0.003  0.423  0.031  0.457
 
band  29 # energy    0.25829851 # occ.  2.00000000
 
ion      s      p      d    tot
  1  0.001  0.014  0.007  0.022
  2  0.001  0.014  0.007  0.022
  3  0.001  0.022  0.008  0.030
  4  0.001  0.022  0.008  0.030
  5  0.000  0.088  0.000  0.088
  6  0.000  0.088  0.000  0.088
  7  0.000  0.088  0.000  0.088
  8  0.000  0.088  0.000  0.088
tot  0.003  0.423  0.031  0.457
 
band  30 # energy    0.31964829 # occ.  2.00000000
 
ion      s      p      d    tot
  1  0.000  0.021  0.003  0.024
  2  0.000  0.021  0.003  0.024
  3  0.000  0.021  0.003  0.024
  4  0.000  0.021  0.003  0.024
  5  0.000  0.162  0.000  0.162
  6  0.000  0.013  0.001  0.014
  7  0.000  0.013  0.001  0.014
  8  0.000  0.162  0.000  0.162
tot  0.000  0.433  0.014  0.448
 
band  31 # energy    0.31964829 # occ.  2.00000000
 
ion      s      p      d    tot
  1  0.000  0.021  0.003  0.024
  2  0.000  0.021  0.003  0.024
  3  0.000  0.021  0.003  0.024
  4  0.000  0.021  0.003  0.024
  5  0.000  0.013  0.001  0.014
  6  0.000  0.162  0.000  0.162
  7  0.000  0.162  0.000  0.162
  8  0.000  0.013  0.001  0.014
tot  0.000  0.433  0.014  0.448
 
band  32 # energy    0.70713929 # occ.  2.00000000
 
ion      s      p      d    tot
  1  0.000  0.019  0.006  0.026