 vasp.5.4.1 24Jun15 (build Nov 25 2015 16:01:35) complex                        
  
 executed on         CrayXC-Intel date 2016.06.08  23:48:01
 running on   24 total cores
 distrk:  each k-point on   24 cores,    1 groups
 distr:  one band on NCORES_PER_BAND=   3 cores,    8 groups


--------------------------------------------------------------------------------------------------------


 INCAR:
 POTCAR:    PAW_PBE C 08Apr2002                   
 POTCAR:    PAW_PBE N 08Apr2002                   
 POTCAR:    PAW_PBE H 15Jun2001                   
 POTCAR:    PAW_PBE Pb_d 06Sep2000                
 POTCAR:    PAW_PBE I 08Apr2002                   
 POTCAR:    PAW_PBE C 08Apr2002                   
   VRHFIN =C: s2p2                                                              
   LEXCH  = PE                                                                  
   EATOM  =   147.1560 eV,   10.8157 Ry                                         
                                                                                
   TITEL  = PAW_PBE C 08Apr2002                                                 
   LULTRA =        F    use ultrasoft PP ?                                      
   IUNSCR =        1    unscreen: 0-lin 1-nonlin 2-no                           
   RPACOR =    1.200    partial core radius                                     
   POMASS =   12.011; ZVAL   =    4.000    mass and valenz                      
   RCORE  =    1.500    outmost cutoff radius                                   
   RWIGS  =    1.630; RWIGS  =    0.863    wigner-seitz radius (au A)           
   ENMAX  =  400.000; ENMIN  =  300.000 eV                                      
   ICORE  =        2    local potential                                         
   LCOR   =        T    correct aug charges                                     
   LPAW   =        T    paw PP                                                  
   EAUG   =  644.873                                                            
   DEXC   =    0.000                                                            
   RMAX   =    1.529    core radius for proj-oper                               
   RAUG   =    1.300    factor for augmentation sphere                          
   RDEP   =    1.501    radius for radial grids                                 
   RDEPT  =    1.300    core radius for aug-charge                              
                                                                                
   Atomic configuration                                                         
    4 entries                                                                   
     n  l   j            E        occ.                                          
     1  0  0.50      -273.3789   2.0000                                         
     2  0  0.50       -13.7508   2.0000                                         
     2  1  0.50        -5.2854   2.0000                                         
     3  2  1.50        -5.4423   0.0000                                         
   Description                                                                  
     l       E           TYP  RCUT    TYP  RCUT                                 
     0    -13.7508458     23  1.200                                             
     0     -8.2022199     23  1.200                                             
     1     -5.2854383     23  1.500                                             
     1     34.0145650     23  1.500                                             
     2     -5.4423304      7  1.500                                             
  local pseudopotential read in
  partial core-charges read in
  partial kinetic energy density read in
  atomic valenz-charges read in
  non local Contribution for L=           0  read in
    real space projection operators read in
  non local Contribution for L=           0  read in
    real space projection operators read in
  non local Contribution for L=           1  read in
    real space projection operators read in
  non local Contribution for L=           1  read in
    real space projection operators read in
    PAW grid and wavefunctions read in
 
   number of l-projection  operators is LMAX  =           4
   number of lm-projection operators is LMMAX =           8
 
 POTCAR:    PAW_PBE N 08Apr2002                   
   VRHFIN =N: s2p3                                                              
   LEXCH  = PE                                                                  
   EATOM  =   264.5486 eV,   19.4438 Ry                                         
                                                                                
   TITEL  = PAW_PBE N 08Apr2002                                                 
   LULTRA =        F    use ultrasoft PP ?                                      
   IUNSCR =        1    unscreen: 0-lin 1-nonlin 2-no                           
   RPACOR =    1.200    partial core radius                                     
   POMASS =   14.001; ZVAL   =    5.000    mass and valenz                      
   RCORE  =    1.500    outmost cutoff radius                                   
   RWIGS  =    1.400; RWIGS  =    0.741    wigner-seitz radius (au A)           
   ENMAX  =  400.000; ENMIN  =  300.000 eV                                      
   ICORE  =        2    local potential                                         
   LCOR   =        T    correct aug charges                                     
   LPAW   =        T    paw PP                                                  
   EAUG   =  627.112                                                            
   DEXC   =    0.000                                                            
   RMAX   =    1.529    core radius for proj-oper                               
   RAUG   =    1.300    factor for augmentation sphere                          
   RDEP   =    1.514    radius for radial grids                                 
   RDEPT  =    1.338    core radius for aug-charge                              
                                                                                
   Atomic configuration                                                         
    4 entries                                                                   
     n  l   j            E        occ.                                          
     1  0  0.50      -384.7179   2.0000                                         
     2  0  0.50       -18.5828   2.0000                                         
     2  1  0.50        -7.0898   3.0000                                         
     3  2  1.50        -6.8029   0.0000                                         
   Description                                                                  
     l       E           TYP  RCUT    TYP  RCUT                                 
     0    -18.5828119     23  1.200                                             
     0    -13.5018863     23  1.200                                             
     1     -7.0897853     23  1.500                                             
     1      9.5240782     23  1.500                                             
     2     -6.8029130      7  1.500                                             
  local pseudopotential read in
  partial core-charges read in
  partial kinetic energy density read in
  atomic valenz-charges read in
  non local Contribution for L=           0  read in
    real space projection operators read in
  non local Contribution for L=           0  read in
    real space projection operators read in
  non local Contribution for L=           1  read in
    real space projection operators read in
  non local Contribution for L=           1  read in
    real space projection operators read in
    PAW grid and wavefunctions read in
 
   number of l-projection  operators is LMAX  =           4
   number of lm-projection operators is LMMAX =           8
 
 POTCAR:    PAW_PBE H 15Jun2001                   
   VRHFIN =H: ultrasoft test                                                    
   LEXCH  = PE                                                                  
   EATOM  =    12.4884 eV,    0.9179 Ry                                         
                                                                                
   TITEL  = PAW_PBE H 15Jun2001                                                 
   LULTRA =        F    use ultrasoft PP ?                                      
   IUNSCR =        0    unscreen: 0-lin 1-nonlin 2-no                           
   RPACOR =    0.000    partial core radius                                     
   POMASS =    1.000; ZVAL   =    1.000    mass and valenz                      
   RCORE  =    1.100    outmost cutoff radius                                   
   RWIGS  =    0.700; RWIGS  =    0.370    wigner-seitz radius (au A)           
   ENMAX  =  250.000; ENMIN  =  200.000 eV                                      
   RCLOC  =    0.701    cutoff for local pot                                    
   LCOR   =        T    correct aug charges                                     
   LPAW   =        T    paw PP                                                  
   EAUG   =  400.000                                                            
   RMAX   =    1.123    core radius for proj-oper                               
   RAUG   =    1.200    factor for augmentation sphere                          
   RDEP   =    1.112    radius for radial grids                                 
   RDEPT  =    0.926    core radius for aug-charge                              
                                                                                
   Atomic configuration                                                         
    2 entries                                                                   
     n  l   j            E        occ.                                          
     1  0  0.50        -6.4927   1.0000                                         
     2  1  0.50        -3.4015   0.0000                                         
   Description                                                                  
     l       E           TYP  RCUT    TYP  RCUT                                 
     0     -6.4927494     23  1.100                                             
     0      6.8029130     23  1.100                                             
     1     -4.0817478     23  1.100                                             
  local pseudopotential read in
  atomic valenz-charges read in
  non local Contribution for L=           0  read in
    real space projection operators read in
  non local Contribution for L=           0  read in
    real space projection operators read in
  non local Contribution for L=           1  read in
    real space projection operators read in
    PAW grid and wavefunctions read in
 
   number of l-projection  operators is LMAX  =           3
   number of lm-projection operators is LMMAX =           5
 
 POTCAR:    PAW_PBE Pb_d 06Sep2000                
   VRHFIN =Pb:                                                                  
   LEXCH  = PE                                                                  
   EATOM  =  1661.6185 eV,  122.1255 Ry                                         
                                                                                
   TITEL  = PAW_PBE Pb_d 06Sep2000                                              
   LULTRA =        F    use ultrasoft PP ?                                      
   IUNSCR =        1    unscreen: 0-lin 1-nonlin 2-no                           
   RPACOR =    2.200    partial core radius                                     
   POMASS =  207.200; ZVAL   =   14.000    mass and valenz                      
   RCORE  =    2.500    outmost cutoff radius                                   
   RWIGS  =    3.260; RWIGS  =    1.725    wigner-seitz radius (au A)           
   ENMAX  =  237.835; ENMIN  =  178.376 eV                                      
   ICORE  =        3    local potential                                         
   LCOR   =        T    correct aug charges                                     
   LPAW   =        T    paw PP                                                  
   EAUG   =  391.914                                                            
   DEXC   =    0.000                                                            
   RMAX   =    2.565    core radius for proj-oper                               
   RAUG   =    1.300    factor for augmentation sphere                          
   RDEP   =    2.643    radius for radial grids                                 
   RDEPT  =    2.092    core radius for aug-charge                              
                                                                                
   Atomic configuration                                                         
   16 entries                                                                   
     n  l   j            E        occ.                                          
     1  0  0.50    -88091.8466   2.0000                                         
     2  0  0.50    -15753.4197   2.0000                                         
     2  1  1.50    -13508.1797   6.0000                                         
     3  0  0.50     -3781.7194   2.0000                                         
     3  1  1.50     -3138.2529   6.0000                                         
     3  2  2.50     -2483.2977  10.0000                                         
     4  0  0.50      -856.2895   2.0000                                         
     4  1  1.50      -645.4942   6.0000                                         
     4  2  2.50      -401.8768  10.0000                                         
     4  3  3.50      -132.9059  14.0000                                         
     5  0  0.50      -144.0950   2.0000                                         
     5  1  1.50       -85.7879   6.0000                                         
     5  2  2.50       -21.1769  10.0000                                         
     6  0  0.50       -12.0372   2.0000                                         
     6  1  1.50        -3.4971   2.0000                                         
     5  3  2.50        -2.7212   0.0000                                         
   Description                                                                  
     l       E           TYP  RCUT    TYP  RCUT                                 
     2    -21.1768523     23  2.500                                             
     2      1.3605826     23  2.500                                             
     0    -12.0371562     23  2.500                                             
     0     13.6058260     23  2.500                                             
     1     -3.4971339     23  2.500                                             
     1     13.6058260     23  2.500                                             
     3     -1.3605826      7  2.500                                             
  local pseudopotential read in
  partial core-charges read in
  partial kinetic energy density read in
  atomic valenz-charges read in
  non local Contribution for L=           2  read in
    real space projection operators read in
  non local Contribution for L=           2  read in
    real space projection operators read in
  non local Contribution for L=           0  read in
    real space projection operators read in
  non local Contribution for L=           0  read in
    real space projection operators read in
  non local Contribution for L=           1  read in
    real space projection operators read in
  non local Contribution for L=           1  read in
    real space projection operators read in
    PAW grid and wavefunctions read in
 
   number of l-projection  operators is LMAX  =           6
   number of lm-projection operators is LMMAX =          18
 
 POTCAR:    PAW_PBE I 08Apr2002                   
   VRHFIN =I : s2p5                                                             
   LEXCH  = PE                                                                  
   EATOM  =   315.8678 eV,   23.2156 Ry                                         
                                                                                
   TITEL  = PAW_PBE I 08Apr2002                                                 
   LULTRA =        F    use ultrasoft PP ?                                      
   IUNSCR =        1    unscreen: 0-lin 1-nonlin 2-no                           
   RPACOR =    2.200    partial core radius                                     
   POMASS =  126.904; ZVAL   =    7.000    mass and valenz                      
   RCORE  =    2.300    outmost cutoff radius                                   
   RWIGS  =    2.810; RWIGS  =    1.487    wigner-seitz radius (au A)           
   ENMAX  =  175.647; ENMIN  =  131.735 eV                                      
   ICORE  =        3    local potential                                         
   LCOR   =        T    correct aug charges                                     
   LPAW   =        T    paw PP                                                  
   EAUG   =  370.139                                                            
   DEXC   =    0.000                                                            
   RMAX   =    2.359    core radius for proj-oper                               
   RAUG   =    1.300    factor for augmentation sphere                          
   RDEP   =    2.392    radius for radial grids                                 
   RDEPT  =    2.170    core radius for aug-charge                              
                                                                                
   Atomic configuration                                                         
   13 entries                                                                   
     n  l   j            E        occ.                                          
     1  0  0.50    -32976.3739   2.0000                                         
     2  0  0.50     -5094.5933   2.0000                                         
     2  1  1.50     -4572.0131   6.0000                                         
     3  0  0.50     -1028.2813   2.0000                                         
     3  1  1.50      -859.0250   6.0000                                         
     3  2  2.50      -605.7620  10.0000                                         
     4  0  0.50      -180.5540   2.0000                                         
     4  1  1.50      -127.5306   6.0000                                         
     4  2  2.50       -50.2720  10.0000                                         
     5  0  0.50       -17.4058   2.0000                                         
     5  1  0.50        -7.0851   5.0000                                         
     5  2  1.50        -7.0750   0.0000                                         
     4  3  2.50        -7.0750   0.0000                                         
   Description                                                                  
     l       E           TYP  RCUT    TYP  RCUT                                 
     0    -17.4058016     23  2.300                                             
     0    -18.7663842     23  2.300                                             
     1     -7.0850686     23  2.300                                             
     1     -4.2150896     23  2.300                                             
     2     -7.0750295     23  2.300                                             
     3     -1.3605826     23  2.300                                             
  local pseudopotential read in
  partial core-charges read in
  partial kinetic energy density read in
  atomic valenz-charges read in
  non local Contribution for L=           0  read in
    real space projection operators read in
  non local Contribution for L=           0  read in
    real space projection operators read in
  non local Contribution for L=           1  read in
    real space projection operators read in
  non local Contribution for L=           1  read in
    real space projection operators read in
  non local Contribution for L=           2  read in
    real space projection operators read in
    PAW grid and wavefunctions read in
 
   number of l-projection  operators is LMAX  =           5
   number of lm-projection operators is LMMAX =          13
 

 ----------------------------------------------------------------------------- 
|                                                                             |
|  ADVICE TO THIS USER RUNNING 'VASP/VAMP'   (HEAR YOUR MASTER'S VOICE ...):  |
|                                                                             |
|      You have a (more or less) 'large supercell' and for larger cells       |
|      it might be more efficient to use real space projection opertators     |
|      So try LREAL= Auto  in the INCAR   file.                               |
|      Mind: At the moment your POTCAR file does not contain real space       |
|       projectors, and has to be modified,  BUT if you                       |
|      want to do an extremely  accurate calculation you might also keep the  |
|      reciprocal projection scheme          (i.e. LREAL=.FALSE.)             |
|                                                                             |
 ----------------------------------------------------------------------------- 


 ----------------------------------------------------------------------------- 
|                                                                             |
|  ADVICE TO THIS USER RUNNING 'VASP/VAMP'   (HEAR YOUR MASTER'S VOICE ...):  |
|                                                                             |
|      You enforced a specific xc-type in the INCAR file,                     |
|      a different type was found on the POTCAR file                          |
|          I HOPE YOU KNOW, WHAT YOU ARE  DOING                               |
|                                                                             |
 ----------------------------------------------------------------------------- 

  PAW_PBE C 08Apr2002                   :
 energy of atom  1       EATOM= -147.1560
 kinetic energy error for atom=    0.0032 (will be added to EATOM!!)
  PAW_PBE N 08Apr2002                   :
 energy of atom  2       EATOM= -264.5486
 kinetic energy error for atom=    0.0061 (will be added to EATOM!!)
  PAW_PBE H 15Jun2001                   :
 energy of atom  3       EATOM=  -12.4884
 kinetic energy error for atom=    0.0002 (will be added to EATOM!!)
  PAW_PBE Pb_d 06Sep2000                :
 energy of atom  4       EATOM=-1661.6185
 kinetic energy error for atom=    0.0012 (will be added to EATOM!!)
  PAW_PBE I 08Apr2002                   :
 energy of atom  5       EATOM= -315.8678
 kinetic energy error for atom=    0.0003 (will be added to EATOM!!)
 
 
 POSCAR: C N H Pb I                              
  positions in direct lattice
  No initial velocities read in
 exchange correlation table for  LEXCH =       14
   RHO(1)=    0.500       N(1)  =     2000
   RHO(2)=  100.500       N(2)  =     4000
 


--------------------------------------------------------------------------------------------------------


 ion  position               nearest neighbor table
   1  0.197  0.250  0.229-  25 1.10  33 1.10  17 1.10   9 1.48
   2  0.697  0.250  0.229-  26 1.10  34 1.10  18 1.10  10 1.48
   3  0.197  0.750  0.229-  27 1.10  35 1.10  19 1.10  11 1.48
   4  0.697  0.750  0.229-  28 1.10  36 1.10  20 1.10  12 1.48
   5  0.197  0.250  0.729-  29 1.10  37 1.10  21 1.10  13 1.48
   6  0.697  0.250  0.729-  30 1.10  38 1.10  22 1.10  14 1.48
   7  0.197  0.750  0.729-  31 1.10  39 1.10  23 1.10  15 1.48
   8  0.697  0.750  0.729-  32 1.10  40 1.10  24 1.10  16 1.48
   9  0.307  0.250  0.270-  57 1.04  41 1.05  49 1.05   1 1.48
  10  0.803  0.250  0.278-  58 1.04  42 1.05  50 1.05   2 1.48
  11  0.303  0.750  0.278-  59 1.04  43 1.05  51 1.05   3 1.48
  12  0.807  0.750  0.270-  60 1.04  44 1.05  52 1.05   4 1.48
  13  0.303  0.250  0.778-  61 1.04  45 1.05  53 1.05   5 1.48
  14  0.807  0.250  0.770-  62 1.04  46 1.05  54 1.05   6 1.48
  15  0.307  0.750  0.770-  63 1.04  47 1.05  55 1.05   7 1.48
  16  0.803  0.750  0.778-  64 1.04  48 1.05  56 1.05   8 1.48
  17  0.202  0.250  0.143-   1 1.10
  18  0.708  0.250  0.143-   2 1.10
  19  0.208  0.750  0.143-   3 1.10
  20  0.702  0.750  0.143-   4 1.10
  21  0.208  0.250  0.643-   5 1.10
  22  0.702  0.250  0.643-   6 1.10
  23  0.202  0.750  0.643-   7 1.10
  24  0.708  0.750  0.643-   8 1.10
  25  0.155  0.322  0.257-   1 1.10
  26  0.653  0.322  0.254-   2 1.10
  27  0.153  0.822  0.254-   3 1.10
  28  0.655  0.822  0.257-   4 1.10
  29  0.153  0.322  0.754-   5 1.10
  30  0.655  0.322  0.757-   6 1.10
  31  0.155  0.822  0.757-   7 1.10
  32  0.653  0.822  0.754-   8 1.10
  33  0.156  0.177  0.257-   1 1.10
  34  0.653  0.177  0.254-   2 1.10
  35  0.153  0.677  0.254-   3 1.10
  36  0.656  0.677  0.257-   4 1.10
  37  0.153  0.177  0.754-   5 1.10
  38  0.656  0.177  0.757-   6 1.10
  39  0.156  0.677  0.757-   7 1.10
  40  0.653  0.677  0.754-   8 1.10
  41  0.349  0.318  0.245-   9 1.05
  42  0.847  0.318  0.256-  10 1.05
  43  0.347  0.818  0.256-  11 1.05
  44  0.849  0.818  0.245-  12 1.05
  45  0.347  0.318  0.756-  13 1.05
  46  0.849  0.318  0.745-  14 1.05
  47  0.349  0.818  0.745-  15 1.05
  48  0.847  0.818  0.756-  16 1.05
  49  0.349  0.182  0.245-   9 1.05
  50  0.847  0.182  0.256-  10 1.05
  51  0.347  0.682  0.256-  11 1.05
  52  0.849  0.682  0.245-  12 1.05
  53  0.347  0.182  0.756-  13 1.05
  54  0.849  0.182  0.745-  14 1.05
  55  0.349  0.682  0.745-  15 1.05
  56  0.847  0.682  0.756-  16 1.05
  57  0.309  0.250  0.352-   9 1.04
  58  0.798  0.250  0.360-  10 1.04
  59  0.298  0.750  0.360-  11 1.04
  60  0.809  0.750  0.352-  12 1.04
  61  0.298  0.250  0.860-  13 1.04
  62  0.809  0.250  0.852-  14 1.04
  63  0.309  0.750  0.852-  15 1.04
  64  0.798  0.750  0.860-  16 1.04
  65  0.472  0.499  0.489-  90 3.08  87 3.14  85 3.15  77 3.17  73 3.22  89 3.25
  66  0.972  0.501  0.489-  89 3.08  86 3.14  88 3.15  78 3.17  74 3.22  90 3.25
  67  0.472  0.001  0.489-  92 3.08  87 3.14  85 3.15  79 3.17  75 3.22  91 3.25
  68  0.972  0.999  0.489-  91 3.08  86 3.14  88 3.15  80 3.17  76 3.22  92 3.25
  69  0.472  0.501  0.989-  94 3.08  81 3.14  83 3.15  73 3.17  77 3.22  93 3.25
  70  0.972  0.499  0.989-  93 3.08  84 3.14  82 3.15  74 3.17  78 3.22  94 3.25
  71  0.472  0.999  0.989-  96 3.08  81 3.14  83 3.15  75 3.17  79 3.22  95 3.25
  72  0.972  0.001  0.989-  95 3.08  84 3.14  82 3.15  76 3.17  80 3.22  96 3.25
  73  0.455  0.501  0.238-  69 3.17  65 3.22
  74  0.955  0.499  0.238-  70 3.17  66 3.22
  75  0.455  0.999  0.238-  71 3.17  67 3.22
  76  0.955  0.001  0.238-  72 3.17  68 3.22
  77  0.455  0.499  0.738-  65 3.17  69 3.22
  78  0.955  0.501  0.738-  66 3.17  70 3.22
  79  0.455  0.001  0.738-  67 3.17  71 3.22
  80  0.955  0.999  0.738-  68 3.17  72 3.22
  81  0.458  0.250  0.011-  71 3.14  69 3.14
  82  0.942  0.250  0.012-  72 3.15  70 3.15
  83  0.442  0.750  0.012-  69 3.15  71 3.15
  84  0.958  0.750  0.011-  70 3.14  72 3.14
  85  0.442  0.250  0.512-  67 3.15  65 3.15
  86  0.958  0.250  0.511-  68 3.14  66 3.14
  87  0.458  0.750  0.511-  65 3.14  67 3.14
  88  0.942  0.750  0.512-  66 3.15  68 3.15
  89  0.216  0.509  0.461-  66 3.08  65 3.25
  90  0.716  0.491  0.461-  65 3.08  66 3.25
  91  0.216  0.991  0.461-  68 3.08  67 3.25
  92  0.716  0.009  0.461-  67 3.08  68 3.25
  93  0.216  0.491  0.961-  70 3.08  69 3.25
  94  0.716  0.509  0.961-  69 3.08  70 3.25
  95  0.216  0.009  0.961-  72 3.08  71 3.25
  96  0.716  0.991  0.961-  71 3.08  72 3.25
 
  LATTYP: Found a triclinic cell.
 ALAT       =    17.8238589327
 B/A-ratio  =     0.6989248630
 C/A-ratio  =     1.0156975818
 COS(alpha) =     0.0001355172
 COS(beta)  =     0.5146378593
 COS(gamma) =     0.6988877578
  
  Lattice vectors:
  
 A1 = (  -0.1406063366, -12.4576271275, -12.7466742118)
 A2 = (  -0.0011956322, -12.4575380825,   0.0007464135)
 A3 = ( -12.7162481321,  -0.0020049566, -12.8856194186)


Analysis of symmetry for initial positions (statically):
=====================================================================
 Subroutine PRICEL returns following result:
 
  LATTYP: Found a triclinic cell.
 ALAT       =     8.8524544993
 B/A-ratio  =     1.4072411401
 C/A-ratio  =     1.0225215175
 COS(alpha) =     0.0001355172
 COS(beta)  =     0.5046167836
 COS(gamma) =     0.7037964938
  
  Lattice vectors:
  
 A1 = (   6.2890165300,   6.2297269971,   0.0687261899)
 A2 = (   0.0011956322,  12.4575380825,  -0.0007464135)
 A3 = (   6.3581240661,   0.0010024783,   6.4428097093)
 
   4 primitive cells build up your supercell.
 

 Routine SETGRP: Setting up the symmetry group for a 
 triclinic supercell.


 Subroutine GETGRP returns: Found  1 space group operations
 (whereof  1 operations were pure point group operations)
 out of a pool of  2 trial point group operations.


The static configuration has the point symmetry C_1 .


Analysis of symmetry for dynamics (positions and initial velocities):
=====================================================================
 Subroutine PRICEL returns following result:
 
  LATTYP: Found a triclinic cell.
 ALAT       =     8.8524544993
 B/A-ratio  =     1.4072411401
 C/A-ratio  =     1.0225215175
 COS(alpha) =     0.0001355172
 COS(beta)  =     0.5046167836
 COS(gamma) =     0.7037964938
  
  Lattice vectors:
  
 A1 = (   6.2890165300,   6.2297269971,   0.0687261899)
 A2 = (   0.0011956322,  12.4575380825,  -0.0007464135)
 A3 = (   6.3581240661,   0.0010024783,   6.4428097093)
 
   4 primitive cells build up your supercell.
 

 Routine SETGRP: Setting up the symmetry group for a 
 triclinic supercell.


 Subroutine GETGRP returns: Found  1 space group operations
 (whereof  1 operations were pure point group operations)
 out of a pool of  2 trial point group operations.


The dynamic configuration has the point symmetry C_1 .


 Subroutine INISYM returns: Found  1 space group operations
 (whereof  1 operations are pure point group operations),
 and found     4 'primitive' translations

 
 
 KPOINTS: Automatic 3x3x3                         

Automatic generation of k-mesh.
Space group operators:
 irot       det(A)        alpha          n_x          n_y          n_z        tau_x        tau_y        tau_z
    1     1.000000     0.000000     1.000000     0.000000     0.000000     0.000000     0.000000     0.000000
 
 Subroutine IBZKPT returns following result:
 ===========================================
 
 Found     14 irreducible k-points:
 
 Following reciprocal coordinates:
            Coordinates               Weight
  0.000000  0.000000  0.000000      1.000000
  0.333333 -0.000000 -0.000000      2.000000
  0.000000  0.333333 -0.000000      2.000000
  0.333333  0.333333  0.000000      2.000000
 -0.333333  0.333333  0.000000      2.000000
  0.000000  0.000000  0.333333      2.000000
  0.333333  0.000000  0.333333      2.000000
 -0.333333  0.000000  0.333333      2.000000
  0.000000  0.333333  0.333333      2.000000
  0.333333  0.333333  0.333333      2.000000
 -0.333333  0.333333  0.333333      2.000000
  0.000000 -0.333333  0.333333      2.000000
  0.333333 -0.333333  0.333333      2.000000
 -0.333333 -0.333333  0.333333      2.000000
 
 Following cartesian coordinates:
            Coordinates               Weight
  0.000000  0.000000  0.000000      1.000000
  0.026507 -0.000003 -0.000290      2.000000
 -0.000004  0.026758 -0.000000      2.000000
  0.026503  0.026755 -0.000290      2.000000
 -0.026511  0.026760  0.000290      2.000000
 -0.000287  0.000002  0.026152      2.000000
  0.026220 -0.000001  0.025862      2.000000
 -0.026794  0.000004  0.026442      2.000000
 -0.000291  0.026759  0.026152      2.000000
  0.026215  0.026757  0.025862      2.000000
 -0.026798  0.026762  0.026442      2.000000
 -0.000283 -0.026756  0.026152      2.000000
  0.026224 -0.026759  0.025862      2.000000
 -0.026790 -0.026753  0.026442      2.000000
 


--------------------------------------------------------------------------------------------------------




 Dimension of arrays:
   k-points           NKPTS =     14   k-points in BZ     NKDIM =     14   number of bands    NBANDS=    256
   number of dos      NEDOS =    301   number of ions     NIONS =     96
   non local maximal  LDIM  =      6   non local SUM 2l+1 LMDIM =     18
   total plane-waves  NPLWV = ******
   max r-space proj   IRMAX =      1   max aug-charges    IRDMAX= 314103
   dimension x,y,z NGX =   112 NGY =  108 NGZ =  112
   dimension x,y,z NGXF=   224 NGYF=  216 NGZF=  224
   support grid    NGXF=   448 NGYF=  432 NGZF=  448
   ions per type =               8   8  48   8  24
 NGX,Y,Z   is equivalent  to a cutoff of  14.80, 14.41, 14.61 a.u.
 NGXF,Y,Z  is equivalent  to a cutoff of  29.61, 28.83, 29.21 a.u.


 I would recommend the setting:
   dimension x,y,z NGX =   109 NGY =  107 NGZ =  110
 SYSTEM =  MAPbI3-Cubic                            
 POSCAR =  C N H Pb I                              

 Startparameter for this run:
   NWRITE =      2    write-flag & timer
   PREC   = accura    normal or accurate (medium, high low for compatibility)
   ISTART =      0    job   : 0-new  1-cont  2-samecut
   ICHARG =      2    charge: 1-file 2-atom 10-const
   ISPIN  =      1    spin polarized calculation?
   LNONCOLLINEAR =      F non collinear calculations
   LSORBIT =      F    spin-orbit coupling
   INIWAV =      1    electr: 0-lowe 1-rand  2-diag
   LASPH  =      F    aspherical Exc in radial PAW
   METAGGA=      F    non-selfconsistent MetaGGA calc.

 Electronic Relaxation 1
   ENCUT  =  700.0 eV  51.45 Ry    7.17 a.u.  27.13 26.87 27.50*2*pi/ulx,y,z
   ENINI  =  700.0     initial cutoff
   ENAUG  =  644.9 eV  augmentation charge cutoff
   NELM   =     60;   NELMIN=  2; NELMDL= -5     # of ELM steps 
   EDIFF  = 0.1E-07   stopping-criterion for ELM
   LREAL  =      F    real-space projection
   NLSPLINE    = F    spline interpolate recip. space projectors
   LCOMPAT=      F    compatible to vasp.4.4
   GGA_COMPAT  = T    GGA compatible to vasp.4.4-vasp.4.6
   LMAXPAW     = -100 max onsite density
   LMAXMIX     =    2 max onsite mixed and CHGCAR
   VOSKOWN=      0    Vosko Wilk Nusair interpolation
   ROPT   =    0.00000   0.00000   0.00000   0.00000
   ROPT   =    0.00000
 Ionic relaxation
   EDIFFG = 0.1E-06   stopping-criterion for IOM
   NSW    =      0    number of steps for IOM
   NBLOCK =      1;   KBLOCK =      1    inner block; outer block 
   IBRION =     -1    ionic relax: 0-MD 1-quasi-New 2-CG
   NFREE  =      0    steps in history (QN), initial steepest desc. (CG)
   ISIF   =      2    stress and relaxation
   IWAVPR =     10    prediction:  0-non 1-charg 2-wave 3-comb
   ISYM   =      2    0-nonsym 1-usesym 2-fastsym
   LCORR  =      T    Harris-Foulkes like correction to forces

   POTIM  = 0.5000    time-step for ionic-motion
   TEIN   =    0.0    initial temperature
   TEBEG  =    0.0;   TEEND  =   0.0 temperature during run
   SMASS  =  -3.00    Nose mass-parameter (am)
   estimated Nose-frequenzy (Omega)   =  0.10E-29 period in steps =****** mass=  -0.362E-26a.u.
   SCALEE = 1.0000    scale energy and forces
   NPACO  =    256;   APACO  = 16.0  distance and # of slots for P.C.
   PSTRESS=    0.0 pullay stress

  Mass of Ions in am
   POMASS =  12.01 14.00  1.00207.20126.90
  Ionic Valenz
   ZVAL   =   4.00  5.00  1.00 14.00  7.00
  Atomic Wigner-Seitz radii
   RWIGS  =  -1.00 -1.00 -1.00 -1.00 -1.00
  virtual crystal weights 
   VCA    =   1.00  1.00  1.00  1.00  1.00
   NELECT =     400.0000    total number of electrons
   NUPDOWN=      -1.0000    fix difference up-down

 DOS related values:
   EMIN   =  10.00;   EMAX   =-10.00  energy-range for DOS
   EFERMI =   0.00
   ISMEAR =     0;   SIGMA  =   0.00  broadening in eV -4-tet -1-fermi 0-gaus

 Electronic relaxation 2 (details)
   IALGO  =     38    algorithm
   LDIAG  =      T    sub-space diagonalisation (order eigenvalues)
   LSUBROT=      F    optimize rotation matrix (better conditioning)
   TURBO    =      0    0=normal 1=particle mesh
   IRESTART =      0    0=no restart 2=restart with 2 vectors
   NREBOOT  =      0    no. of reboots
   NMIN     =      0    reboot dimension
   EREF     =   0.00    reference energy to select bands
   IMIX   =      4    mixing-type and parameters
     AMIX     =   0.40;   BMIX     =  1.00
     AMIX_MAG =   1.60;   BMIX_MAG =  1.00
     AMIN     =   0.10
     WC   =   100.;   INIMIX=   1;  MIXPRE=   1;  MAXMIX= -45

 Intra band minimization:
   WEIMIN = 0.0000     energy-eigenvalue tresh-hold
   EBREAK =  0.98E-11  absolut break condition
   DEPER  =   0.30     relativ break condition  

   TIME   =   0.40     timestep for ELM

  volume/ion in A,a.u.               =      20.80       140.38
  Fermi-wavevector in a.u.,A,eV,Ry     =   0.957863  1.810099 12.483376  0.917502
  Thomas-Fermi vector in A             =   2.086919
 
 Write flags
   LWAVE  =      F    write WAVECAR
   LCHARG =      F    write CHGCAR
   LVTOT  =      F    write LOCPOT, total local potential
   LVHAR  =      F    write LOCPOT, Hartree potential only
   LELF   =      F    write electronic localiz. function (ELF)
   LORBIT =      0    0 simple, 1 ext, 2 COOP (PROOUT)


 Dipole corrections
   LMONO  =      F    monopole corrections only (constant potential shift)
   LDIPOL =      F    correct potential (dipole corrections)
   IDIPOL =      0    1-x, 2-y, 3-z, 4-all directions 
   EPSILON=  1.0000000 bulk dielectric constant

 Exchange correlation treatment:
   GGA     =    PS    GGA type
   LEXCH   =    14    internal setting for exchange type
   VOSKOWN=      0    Vosko Wilk Nusair interpolation
   LHFCALC =     F    Hartree Fock is set to
   LHFONE  =     F    Hartree Fock one center treatment
   AEXX    =    0.0000 exact exchange contribution

 Linear response parameters
   LEPSILON=     F    determine dielectric tensor
   LRPA    =     F    only Hartree local field effects (RPA)
   LNABLA  =     F    use nabla operator in PAW spheres
   LVEL    =     F    velocity operator in full k-point grid
   LINTERFAST=   F  fast interpolation
   KINTER  =     0    interpolate to denser k-point grid
   CSHIFT  =0.1000    complex shift for real part using Kramers Kronig
   OMEGAMAX=  -1.0    maximum frequency
   DEG_THRESHOLD= 0.2000000E-02 threshold for treating states as degnerate
   RTIME   =    0.100 relaxation time in fs

 Orbital magnetization related:
   ORBITALMAG=     F  switch on orbital magnetization
   LCHIMAG   =     F  perturbation theory with respect to B field
   DQ        =  0.001000  dq finite difference perturbation B field



--------------------------------------------------------------------------------------------------------


 Static calculation
 charge density and potential will be updated during run
 non-spin polarized calculation
 Variant of blocked Davidson
 Davidson routine will perform the subspace rotation
 perform sub-space diagonalisation
    after iterative eigenvector-optimisation
 modified Broyden-mixing scheme, WC =      100.0
 initial mixing is a Kerker type mixing with AMIX =  0.4000 and BMIX =      1.0000
 Hartree-type preconditioning will be used
 using additional bands           56
 reciprocal scheme for non local part
 use partial core corrections
 calculate Harris-corrections to forces 
   (improved forces if not selfconsistent)
 use gradient corrections 
 use of overlap-Matrix (Vanderbilt PP)
 Gauss-broadening in eV      SIGMA  =   0.00


--------------------------------------------------------------------------------------------------------


  energy-cutoff  :      700.00
  volume of cell :     1996.98
      direct lattice vectors                 reciprocal lattice vectors
    12.576837428  0.001915912  0.138198793     0.079520802 -0.000007684 -0.000869670
     0.001195632 12.457538083 -0.000746413    -0.000012224  0.080272684 -0.000000427
     0.139410704  0.000089045 12.747420625    -0.000862111  0.000004784  0.078456671

  length of vectors
    12.577596840 12.457538162 12.748182927     0.079525558  0.080272685  0.078461408


 
 k-points in units of 2pi/SCALE and weight: Automatic 3x3x3                         
   0.00000000  0.00000000  0.00000000       0.037
   0.02650693 -0.00000256 -0.00028989       0.074
  -0.00000407  0.02675756 -0.00000014       0.074
   0.02650286  0.02675500 -0.00029003       0.074
  -0.02651101  0.02676012  0.00028975       0.074
  -0.00028737  0.00000159  0.02615222       0.074
   0.02621956 -0.00000097  0.02586233       0.074
  -0.02679430  0.00000416  0.02644211       0.074
  -0.00029144  0.02675916  0.02615208       0.074
   0.02621549  0.02675659  0.02586219       0.074
  -0.02679838  0.02676172  0.02644197       0.074
  -0.00028330 -0.02675597  0.02615237       0.074
   0.02622364 -0.02675853  0.02586248       0.074
  -0.02679023 -0.02675341  0.02644226       0.074
 
 k-points in reciprocal lattice and weights: Automatic 3x3x3                         
   0.00000000  0.00000000  0.00000000       0.037
   0.33333333 -0.00000000 -0.00000000       0.074
   0.00000000  0.33333333 -0.00000000       0.074
   0.33333333  0.33333333  0.00000000       0.074
  -0.33333333  0.33333333  0.00000000       0.074
   0.00000000  0.00000000  0.33333333       0.074
   0.33333333  0.00000000  0.33333333       0.074
  -0.33333333  0.00000000  0.33333333       0.074
   0.00000000  0.33333333  0.33333333       0.074
   0.33333333  0.33333333  0.33333333       0.074
  -0.33333333  0.33333333  0.33333333       0.074
   0.00000000 -0.33333333  0.33333333       0.074
   0.33333333 -0.33333333  0.33333333       0.074
  -0.33333333 -0.33333333  0.33333333       0.074
 
 position of ions in fractional coordinates (direct lattice) 
   0.19720858  0.24989138  0.22881842
   0.69677968  0.24992517  0.22901228
   0.19677968  0.74992517  0.22901228
   0.69720858  0.74989138  0.22881842
   0.19677968  0.24992517  0.72901228
   0.69720858  0.24989138  0.72881842
   0.19720858  0.74989138  0.72881842
   0.69677968  0.74992517  0.72901228
   0.30652008  0.24999279  0.26981095
   0.80255436  0.25001449  0.27795764
   0.30255436  0.75001449  0.27795764
   0.80652008  0.74999279  0.26981095
   0.30255436  0.25001449  0.77795764
   0.80652008  0.24999279  0.76981095
   0.30652008  0.74999279  0.76981095
   0.80255436  0.75001449  0.77795764
   0.20199912  0.24980429  0.14255779
   0.70815122  0.24983790  0.14321946
   0.20815122  0.74983790  0.14321946
   0.70199912  0.74980429  0.14255779
   0.20815122  0.24983790  0.64321946
   0.70199912  0.24980429  0.64255779
   0.20199912  0.74980429  0.64255779
   0.70815122  0.74983790  0.64321946
   0.15545967  0.32231099  0.25691479
   0.65321594  0.32239338  0.25411585
   0.15321594  0.82239338  0.25411585
   0.65545967  0.82231099  0.25691479
   0.15321594  0.32239338  0.75411585
   0.65545967  0.32231099  0.75691479
   0.15545967  0.82231099  0.75691479
   0.65321594  0.82239338  0.75411585
   0.15557894  0.17747779  0.25704679
   0.65330673  0.17747436  0.25425462
   0.15330673  0.67747436  0.25425462
   0.65557894  0.67747779  0.25704679
   0.15330673  0.17747436  0.75425462
   0.65557894  0.17747779  0.75704679
   0.15557894  0.67747779  0.75704679
   0.65330673  0.67747436  0.75425462
   0.34933251  0.31784228  0.24519586
   0.84693664  0.31790628  0.25631712
   0.34693664  0.81790628  0.25631712
   0.84933251  0.81784228  0.24519586
   0.34693664  0.31790628  0.75631712
   0.84933251  0.31784228  0.74519586
   0.34933251  0.81784228  0.74519586
   0.84693664  0.81790628  0.75631712
   0.34942020  0.18212708  0.24531538
   0.84699040  0.18208269  0.25646642
   0.34699040  0.68208269  0.25646642
   0.84942020  0.68212708  0.24531538
   0.34699040  0.18208269  0.75646642
   0.84942020  0.18212708  0.74531538
   0.34942020  0.68212708  0.74531538
   0.84699040  0.68208269  0.75646642
   0.30853564  0.25007118  0.35165983
   0.79780450  0.25011586  0.35955866
   0.29780450  0.75011586  0.35955866
   0.80853564  0.75007118  0.35165983
   0.29780450  0.25011586  0.85955866
   0.80853564  0.25007118  0.85165983
   0.30853564  0.75007118  0.85165983
   0.79780450  0.75011586  0.85955866
   0.47244075  0.49945992  0.48881004
   0.97244280  0.50051967  0.48881286
   0.47244280  0.00051967  0.48881286
   0.97244075  0.99945992  0.48881004
   0.47244280  0.50051967  0.98881286
   0.97244075  0.49945992  0.98881004
   0.47244075  0.99945992  0.98881004
   0.97244280  0.00051967  0.98881286
   0.45473130  0.50108793  0.23757337
   0.95475605  0.49889417  0.23757212
   0.45475605  0.99889417  0.23757212
   0.95473130  0.00108793  0.23757337
   0.45475605  0.49889417  0.73757212
   0.95473130  0.50108793  0.73757337
   0.45473130  0.00108793  0.73757337
   0.95475605  0.99889417  0.73757212
   0.45776831  0.24997706  0.01146887
   0.94150257  0.24998096  0.01219556
   0.44150257  0.74998096  0.01219556
   0.95776831  0.74997706  0.01146887
   0.44150257  0.24998096  0.51219556
   0.95776831  0.24997706  0.51146887
   0.45776831  0.74997706  0.51146887
   0.94150257  0.74998096  0.51219556
   0.21616942  0.50932670  0.46124944
   0.71617345  0.49066817  0.46122996
   0.21617345  0.99066817  0.46122996
   0.71616942  0.00932670  0.46124944
   0.21617345  0.49066817  0.96122996
   0.71616942  0.50932670  0.96124944
   0.21616942  0.00932670  0.96124944
   0.71617345  0.99066817  0.96122996
 
 position of ions in cartesian coordinates  (Angst):
   2.51245883  3.11342964  2.94391216
   8.79551034  3.11480764  3.01542348
   2.50768944  9.34261872  2.94595088
   8.80147536  9.34315664  3.01263835
   2.57679698  3.11389420  9.32003440
   8.87058289  3.11443212  9.38672187
   2.58276200  9.34224321  9.31724927
   8.86581351  9.34362120  9.38876059
   3.89296665  3.11490599  3.48156777
  10.13264489  3.11612742  3.65396843
   3.84482399  9.34393851  3.58449583
  10.18198318  9.34463299  3.55029396
   3.91393152  3.11521399  9.95857935
  10.25109071  3.11590847  9.92437748
   3.96326981  9.34371956  9.85490487
  10.20294805  9.34494098 10.02730554
   2.56068280  3.11234616  1.84497370
   8.92656778  3.11373469  1.92335787
   2.63874689  9.34154578  1.85388527
   8.84969933  9.34207316  1.91369989
   2.70785442  3.11282126  8.22796879
   8.91880687  3.11334864  8.28778341
   2.63098597  9.34115973  8.21831081
   8.99687095  9.34254826  8.29669498
   1.99139304  4.01552218  3.29624468
   8.25120265  4.01750196  3.32935459
   1.96338175 10.24531304  3.25988199
   8.28040957 10.24524918  3.36497087
   2.03248929  4.01658852  9.63396551
   8.34951711  4.01652466  9.73905439
   2.06169621 10.24433575  9.66958179
   8.32150582 10.24631552  9.70269170
   1.99273827  2.21125728  3.29805193
   8.25219055  2.21216789  3.33124434
   1.96436965  8.43997898  3.26177173
   8.28175480  8.44098428  3.36677812
   2.03347719  2.21125446  9.63585525
   8.35086233  2.21225976  9.74086164
   2.06304143  8.44007084  9.67138904
   8.32249372  8.44098146  9.70458144
   4.42806114  3.96022346  3.17365485
  10.68789793  3.96197512  3.38419051
   4.40007704 10.18978620  3.31471790
  10.71707767 10.18995045  3.24238104
   4.46918457  3.96106168  9.68880142
  10.78618521  3.96122593  9.61646456
   4.49836431 10.18903702  9.54699195
  10.75820110 10.19078868  9.75752761
   4.42901838  2.26954638  3.17529180
  10.68843245  2.26994766  3.38620251
   4.40061155  8.49775874  3.31672991
  10.71803491  8.49927338  3.24401799
   4.46971909  2.26903422  9.69081343
  10.78714245  2.27054886  9.61810151
   4.49932155  8.49835995  9.54862891
  10.75873562  8.49876122  9.75953962
   3.92972677  3.11589373  4.52520839
  10.08428290  3.11738839  4.69351438
   3.79646200  9.34519948  4.62404178
  10.21874330  9.34562073  4.59393458
   3.86556954  3.11647496 10.99812530
  10.28785083  3.11689621 10.96801809
   4.00002993  9.34470729 10.89854549
  10.15458607  9.34620196 11.06685149
   6.01055299  6.22298962  6.29598509
  12.29899925  6.23714952  6.36511991
   6.00998272  0.00742252  6.29639372
  12.29956952 12.45271662  6.36471128
   6.08028589  6.23623609 12.66973083
  12.36867706  6.22399210 12.73879480
   6.08085616 12.45180318 12.66932220
  12.36810678  0.00842500 12.73920343
   5.75280106  6.24321430  3.09091696
  12.04152816  6.21684354  3.16000543
   5.75370726 12.44465463  3.09053283
  12.04062196  0.01540322  3.16038956
   5.82281480  6.21593011  9.46461635
  12.11092512  6.24421678  9.53372667
   5.82190859  0.01448978  9.46500048
  12.11183133 12.44565711  9.53334254
   5.75917538  3.11497677  0.20927500
  11.84312382  3.11595230  0.28538988
   5.55530293  9.34376339  0.21591728
  12.04819191  9.34470377  0.27800119
   5.62441046  3.11503887  6.59000080
  12.11729945  3.11597925  6.65208471
   5.82947855  9.34379034  6.58261211
  11.91342699  9.34476587  6.65872699
   2.78363977  6.34541201  5.90923483
   9.07208415  6.11393063  5.97810039
   2.78426326 12.34174171  5.90862779
   9.07146066  0.11760093  5.97870744
   2.85337079  6.11301719 12.28271131
   9.14176383  6.34641449 12.35204454
   2.85274730  0.11668749 12.28331835
   9.14238732 12.34274419 12.35143750
 


--------------------------------------------------------------------------------------------------------


 k-point  1 :   0.0000 0.0000 0.0000  plane waves:   84007
 k-point  2 :   0.3333-0.0000-0.0000  plane waves:   84003
 k-point  3 :   0.0000 0.3333-0.0000  plane waves:   83995
 k-point  4 :   0.3333 0.3333 0.0000  plane waves:   84018
 k-point  5 :  -0.3333 0.3333 0.0000  plane waves:   84019
 k-point  6 :   0.0000 0.0000 0.3333  plane waves:   83960
 k-point  7 :   0.3333 0.0000 0.3333  plane waves:   83937
 k-point  8 :  -0.3333 0.0000 0.3333  plane waves:   83982
 k-point  9 :   0.0000 0.3333 0.3333  plane waves:   83984
 k-point 10 :   0.3333 0.3333 0.3333  plane waves:   84012
 k-point 11 :  -0.3333 0.3333 0.3333  plane waves:   83970
 k-point 12 :   0.0000-0.3333 0.3333  plane waves:   83977
 k-point 13 :   0.3333-0.3333 0.3333  plane waves:   84013
 k-point 14 :  -0.3333-0.3333 0.3333  plane waves:   83973

 maximum and minimum number of plane-waves per node :     28039    27934

 maximum number of plane-waves:     84019
 maximum index in each direction: 
   IXMAX=   27   IYMAX=   27   IZMAX=   27
   IXMIN=  -27   IYMIN=  -27   IZMIN=  -27

 NGX is ok and might be reduce to 110
 WARNING: aliasing errors must be expected set NGY to 110 to avoid them
 NGZ is ok and might be reduce to 110
 aliasing errors are usually negligible using standard VASP settings
 and one can safely disregard these warnings

 parallel 3D FFT for wavefunctions:
    minimum data exchange during FFTs selected (reduces bandwidth)
 parallel 3D FFT for charge:
    minimum data exchange during FFTs selected (reduces bandwidth)


 total amount of memory used by VASP on root node   697522. kBytes
========================================================================

   base      :      30000. kBytes
   nonl-proj :     325712. kBytes
   fftplans  :      80881. kBytes
   grid      :      57435. kBytes
   one-center:        497. kBytes
   wavefun   :     202997. kBytes
 
     INWAV:  cpu time    0.0000: real time    0.0000
 Broyden mixing: mesh for mixing (old mesh)
   NGX = 55   NGY = 53   NGZ = 55
  (NGX  =224   NGY  =216   NGZ  =224)
  gives a total of 160325 points

 initial charge density was supplied:
 charge density of overlapping atoms calculated
 number of electron     400.0000000 magnetization 
 keeping initial charge density in first step


--------------------------------------------------------------------------------------------------------


 Maximum index for augmentation-charges        14334 (set IRDMAX)


--------------------------------------------------------------------------------------------------------


 First call to EWALD:  gamma=   0.141
 Maximum number of real-space cells 3x 3x 3
 Maximum number of reciprocal cells 3x 3x 3

 FEWALD executed in parallel
    FEWALD:  cpu time    0.0040: real time    0.0040


----------------------------------------- Iteration    1(   1)  ---------------------------------------


    POTLOK:  cpu time    0.4560: real time    0.4585
    SETDIJ:  cpu time    0.7560: real time    0.7548
     EDDAV:  cpu time  249.9996: real time  250.1636
       DOS:  cpu time    0.0040: real time    0.0012
    --------------------------------------------
      LOOP:  cpu time  251.2197: real time  251.3997

 eigenvalue-minimisations  :  7176
 total energy-change (2. order) : 0.3602983E+04  (-0.1894868E+05)
 number of electron     400.0000000 magnetization 
 augmentation part      400.0000000 magnetization 

 Free energy of the ion-electron system (eV)
  ---------------------------------------------------
  alpha Z        PSCENC =       370.05370877
  Ewald energy   TEWEN  =    -15509.36173309
  -Hartree energ DENC   =     -8136.00425054
  -exchange      EXHF   =         0.00000000
  -V(xc)+E(xc)   XCENC  =       390.10062982
  PAW double counting   =     20601.23165652   -19855.90553853
  entropy T*S    EENTRO =        -0.00003086
  eigenvalues    EBANDS =       993.86230179
  atomic energy  EATOM  =     24749.00668030
  Solvation  Ediel_sol  =         0.00000000
  ---------------------------------------------------
  free energy    TOTEN  =      3602.98342417 eV

  energy without entropy =     3602.98345503  energy(sigma->0) =     3602.98343960


--------------------------------------------------------------------------------------------------------




----------------------------------------- Iteration    1(   2)  ---------------------------------------


     EDDAV:  cpu time  271.3530: real time  271.5254
       DOS:  cpu time    0.0000: real time    0.0012
    --------------------------------------------
      LOOP:  cpu time  271.3530: real time  271.5592

 eigenvalue-minimisations  :  7960
 total energy-change (2. order) :-0.3400774E+04  (-0.3211682E+04)
 number of electron     400.0000000 magnetization 
 augmentation part      400.0000000 magnetization 

 Free energy of the ion-electron system (eV)
  ---------------------------------------------------
  alpha Z        PSCENC =       370.05370877
  Ewald energy   TEWEN  =    -15509.36173309
  -Hartree energ DENC   =     -8136.00425054
  -exchange      EXHF   =         0.00000000
  -V(xc)+E(xc)   XCENC  =       390.10062982
  PAW double counting   =     20601.23165652   -19855.90553853
  entropy T*S    EENTRO =        -0.00004204
  eigenvalues    EBANDS =     -2406.91127310
  atomic energy  EATOM  =     24749.00668030
  Solvation  Ediel_sol  =         0.00000000
  ---------------------------------------------------
  free energy    TOTEN  =       202.20983811 eV

  energy without entropy =      202.20988015  energy(sigma->0) =      202.20985913


--------------------------------------------------------------------------------------------------------




----------------------------------------- Iteration    1(   3)  ---------------------------------------


     EDDAV:  cpu time  311.4355: real time  311.6359
       DOS:  cpu time    0.0000: real time    0.0003
    --------------------------------------------
      LOOP:  cpu time  311.4395: real time  311.6544

 eigenvalue-minimisations  :  9472
 total energy-change (2. order) :-0.6004453E+03  (-0.5911969E+03)
 number of electron     400.0000000 magnetization 
 augmentation part      400.0000000 magnetization 

 Free energy of the ion-electron system (eV)
  ---------------------------------------------------
  alpha Z        PSCENC =       370.05370877
  Ewald energy   TEWEN  =    -15509.36173309
  -Hartree energ DENC   =     -8136.00425054
  -exchange      EXHF   =         0.00000000
  -V(xc)+E(xc)   XCENC  =       390.10062982
  PAW double counting   =     20601.23165652   -19855.90553853
  entropy T*S    EENTRO =        -0.00000000
  eigenvalues    EBANDS =     -3007.35659767
  atomic energy  EATOM  =     24749.00668030
  Solvation  Ediel_sol  =         0.00000000
  ---------------------------------------------------
  free energy    TOTEN  =      -398.23544443 eV

  energy without entropy =     -398.23544443  energy(sigma->0) =     -398.23544443


--------------------------------------------------------------------------------------------------------




----------------------------------------- Iteration    1(   4)  ---------------------------------------


     EDDAV:  cpu time  314.7037: real time  314.9059
       DOS:  cpu time    0.0000: real time    0.0003
    --------------------------------------------
      LOOP:  cpu time  314.7077: real time  314.9774

 eigenvalue-minimisations  :  9600
 total energy-change (2. order) :-0.4043342E+02  (-0.4025656E+02)
 number of electron     400.0000000 magnetization 
 augmentation part      400.0000000 magnetization 

 Free energy of the ion-electron system (eV)
  ---------------------------------------------------
  alpha Z        PSCENC =       370.05370877
  Ewald energy   TEWEN  =    -15509.36173309
  -Hartree energ DENC   =     -8136.00425054
  -exchange      EXHF   =         0.00000000
  -V(xc)+E(xc)   XCENC  =       390.10062982
  PAW double counting   =     20601.23165652   -19855.90553853
  entropy T*S    EENTRO =         0.00000000
  eigenvalues    EBANDS =     -3047.79001865
  atomic energy  EATOM  =     24749.00668030
  Solvation  Ediel_sol  =         0.00000000
  ---------------------------------------------------
  free energy    TOTEN  =      -438.66886540 eV

  energy without entropy =     -438.66886540  energy(sigma->0) =     -438.66886540


--------------------------------------------------------------------------------------------------------




----------------------------------------- Iteration    1(   5)  ---------------------------------------


     EDDAV:  cpu time  319.2120: real time  319.4178
       DOS:  cpu time    0.0000: real time    0.0005
    CHARGE:  cpu time    9.2166: real time    9.2242
    MIXING:  cpu time    0.0160: real time    0.0133
    --------------------------------------------
      LOOP:  cpu time  328.4445: real time  328.6800

 eigenvalue-minimisations  :  9768
 total energy-change (2. order) :-0.1536383E+01  (-0.1534121E+01)
 number of electron     400.0000000 magnetization 
 augmentation part        7.5673131 magnetization 

 Broyden mixing:
  rms(total) = 0.29755E+01    rms(broyden)= 0.29754E+01
  rms(prec ) = 0.35266E+01
  weight for this iteration     100.00

 Free energy of the ion-electron system (eV)
  ---------------------------------------------------
  alpha Z        PSCENC =       370.05370877
  Ewald energy   TEWEN  =    -15509.36173309
  -Hartree energ DENC   =     -8136.00425054
  -exchange      EXHF   =         0.00000000
  -V(xc)+E(xc)   XCENC  =       390.10062982
  PAW double counting   =     20601.23165652   -19855.90553853
  entropy T*S    EENTRO =         0.00000000
  eigenvalues    EBANDS =     -3049.32640147
  atomic energy  EATOM  =     24749.00668030
  Solvation  Ediel_sol  =         0.00000000
  ---------------------------------------------------
  free energy    TOTEN  =      -440.20524823 eV

  energy without entropy =     -440.20524823  energy(sigma->0) =     -440.20524823


--------------------------------------------------------------------------------------------------------




----------------------------------------- Iteration    1(   6)  ---------------------------------------


    POTLOK:  cpu time    0.4440: real time    0.4438
    SETDIJ:  cpu time    0.7600: real time    0.7585
     EDDAV:  cpu time  310.8514: real time  311.0534
       DOS:  cpu time    0.0000: real time    0.0004
    CHARGE:  cpu time    9.2166: real time    9.2229
    MIXING:  cpu time    0.0120: real time    0.0132
    --------------------------------------------
      LOOP:  cpu time  321.2881: real time  334.4706

 eigenvalue-minimisations  :  9464
 total energy-change (2. order) : 0.2066023E+02  (-0.4167789E+01)
 number of electron     400.0000000 magnetization 
 augmentation part        7.8745431 magnetization 

 Broyden mixing:
  rms(total) = 0.15733E+01    rms(broyden)= 0.15733E+01
  rms(prec ) = 0.17511E+01
  weight for this iteration     100.00

 eigenvalues of (default mixing * dielectric matrix)
  average eigenvalue GAMMA=   1.5536
  1.5536

 Free energy of the ion-electron system (eV)
  ---------------------------------------------------
  alpha Z        PSCENC =       370.05370877
  Ewald energy   TEWEN  =    -15509.36173309
  -Hartree energ DENC   =     -8309.28766151
  -exchange      EXHF   =         0.00000000
  -V(xc)+E(xc)   XCENC  =       404.33102794
  PAW double counting   =     23079.75415719   -22332.61754031
  entropy T*S    EENTRO =        -0.00000000
  eigenvalues    EBANDS =     -2871.42365253
  atomic energy  EATOM  =     24749.00668030
  Solvation  Ediel_sol  =         0.00000000
  ---------------------------------------------------
  free energy    TOTEN  =      -419.54501325 eV

  energy without entropy =     -419.54501325  energy(sigma->0) =     -419.54501325


--------------------------------------------------------------------------------------------------------




----------------------------------------- Iteration    1(   7)  ---------------------------------------


    POTLOK:  cpu time    0.4400: real time    0.4437
    SETDIJ:  cpu time    0.7600: real time    0.7601
     EDDAV:  cpu time  331.8327: real time  332.0480
       DOS:  cpu time    0.0000: real time    0.0008
    CHARGE:  cpu time    9.2206: real time    9.2278
    MIXING:  cpu time    0.0160: real time    0.0143
    --------------------------------------------
      LOOP:  cpu time  342.2774: real time  357.1874

 eigenvalue-minimisations  : 10256
 total energy-change (2. order) : 0.2480584E+01  (-0.1474862E+01)
 number of electron     400.0000000 magnetization 
 augmentation part        8.0083023 magnetization 

 Broyden mixing:
  rms(total) = 0.78267E+00    rms(broyden)= 0.78265E+00
  rms(prec ) = 0.83483E+00
  weight for this iteration     100.00

 eigenvalues of (default mixing * dielectric matrix)
  average eigenvalue GAMMA=   1.9284
  1.4522  2.4045

 Free energy of the ion-electron system (eV)
  ---------------------------------------------------
  alpha Z        PSCENC =       370.05370877
  Ewald energy   TEWEN  =    -15509.36173309
  -Hartree energ DENC   =     -8399.14398185
  -exchange      EXHF   =         0.00000000
  -V(xc)+E(xc)   XCENC  =       413.92062795
  PAW double counting   =     26197.73801942   -25449.60246243
  entropy T*S    EENTRO =        -0.00000000
  eigenvalues    EBANDS =     -2789.67528792
  atomic energy  EATOM  =     24749.00668030
  Solvation  Ediel_sol  =         0.00000000
  ---------------------------------------------------
  free energy    TOTEN  =      -417.06442886 eV

  energy without entropy =     -417.06442886  energy(sigma->0) =     -417.06442886


--------------------------------------------------------------------------------------------------------




----------------------------------------- Iteration    1(   8)  ---------------------------------------


    POTLOK:  cpu time    0.4440: real time    0.4420
    SETDIJ:  cpu time    0.7560: real time    0.7592
     EDDAV:  cpu time  289.8501: real time  290.0331
       DOS:  cpu time    0.0000: real time    0.0008
    CHARGE:  cpu time    9.2206: real time    9.2283
    MIXING:  cpu time    0.0160: real time    0.0139
    --------------------------------------------
      LOOP:  cpu time  300.2868: real time  300.5581

 eigenvalue-minimisations  :  8672
 total energy-change (2. order) : 0.1693048E+00  (-0.3072506E+00)
 number of electron     400.0000000 magnetization 
 augmentation part        7.9422658 magnetization 

 Broyden mixing:
  rms(total) = 0.18411E+00    rms(broyden)= 0.18411E+00
  rms(prec ) = 0.22340E+00
  weight for this iteration     100.00

 eigenvalues of (default mixing * dielectric matrix)
  average eigenvalue GAMMA=   1.6347
  2.3790  1.2625  1.2625

 Free energy of the ion-electron system (eV)
  ---------------------------------------------------
  alpha Z        PSCENC =       370.05370877
  Ewald energy   TEWEN  =    -15509.36173309
  -Hartree energ DENC   =     -8407.14843340
  -exchange      EXHF   =         0.00000000
  -V(xc)+E(xc)   XCENC  =       417.14005155
  PAW double counting   =     28665.69075998   -27918.58135500
  entropy T*S    EENTRO =        -0.00000000
  eigenvalues    EBANDS =     -2783.69480320
  atomic energy  EATOM  =     24749.00668030
  Solvation  Ediel_sol  =         0.00000000
  ---------------------------------------------------
  free energy    TOTEN  =      -416.89512409 eV

  energy without entropy =     -416.89512409  energy(sigma->0) =     -416.89512409


--------------------------------------------------------------------------------------------------------




----------------------------------------- Iteration    1(   9)  ---------------------------------------


    POTLOK:  cpu time    0.4440: real time    0.4433
    SETDIJ:  cpu time    0.7600: real time    0.7591
     EDDAV:  cpu time  306.5432: real time  306.7431
       DOS:  cpu time    0.0000: real time    0.0007
    CHARGE:  cpu time    9.2206: real time    9.2281
    MIXING:  cpu time    0.0160: real time    0.0143
    --------------------------------------------
      LOOP:  cpu time  316.9878: real time  317.3167

 eigenvalue-minimisations  :  9296
 total energy-change (2. order) : 0.7415829E-01  (-0.7575353E-01)
 number of electron     400.0000000 magnetization 
 augmentation part        7.9532064 magnetization 

 Broyden mixing:
  rms(total) = 0.73326E-01    rms(broyden)= 0.73318E-01
  rms(prec ) = 0.82315E-01
  weight for this iteration     100.00

 eigenvalues of (default mixing * dielectric matrix)
  average eigenvalue GAMMA=   1.5471
  2.3330  1.0968  1.5108  1.2478

 Free energy of the ion-electron system (eV)
  ---------------------------------------------------
  alpha Z        PSCENC =       370.05370877
  Ewald energy   TEWEN  =    -15509.36173309
  -Hartree energ DENC   =     -8425.30701716
  -exchange      EXHF   =         0.00000000
  -V(xc)+E(xc)   XCENC  =       418.21384887
  PAW double counting   =     28679.50611061   -27932.47427963
  entropy T*S    EENTRO =        -0.00000000
  eigenvalues    EBANDS =     -2766.45828448
  atomic energy  EATOM  =     24749.00668030
  Solvation  Ediel_sol  =         0.00000000
  ---------------------------------------------------
  free energy    TOTEN  =      -416.82096580 eV

  energy without entropy =     -416.82096580  energy(sigma->0) =     -416.82096580


--------------------------------------------------------------------------------------------------------




----------------------------------------- Iteration    1(  10)  ---------------------------------------


    POTLOK:  cpu time    0.4440: real time    0.4446
    SETDIJ:  cpu time    0.7600: real time    0.7572
     EDDAV:  cpu time  299.0267: real time  299.2202
       DOS:  cpu time    0.0000: real time    0.0008
    CHARGE:  cpu time    9.2206: real time    9.2291
    MIXING:  cpu time    0.0120: real time    0.0146
    --------------------------------------------
      LOOP:  cpu time  309.4673: real time  312.7905

 eigenvalue-minimisations  :  9016
 total energy-change (2. order) :-0.1247291E-01  (-0.1143734E-01)
 number of electron     400.0000000 magnetization 
 augmentation part        7.9299442 magnetization 

 Broyden mixing:
  rms(total) = 0.47022E-01    rms(broyden)= 0.47019E-01
  rms(prec ) = 0.54196E-01
  weight for this iteration     100.00

 eigenvalues of (default mixing * dielectric matrix)
  average eigenvalue GAMMA=   1.4592
  2.3832  1.9441  1.0627  1.0627  0.8431

 Free energy of the ion-electron system (eV)
  ---------------------------------------------------
  alpha Z        PSCENC =       370.05370877
  Ewald energy   TEWEN  =    -15509.36173309
  -Hartree energ DENC   =     -8426.22079692
  -exchange      EXHF   =         0.00000000
  -V(xc)+E(xc)   XCENC  =       418.32300324
  PAW double counting   =     28726.96457921   -27980.16399989
  entropy T*S    EENTRO =         0.00000000
  eigenvalues    EBANDS =     -2765.43488034
  atomic energy  EATOM  =     24749.00668030
  Solvation  Ediel_sol  =         0.00000000
  ---------------------------------------------------
  free energy    TOTEN  =      -416.83343871 eV

  energy without entropy =     -416.83343871  energy(sigma->0) =     -416.83343871


--------------------------------------------------------------------------------------------------------




----------------------------------------- Iteration    1(  11)  ---------------------------------------


    POTLOK:  cpu time    0.4440: real time    0.4449
    SETDIJ:  cpu time    0.7560: real time    0.7585
     EDDAV:  cpu time  319.9720: real time  320.1759
       DOS:  cpu time    0.0000: real time    0.0005
    CHARGE:  cpu time    9.2206: real time    9.2263
    MIXING:  cpu time    0.0160: real time    0.0144
    --------------------------------------------
      LOOP:  cpu time  330.4126: real time  330.7592

 eigenvalue-minimisations  :  9808
 total energy-change (2. order) : 0.3158187E-03  (-0.1413124E-02)
 number of electron     400.0000000 magnetization 
 augmentation part        7.9306373 magnetization 

 Broyden mixing:
  rms(total) = 0.20166E-01    rms(broyden)= 0.20166E-01
  rms(prec ) = 0.23961E-01
  weight for this iteration     100.00

 eigenvalues of (default mixing * dielectric matrix)
  average eigenvalue GAMMA=   1.5234
  2.4542  1.9481  1.5541  1.0829  1.0507  1.0507

 Free energy of the ion-electron system (eV)
  ---------------------------------------------------
  alpha Z        PSCENC =       370.05370877
  Ewald energy   TEWEN  =    -15509.36173309
  -Hartree energ DENC   =     -8425.41319987
  -exchange      EXHF   =         0.00000000
  -V(xc)+E(xc)   XCENC  =       418.33566010
  PAW double counting   =     28761.69817321   -28014.97015917
  entropy T*S    EENTRO =         0.00000000
  eigenvalues    EBANDS =     -2766.18225314
  atomic energy  EATOM  =     24749.00668030
  Solvation  Ediel_sol  =         0.00000000
  ---------------------------------------------------
  free energy    TOTEN  =      -416.83312289 eV

  energy without entropy =     -416.83312289  energy(sigma->0) =     -416.83312289


--------------------------------------------------------------------------------------------------------




----------------------------------------- Iteration    1(  12)  ---------------------------------------


    POTLOK:  cpu time    0.4440: real time    0.4478
    SETDIJ:  cpu time    0.7640: real time    0.7610
     EDDAV:  cpu time  320.3720: real time  320.5790
       DOS:  cpu time    0.0000: real time    0.0005
    CHARGE:  cpu time    9.2206: real time    9.2274
    MIXING:  cpu time    0.0160: real time    0.0152
    --------------------------------------------
      LOOP:  cpu time  330.8207: real time  331.0373

 eigenvalue-minimisations  :  9824
 total energy-change (2. order) :-0.1361084E-02  (-0.9183108E-03)
 number of electron     400.0000000 magnetization 
 augmentation part        7.9417225 magnetization 

 Broyden mixing:
  rms(total) = 0.10411E-01    rms(broyden)= 0.10410E-01
  rms(prec ) = 0.12411E-01
  weight for this iteration     100.00

 eigenvalues of (default mixing * dielectric matrix)
  average eigenvalue GAMMA=   1.4719
  2.5672  2.3205  1.3039  1.3039  0.9404  0.9336  0.9336

 Free energy of the ion-electron system (eV)
  ---------------------------------------------------
  alpha Z        PSCENC =       370.05370877
  Ewald energy   TEWEN  =    -15509.36173309
  -Hartree energ DENC   =     -8425.84815994
  -exchange      EXHF   =         0.00000000
  -V(xc)+E(xc)   XCENC  =       418.39617620
  PAW double counting   =     28753.02070924   -28006.31323037
  entropy T*S    EENTRO =        -0.00000000
  eigenvalues    EBANDS =     -2765.78863509
  atomic energy  EATOM  =     24749.00668030
  Solvation  Ediel_sol  =         0.00000000
  ---------------------------------------------------
  free energy    TOTEN  =      -416.83448398 eV

  energy without entropy =     -416.83448398  energy(sigma->0) =     -416.83448398


--------------------------------------------------------------------------------------------------------




----------------------------------------- Iteration    1(  13)  ---------------------------------------


    POTLOK:  cpu time    0.4440: real time    0.4426
    SETDIJ:  cpu time    0.7600: real time    0.7613
     EDDAV:  cpu time  281.9296: real time  282.1132
       DOS:  cpu time    0.0000: real time    0.0008
    CHARGE:  cpu time    9.2246: real time    9.2303
    MIXING:  cpu time    0.0160: real time    0.0153
    --------------------------------------------
      LOOP:  cpu time  292.3783: real time  292.5839

 eigenvalue-minimisations  :  8368
 total energy-change (2. order) :-0.1712669E-03  (-0.1291907E-03)
 number of electron     400.0000000 magnetization 
 augmentation part        7.9402630 magnetization 

 Broyden mixing:
  rms(total) = 0.72551E-02    rms(broyden)= 0.72548E-02
  rms(prec ) = 0.82875E-02
  weight for this iteration     100.00

 eigenvalues of (default mixing * dielectric matrix)
  average eigenvalue GAMMA=   1.4552
  2.5939  2.3535  1.5903  1.1237  0.9938  0.9938  0.9963  0.9963

 Free energy of the ion-electron system (eV)
  ---------------------------------------------------
  alpha Z        PSCENC =       370.05370877
  Ewald energy   TEWEN  =    -15509.36173309
  -Hartree energ DENC   =     -8426.11197444
  -exchange      EXHF   =         0.00000000
  -V(xc)+E(xc)   XCENC  =       418.41883061
  PAW double counting   =     28751.39464989   -28004.69810820
  entropy T*S    EENTRO =         0.00000000
  eigenvalues    EBANDS =     -2765.53670907
  atomic energy  EATOM  =     24749.00668030
  Solvation  Ediel_sol  =         0.00000000
  ---------------------------------------------------
  free energy    TOTEN  =      -416.83465525 eV

  energy without entropy =     -416.83465525  energy(sigma->0) =     -416.83465525


--------------------------------------------------------------------------------------------------------




----------------------------------------- Iteration    1(  14)  ---------------------------------------


    POTLOK:  cpu time    0.4480: real time    0.4475
    SETDIJ:  cpu time    0.7600: real time    0.7621
     EDDAV:  cpu time  285.8739: real time  286.0573
       DOS:  cpu time    0.0000: real time    0.0006
    CHARGE:  cpu time    9.2286: real time    9.2331
    MIXING:  cpu time    0.0160: real time    0.0153
    --------------------------------------------
      LOOP:  cpu time  296.3305: real time  296.5223

 eigenvalue-minimisations  :  8520
 total energy-change (2. order) :-0.4383760E-04  (-0.2701570E-04)
 number of electron     400.0000000 magnetization 
 augmentation part        7.9405364 magnetization 

 Broyden mixing:
  rms(total) = 0.32133E-02    rms(broyden)= 0.32132E-02
  rms(prec ) = 0.37252E-02
  weight for this iteration     100.00

 eigenvalues of (default mixing * dielectric matrix)
  average eigenvalue GAMMA=   1.5417
  2.7491  2.7491  1.9334  1.3024  1.0580  1.0580  0.9289  1.0484  1.0484

 Free energy of the ion-electron system (eV)
  ---------------------------------------------------
  alpha Z        PSCENC =       370.05370877
  Ewald energy   TEWEN  =    -15509.36173309
  -Hartree energ DENC   =     -8426.46246553
  -exchange      EXHF   =         0.00000000
  -V(xc)+E(xc)   XCENC  =       418.44193551
  PAW double counting   =     28746.64473795   -27999.93541958
  entropy T*S    EENTRO =         0.00000000
  eigenvalues    EBANDS =     -2765.22214340
  atomic energy  EATOM  =     24749.00668030
  Solvation  Ediel_sol  =         0.00000000
  ---------------------------------------------------
  free energy    TOTEN  =      -416.83469908 eV

  energy without entropy =     -416.83469908  energy(sigma->0) =     -416.83469908


--------------------------------------------------------------------------------------------------------




----------------------------------------- Iteration    1(  15)  ---------------------------------------


    POTLOK:  cpu time    0.4400: real time    0.4431
    SETDIJ:  cpu time    0.7600: real time    0.7603
     EDDAV:  cpu time  276.8533: real time  277.0312
       DOS:  cpu time    0.0000: real time    0.0006
    CHARGE:  cpu time    9.2206: real time    9.2279
    MIXING:  cpu time    0.0200: real time    0.0166
    --------------------------------------------
      LOOP:  cpu time  287.2980: real time  287.5152

 eigenvalue-minimisations  :  8176
 total energy-change (2. order) :-0.4294474E-04  (-0.1556448E-04)
 number of electron     400.0000000 magnetization 
 augmentation part        7.9402878 magnetization 

 Broyden mixing:
  rms(total) = 0.12009E-02    rms(broyden)= 0.12006E-02
  rms(prec ) = 0.13655E-02
  weight for this iteration     100.00

 eigenvalues of (default mixing * dielectric matrix)
  average eigenvalue GAMMA=   1.5032
  3.0166  2.4143  2.0325  1.5587  1.0358  1.0358  1.0564  1.0564  0.9512  0.8739

 Free energy of the ion-electron system (eV)
  ---------------------------------------------------
  alpha Z        PSCENC =       370.05370877
  Ewald energy   TEWEN  =    -15509.36173309
  -Hartree energ DENC   =     -8426.74532262
  -exchange      EXHF   =         0.00000000
  -V(xc)+E(xc)   XCENC  =       418.45932470
  PAW double counting   =     28740.75025358   -27994.02510764
  entropy T*S    EENTRO =         0.00000000
  eigenvalues    EBANDS =     -2764.97254603
  atomic energy  EATOM  =     24749.00668030
  Solvation  Ediel_sol  =         0.00000000
  ---------------------------------------------------
  free energy    TOTEN  =      -416.83474203 eV

  energy without entropy =     -416.83474203  energy(sigma->0) =     -416.83474203


--------------------------------------------------------------------------------------------------------




----------------------------------------- Iteration    1(  16)  ---------------------------------------


    POTLOK:  cpu time    0.4400: real time    0.4414
    SETDIJ:  cpu time    0.7600: real time    0.7600
     EDDAV:  cpu time  337.2211: real time  337.4374
       DOS:  cpu time    0.0000: real time    0.0005
    CHARGE:  cpu time    9.2326: real time    9.2407
    MIXING:  cpu time    0.0200: real time    0.0172
    --------------------------------------------
      LOOP:  cpu time  347.6737: real time  347.9209

 eigenvalue-minimisations  : 10448
 total energy-change (2. order) :-0.3667705E-05  (-0.1338655E-05)
 number of electron     400.0000000 magnetization 
 augmentation part        7.9402541 magnetization 

 Broyden mixing:
  rms(total) = 0.12193E-02    rms(broyden)= 0.12191E-02
  rms(prec ) = 0.13677E-02
  weight for this iteration     100.00

 eigenvalues of (default mixing * dielectric matrix)
  average eigenvalue GAMMA=   1.5102
  3.0409  2.4180  1.9662  1.9662  1.1350  1.1350  1.3269  0.9939  0.9939  0.8181
  0.8181

 Free energy of the ion-electron system (eV)
  ---------------------------------------------------
  alpha Z        PSCENC =       370.05370877
  Ewald energy   TEWEN  =    -15509.36173309
  -Hartree energ DENC   =     -8426.77173542
  -exchange      EXHF   =         0.00000000
  -V(xc)+E(xc)   XCENC  =       418.46249031
  PAW double counting   =     28742.08888587   -27995.36108610
  entropy T*S    EENTRO =        -0.00000000
  eigenvalues    EBANDS =     -2764.95195633
  atomic energy  EATOM  =     24749.00668030
  Solvation  Ediel_sol  =         0.00000000
  ---------------------------------------------------
[...]
   0.741E+01 0.447E-01 0.518E+02   -.731E+01 -.505E-01 -.575E+02   -.104E+00 0.581E-02 0.571E+01   -.554E-05 -.469E-06 0.126E-04
   0.387E+01 0.497E-01 0.527E+02   -.334E+01 -.554E-01 -.584E+02   -.535E+00 0.569E-02 0.569E+01   -.612E-05 -.153E-05 0.788E-05
   0.301E+02 -.392E+02 -.116E+02   -.329E+02 0.438E+02 0.134E+02   0.282E+01 -.465E+01 -.175E+01   -.137E-05 -.133E-04 -.303E-05
   0.310E+02 -.393E+02 -.874E+01   -.339E+02 0.439E+02 0.103E+02   0.292E+01 -.465E+01 -.155E+01   -.196E-05 -.795E-05 -.242E-05
   0.310E+02 -.393E+02 -.874E+01   -.339E+02 0.439E+02 0.103E+02   0.292E+01 -.465E+01 -.155E+01   -.194E-05 -.784E-05 -.180E-05
   0.301E+02 -.392E+02 -.116E+02   -.329E+02 0.438E+02 0.134E+02   0.282E+01 -.465E+01 -.175E+01   -.244E-05 -.139E-04 -.488E-05
   0.310E+02 -.393E+02 -.874E+01   -.339E+02 0.439E+02 0.103E+02   0.292E+01 -.465E+01 -.155E+01   -.363E-05 -.736E-05 -.381E-05
   0.301E+02 -.392E+02 -.116E+02   -.329E+02 0.438E+02 0.134E+02   0.282E+01 -.465E+01 -.175E+01   -.112E-05 -.106E-04 -.412E-05
   0.301E+02 -.392E+02 -.116E+02   -.329E+02 0.438E+02 0.134E+02   0.282E+01 -.465E+01 -.175E+01   -.874E-06 -.140E-04 -.412E-05
   0.310E+02 -.393E+02 -.874E+01   -.339E+02 0.439E+02 0.103E+02   0.292E+01 -.465E+01 -.155E+01   -.220E-05 -.107E-04 -.153E-05
   0.300E+02 0.392E+02 -.117E+02   -.328E+02 -.438E+02 0.135E+02   0.281E+01 0.465E+01 -.176E+01   -.146E-05 0.113E-04 -.332E-05
   0.309E+02 0.393E+02 -.882E+01   -.338E+02 -.439E+02 0.104E+02   0.292E+01 0.465E+01 -.156E+01   -.218E-05 0.806E-05 -.310E-05
   0.309E+02 0.393E+02 -.882E+01   -.338E+02 -.439E+02 0.104E+02   0.292E+01 0.465E+01 -.156E+01   -.189E-05 0.975E-05 -.163E-05
   0.300E+02 0.392E+02 -.117E+02   -.328E+02 -.438E+02 0.135E+02   0.281E+01 0.465E+01 -.176E+01   -.226E-05 0.139E-04 -.428E-05
   0.309E+02 0.393E+02 -.882E+01   -.338E+02 -.439E+02 0.104E+02   0.292E+01 0.465E+01 -.156E+01   -.226E-05 0.843E-05 -.259E-05
   0.300E+02 0.392E+02 -.117E+02   -.328E+02 -.438E+02 0.135E+02   0.281E+01 0.465E+01 -.176E+01   0.750E-07 0.138E-04 -.342E-05
   0.300E+02 0.392E+02 -.117E+02   -.328E+02 -.438E+02 0.135E+02   0.281E+01 0.465E+01 -.176E+01   -.218E-05 0.128E-04 -.520E-05
   0.309E+02 0.393E+02 -.882E+01   -.338E+02 -.439E+02 0.104E+02   0.292E+01 0.465E+01 -.156E+01   -.346E-05 0.754E-05 -.230E-05
   -.326E+02 -.483E+02 0.182E+02   0.361E+02 0.538E+02 -.202E+02   -.351E+01 -.553E+01 0.201E+01   0.115E-04 0.212E-04 -.736E-05
   -.342E+02 -.482E+02 0.165E+02   0.379E+02 0.537E+02 -.182E+02   -.363E+01 -.552E+01 0.176E+01   0.192E-04 0.225E-04 -.794E-05
   -.342E+02 -.482E+02 0.165E+02   0.379E+02 0.537E+02 -.182E+02   -.363E+01 -.552E+01 0.176E+01   0.202E-04 0.226E-04 -.792E-05
   -.326E+02 -.483E+02 0.182E+02   0.361E+02 0.538E+02 -.202E+02   -.351E+01 -.553E+01 0.201E+01   0.124E-04 0.207E-04 -.951E-05
   -.342E+02 -.482E+02 0.165E+02   0.379E+02 0.537E+02 -.182E+02   -.363E+01 -.552E+01 0.176E+01   0.204E-04 0.259E-04 -.955E-05
   -.326E+02 -.483E+02 0.182E+02   0.361E+02 0.538E+02 -.202E+02   -.351E+01 -.553E+01 0.201E+01   0.135E-04 0.249E-04 -.861E-05
   -.326E+02 -.483E+02 0.182E+02   0.361E+02 0.538E+02 -.202E+02   -.351E+01 -.553E+01 0.201E+01   0.114E-04 0.171E-04 -.961E-05
   -.342E+02 -.482E+02 0.165E+02   0.379E+02 0.537E+02 -.182E+02   -.363E+01 -.552E+01 0.176E+01   0.186E-04 0.199E-04 -.707E-05
   -.326E+02 0.483E+02 0.181E+02   0.362E+02 -.538E+02 -.201E+02   -.352E+01 0.553E+01 0.200E+01   0.112E-04 -.228E-04 -.754E-05
   -.343E+02 0.482E+02 0.163E+02   0.379E+02 -.537E+02 -.181E+02   -.363E+01 0.553E+01 0.174E+01   0.200E-04 -.235E-04 -.840E-05
   -.343E+02 0.482E+02 0.163E+02   0.379E+02 -.537E+02 -.181E+02   -.363E+01 0.553E+01 0.174E+01   0.205E-04 -.211E-04 -.772E-05
   -.326E+02 0.483E+02 0.181E+02   0.362E+02 -.538E+02 -.201E+02   -.352E+01 0.553E+01 0.200E+01   0.117E-04 -.196E-04 -.907E-05
   -.343E+02 0.482E+02 0.163E+02   0.379E+02 -.537E+02 -.181E+02   -.363E+01 0.553E+01 0.174E+01   0.171E-04 -.208E-04 -.826E-05
   -.326E+02 0.483E+02 0.181E+02   0.362E+02 -.538E+02 -.201E+02   -.352E+01 0.553E+01 0.200E+01   0.115E-04 -.191E-04 -.801E-05
   -.326E+02 0.483E+02 0.181E+02   0.362E+02 -.538E+02 -.201E+02   -.352E+01 0.553E+01 0.200E+01   0.145E-04 -.225E-04 -.103E-04
   -.343E+02 0.482E+02 0.163E+02   0.379E+02 -.537E+02 -.181E+02   -.363E+01 0.553E+01 0.174E+01   0.208E-04 -.255E-04 -.789E-05
   0.149E+01 -.689E-01 -.635E+02   -.121E+01 0.755E-01 0.704E+02   -.282E+00 -.657E-02 -.693E+01   -.344E-05 -.638E-06 0.244E-04
   0.594E+01 -.774E-01 -.650E+02   -.623E+01 0.860E-01 0.720E+02   0.289E+00 -.862E-02 -.706E+01   -.673E-06 0.593E-06 0.271E-04
   0.594E+01 -.774E-01 -.650E+02   -.623E+01 0.860E-01 0.720E+02   0.289E+00 -.862E-02 -.706E+01   0.973E-06 0.755E-06 0.303E-04
   0.149E+01 -.689E-01 -.635E+02   -.121E+01 0.755E-01 0.704E+02   -.282E+00 -.657E-02 -.693E+01   -.220E-05 -.296E-06 0.239E-04
   0.594E+01 -.774E-01 -.650E+02   -.623E+01 0.860E-01 0.720E+02   0.289E+00 -.862E-02 -.706E+01   -.236E-05 -.639E-06 0.260E-04
   0.149E+01 -.689E-01 -.635E+02   -.121E+01 0.755E-01 0.704E+02   -.282E+00 -.657E-02 -.693E+01   -.257E-05 0.951E-06 0.234E-04
   0.149E+01 -.689E-01 -.635E+02   -.121E+01 0.755E-01 0.704E+02   -.282E+00 -.657E-02 -.693E+01   -.244E-06 0.868E-07 0.259E-04
   0.594E+01 -.774E-01 -.650E+02   -.623E+01 0.860E-01 0.720E+02   0.289E+00 -.862E-02 -.706E+01   -.993E-06 -.585E-06 0.284E-04
   -.312E+02 0.239E+01 -.117E+02   0.301E+02 -.238E+01 0.114E+02   0.112E+01 -.151E-01 0.280E+00   -.203E-05 0.615E-04 0.280E-04
   -.312E+02 -.226E+01 -.117E+02   0.301E+02 0.223E+01 0.114E+02   0.112E+01 0.252E-01 0.280E+00   0.200E-04 0.234E-04 0.343E-04
   -.312E+02 -.226E+01 -.117E+02   0.301E+02 0.223E+01 0.114E+02   0.112E+01 0.252E-01 0.280E+00   -.316E-04 -.629E-04 -.356E-04
   -.312E+02 0.239E+01 -.117E+02   0.301E+02 -.238E+01 0.114E+02   0.112E+01 -.151E-01 0.280E+00   0.502E-04 -.243E-04 -.285E-04
   -.312E+02 -.226E+01 -.117E+02   0.301E+02 0.223E+01 0.114E+02   0.112E+01 0.252E-01 0.280E+00   0.383E-04 0.762E-04 -.321E-04
   -.312E+02 0.239E+01 -.117E+02   0.301E+02 -.238E+01 0.114E+02   0.112E+01 -.151E-01 0.280E+00   -.260E-04 0.314E-04 -.431E-04
   -.312E+02 0.239E+01 -.117E+02   0.301E+02 -.238E+01 0.114E+02   0.112E+01 -.151E-01 0.280E+00   0.176E-04 -.752E-04 0.232E-04
   -.312E+02 -.226E+01 -.117E+02   0.301E+02 0.223E+01 0.114E+02   0.112E+01 0.252E-01 0.280E+00   0.133E-04 -.303E-04 0.102E-04
   -.173E+02 -.101E+01 0.561E+01   0.174E+02 0.104E+01 -.554E+01   -.162E+00 -.219E-01 -.661E-01   0.154E-04 0.214E-04 0.586E-05
   -.173E+02 0.109E+01 0.560E+01   0.175E+02 -.112E+01 -.554E+01   -.162E+00 0.231E-01 -.662E-01   0.132E-04 0.454E-05 0.298E-05
   -.173E+02 0.109E+01 0.560E+01   0.175E+02 -.112E+01 -.554E+01   -.162E+00 0.231E-01 -.662E-01   0.881E-05 -.215E-04 0.547E-05
   -.173E+02 -.101E+01 0.561E+01   0.174E+02 0.104E+01 -.554E+01   -.162E+00 -.219E-01 -.661E-01   0.202E-04 -.448E-05 0.207E-05
   -.173E+02 0.109E+01 0.560E+01   0.175E+02 -.112E+01 -.554E+01   -.162E+00 0.231E-01 -.662E-01   0.190E-04 0.121E-04 -.297E-05
   -.173E+02 -.101E+01 0.561E+01   0.174E+02 0.104E+01 -.554E+01   -.162E+00 -.219E-01 -.661E-01   0.118E-04 0.125E-04 0.236E-05
   -.173E+02 -.101E+01 0.561E+01   0.174E+02 0.104E+01 -.554E+01   -.162E+00 -.219E-01 -.661E-01   0.953E-05 -.120E-04 -.130E-07
   -.173E+02 0.109E+01 0.560E+01   0.175E+02 -.112E+01 -.554E+01   -.162E+00 0.231E-01 -.662E-01   0.166E-04 -.129E-04 0.455E-05
   -.214E+02 -.540E-01 -.149E+02   0.215E+02 0.553E-01 0.154E+02   -.650E-02 -.967E-03 -.544E+00   0.157E-04 0.480E-07 -.499E-05
   -.702E+01 -.543E-01 -.171E+02   0.685E+01 0.556E-01 0.178E+02   0.153E+00 -.977E-03 -.655E+00   0.182E-04 -.613E-06 -.232E-05
   -.702E+01 -.543E-01 -.171E+02   0.685E+01 0.556E-01 0.178E+02   0.153E+00 -.977E-03 -.655E+00   0.245E-04 0.145E-06 0.294E-05
   -.214E+02 -.540E-01 -.149E+02   0.215E+02 0.553E-01 0.154E+02   -.650E-02 -.967E-03 -.544E+00   0.947E-05 0.731E-06 -.768E-05
   -.702E+01 -.543E-01 -.171E+02   0.685E+01 0.556E-01 0.178E+02   0.153E+00 -.977E-03 -.655E+00   0.153E-04 0.463E-05 0.101E-05
   -.214E+02 -.540E-01 -.149E+02   0.215E+02 0.553E-01 0.154E+02   -.650E-02 -.967E-03 -.544E+00   0.184E-04 0.363E-05 -.264E-05
   -.214E+02 -.540E-01 -.149E+02   0.215E+02 0.553E-01 0.154E+02   -.650E-02 -.967E-03 -.544E+00   0.794E-05 -.471E-05 -.343E-05
   -.702E+01 -.543E-01 -.171E+02   0.685E+01 0.556E-01 0.178E+02   0.153E+00 -.977E-03 -.655E+00   0.265E-04 -.389E-05 0.364E-05
   0.378E+01 0.254E+00 -.275E+01   -.324E+01 -.205E+00 0.234E+01   -.541E+00 -.360E-01 0.415E+00   -.316E-05 0.785E-05 0.505E-05
   0.378E+01 -.234E+00 -.277E+01   -.324E+01 0.186E+00 0.236E+01   -.541E+00 0.347E-01 0.414E+00   -.742E-05 0.152E-04 0.511E-05
   0.378E+01 -.234E+00 -.277E+01   -.324E+01 0.186E+00 0.236E+01   -.541E+00 0.347E-01 0.414E+00   -.595E-05 -.763E-05 -.471E-05
   0.378E+01 0.254E+00 -.275E+01   -.324E+01 -.205E+00 0.234E+01   -.541E+00 -.360E-01 0.415E+00   -.732E-05 -.150E-04 -.428E-05
   0.378E+01 -.234E+00 -.277E+01   -.324E+01 0.186E+00 0.236E+01   -.541E+00 0.347E-01 0.414E+00   -.845E-05 0.177E-04 -.880E-05
   0.378E+01 0.254E+00 -.275E+01   -.324E+01 -.205E+00 0.234E+01   -.541E+00 -.360E-01 0.415E+00   -.446E-05 0.854E-05 -.975E-05
   0.378E+01 0.254E+00 -.275E+01   -.324E+01 -.205E+00 0.234E+01   -.541E+00 -.360E-01 0.415E+00   -.929E-05 -.176E-04 0.295E-05
   0.378E+01 -.234E+00 -.277E+01   -.324E+01 0.186E+00 0.236E+01   -.541E+00 0.347E-01 0.414E+00   -.268E-05 -.917E-05 0.277E-05
 -----------------------------------------------------------------------------------------------
   -.532E+02 -.107E+00 -.237E+02   -.133E-12 0.777E-13 -.153E-12   0.532E+02 0.107E+00 0.237E+02   -.392E-03 -.647E-06 -.235E-03
 
 
 POSITION                                       TOTAL-FORCE (eV/Angst)
 -----------------------------------------------------------------------------------
      2.51246      3.11343      2.94391         0.015908     -0.000084     -0.004982
      8.79551      3.11481      3.01542         0.016552     -0.000082     -0.003376
      2.50769      9.34262      2.94595         0.016552     -0.000082     -0.003376
      8.80148      9.34316      3.01264         0.015908     -0.000084     -0.004982
      2.57680      3.11389      9.32003         0.016552     -0.000082     -0.003376
      8.87058      3.11443      9.38672         0.015908     -0.000084     -0.004982
      2.58276      9.34224      9.31725         0.015908     -0.000084     -0.004982
      8.86581      9.34362      9.38876         0.016552     -0.000082     -0.003376
      3.89297      3.11491      3.48157        -0.004462     -0.000163      0.002142
     10.13264      3.11613      3.65397        -0.005415     -0.000162      0.000547
      3.84482      9.34394      3.58450        -0.005415     -0.000162      0.000547
     10.18198      9.34463      3.55029        -0.004462     -0.000163      0.002142
      3.91393      3.11521      9.95858        -0.005415     -0.000162      0.000547
     10.25109      3.11591      9.92438        -0.004462     -0.000163      0.002142
      3.96327      9.34372      9.85490        -0.004462     -0.000163      0.002142
     10.20295      9.34494     10.02731        -0.005415     -0.000162      0.000547
      2.56068      3.11235      1.84497        -0.000088     -0.000002      0.026193
      8.92657      3.11373      1.92336        -0.002272     -0.000002      0.026317
      2.63875      9.34155      1.85389        -0.002272     -0.000002      0.026317
      8.84970      9.34207      1.91370        -0.000088     -0.000002      0.026193
      2.70785      3.11282      8.22797        -0.002272     -0.000002      0.026317
      8.91881      3.11335      8.28778        -0.000088     -0.000002      0.026193
      2.63099      9.34116      8.21831        -0.000088     -0.000002      0.026193
      8.99687      9.34255      8.29669        -0.002272     -0.000002      0.026317
      1.99139      4.01552      3.29624         0.007330     -0.004357     -0.000509
      8.25120      4.01750      3.32935         0.007406     -0.004355     -0.000072
      1.96338     10.24531      3.25988         0.007406     -0.004355     -0.000072
      8.28041     10.24525      3.36497         0.007330     -0.004357     -0.000509
      2.03249      4.01659      9.63397         0.007406     -0.004355     -0.000072
      8.34952      4.01652      9.73905         0.007330     -0.004357     -0.000509
      2.06170     10.24434      9.66958         0.007330     -0.004357     -0.000509
      8.32151     10.24632      9.70269         0.007406     -0.004355     -0.000072
      1.99274      2.21126      3.29805         0.007222      0.004628     -0.000642
      8.25219      2.21217      3.33124         0.007304      0.004624     -0.000200
      1.96437      8.43998      3.26177         0.007304      0.004624     -0.000200
      8.28175      8.44098      3.36678         0.007222      0.004628     -0.000642
      2.03348      2.21125      9.63586         0.007304      0.004624     -0.000200
      8.35086      2.21226      9.74086         0.007222      0.004628     -0.000642
      2.06304      8.44007      9.67139         0.007222      0.004628     -0.000642
      8.32249      8.44098      9.70458         0.007304      0.004624     -0.000200
      4.42806      3.96022      3.17365        -0.008283     -0.006372      0.002725
     10.68790      3.96198      3.38419        -0.008663     -0.006468      0.002226
      4.40008     10.18979      3.31472        -0.008663     -0.006468      0.002226
     10.71708     10.18995      3.24238        -0.008283     -0.006372      0.002725
      4.46918      3.96106      9.68880        -0.008663     -0.006468      0.002226
     10.78619      3.96123      9.61646        -0.008283     -0.006372      0.002725
      4.49836     10.18904      9.54699        -0.008283     -0.006372      0.002725
     10.75820     10.19079      9.75753        -0.008663     -0.006468      0.002226
      4.42902      2.26955      3.17529        -0.008383      0.006552      0.002434
     10.68843      2.26995      3.38620        -0.008753      0.006653      0.001920
      4.40061      8.49776      3.31673        -0.008753      0.006653      0.001920
     10.71803      8.49927      3.24402        -0.008383      0.006552      0.002434
      4.46972      2.26903      9.69081        -0.008753      0.006653      0.001920
     10.78714      2.27055      9.61810        -0.008383      0.006552      0.002434
      4.49932      8.49836      9.54863        -0.008383      0.006552      0.002434
     10.75874      8.49876      9.75954        -0.008753      0.006653      0.001920
      3.92973      3.11589      4.52521        -0.005366     -0.000018     -0.023826
     10.08428      3.11739      4.69351        -0.002706     -0.000018     -0.023537
      3.79646      9.34520      4.62404        -0.002706     -0.000018     -0.023537
     10.21874      9.34562      4.59393        -0.005366     -0.000018     -0.023826
      3.86557      3.11647     10.99813        -0.002706     -0.000018     -0.023537
     10.28785      3.11690     10.96802        -0.005366     -0.000018     -0.023826
      4.00003      9.34471     10.89855        -0.005366     -0.000018     -0.023826
     10.15459      9.34620     11.06685        -0.002706     -0.000018     -0.023537
      6.01055      6.22299      6.29599        -0.000808     -0.001613      0.001903
     12.29900      6.23715      6.36512        -0.000808      0.001206      0.001920
      6.00998      0.00742      6.29639        -0.000808      0.001206      0.001920
     12.29957     12.45272      6.36471        -0.000808     -0.001613      0.001903
      6.08029      6.23624     12.66973        -0.000808      0.001206      0.001920
     12.36868      6.22399     12.73879        -0.000808     -0.001613      0.001903
      6.08086     12.45180     12.66932        -0.000808     -0.001613      0.001903
     12.36811      0.00843     12.73920        -0.000808      0.001206      0.001920
      5.75280      6.24321      3.09092        -0.000224      0.001439     -0.003795
     12.04153      6.21684      3.16001        -0.000188     -0.001777     -0.003796
      5.75371     12.44465      3.09053        -0.000188     -0.001777     -0.003796
     12.04062      0.01540      3.16039        -0.000224      0.001439     -0.003795
      5.82281      6.21593      9.46462        -0.000188     -0.001777     -0.003796
     12.11093      6.24422      9.53373        -0.000224      0.001439     -0.003795
      5.82191      0.01449      9.46500        -0.000224      0.001439     -0.003795
     12.11183     12.44566      9.53334        -0.000188     -0.001777     -0.003796
      5.75918      3.11498      0.20928         0.011825      0.000320     -0.008313
     11.84312      3.11595      0.28539        -0.011480      0.000323     -0.008231
      5.55530      9.34376      0.21592        -0.011480      0.000323     -0.008231
     12.04819      9.34470      0.27800         0.011825      0.000320     -0.008313
      5.62441      3.11504      6.59000        -0.011480      0.000323     -0.008231
     12.11730      3.11598      6.65208         0.011825      0.000320     -0.008313
      5.82948      9.34379      6.58261         0.011825      0.000320     -0.008313
     11.91343      9.34477      6.65873        -0.011480      0.000323     -0.008231
      2.78364      6.34541      5.90923        -0.002826      0.012584      0.006487
      9.07208      6.11393      5.97810        -0.002822     -0.012854      0.006462
      2.78426     12.34174      5.90863        -0.002822     -0.012854      0.006462
      9.07146      0.11760      5.97871        -0.002826      0.012584      0.006487
      2.85337      6.11302     12.28271        -0.002822     -0.012854      0.006462
      9.14176      6.34641     12.35204        -0.002826      0.012584      0.006487
      2.85275      0.11669     12.28332        -0.002826      0.012584      0.006487
      9.14239     12.34274     12.35144        -0.002822     -0.012854      0.006462
 -----------------------------------------------------------------------------------
    total drift:                                0.004403     -0.000033     -0.000963


--------------------------------------------------------------------------------------------------------



  FREE ENERGIE OF THE ION-ELECTRON SYSTEM (eV)
  ---------------------------------------------------
  free  energy   TOTEN  =      -416.83474557 eV

  energy  without entropy=     -416.83474557  energy(sigma->0) =     -416.83474557
 


--------------------------------------------------------------------------------------------------------


    POTLOK:  cpu time    1.2161: real time    1.2151


--------------------------------------------------------------------------------------------------------


     LOOP+:  cpu time 6940.7218: real time 6976.7610
    4ORBIT:  cpu time    0.0000: real time    0.0000

 total amount of memory used by VASP on root node   697522. kBytes
========================================================================

   base      :      30000. kBytes
   nonl-proj :     325712. kBytes
   fftplans  :      80881. kBytes
   grid      :      57435. kBytes
   one-center:        497. kBytes
   wavefun   :     202997. kBytes
 
  
  
 General timing and accounting informations for this job:
 ========================================================
  
                  Total CPU time used (sec):     6989.665
                            User time (sec):     6987.205
                          System time (sec):        2.460
                         Elapsed time (sec):     7026.032
  
                   Maximum memory used (kb):      640376.
                   Average memory used (kb):           0.
  
                          Minor page faults:       280423
                          Major page faults:            0
                 Voluntary context switches:         2296
