   2   2   1   0
  0.3405476E+02  0.4583961E-09  0.4583961E-09  0.4583961E-09  0.5000000E-15
  1.000000000000000E-004
  CAR 
 Name                                    
     15.72094200    -10.16040211  301      2.53224040      1.00000000
    -10.160  0.0000E+00  0.0000E+00
    -10.074  0.0000E+00  0.0000E+00
     -9.988  0.0000E+00  0.0000E+00
     -9.902  0.0000E+00  0.0000E+00
     -9.815  0.0000E+00  0.0000E+00
     -9.729  0.0000E+00  0.0000E+00
     -9.643  0.0000E+00  0.0000E+00
     -9.557  0.0000E+00  0.0000E+00
     -9.470  0.0000E+00  0.0000E+00
     -9.384  0.0000E+00  0.0000E+00
     -9.298  0.0000E+00  0.0000E+00
     -9.211  0.0000E+00  0.0000E+00
     -9.125  0.0000E+00  0.0000E+00
     -9.039  0.4409E-17  0.3804E-18
     -8.953  0.1073E-02  0.9259E-04
     -8.866  0.7867E-02  0.7713E-03
     -8.780  0.6439E-02  0.1389E-02
     -8.694  0.1288E-01  0.2500E-02
     -8.608  0.3434E-01  0.5463E-02
     -8.521  0.6313E-01  0.1091E-01
     -8.435  0.6493E-01  0.1866E-01
     -8.349  0.1544E-01  0.2000E-01
     -8.262  0.0000E+00  0.2000E-01
     -8.176  0.0000E+00  0.2000E-01
     -8.090  0.0000E+00  0.2000E-01
     -8.004  0.0000E+00  0.2000E-01
     -7.917  0.0000E+00  0.2000E-01
     -7.831  0.0000E+00  0.2000E-01
     -7.745  0.0000E+00  0.2000E-01
     -7.659  0.0000E+00  0.2000E-01
     -7.572  0.0000E+00  0.2000E-01
     -7.486  0.0000E+00  0.2000E-01
     -7.400  0.0000E+00  0.2000E-01
     -7.313  0.0000E+00  0.2000E-01
     -7.227  0.0000E+00  0.2000E-01
     -7.141  0.0000E+00  0.2000E-01
     -7.055  0.0000E+00  0.2000E-01
     -6.968  0.0000E+00  0.2000E-01
     -6.882  0.0000E+00  0.2000E-01
     -6.796  0.0000E+00  0.2000E-01
     -6.710  0.0000E+00  0.2000E-01
     -6.623  0.0000E+00  0.2000E-01
     -6.537  0.0000E+00  0.2000E-01
     -6.451  0.0000E+00  0.2000E-01
     -6.364  0.0000E+00  0.2000E-01
     -6.278  0.0000E+00  0.2000E-01
     -6.192  0.0000E+00  0.2000E-01
     -6.106  0.0000E+00  0.2000E-01
     -6.019  0.2191E-10  0.2000E-01
     -5.933  0.4045E-01  0.2349E-01
     -5.847  0.3471E+00  0.5411E-01
     -5.761  0.1034E+00  0.6548E-01
     -5.674  0.3523E+00  0.9823E-01
     -5.588  0.3722E-01  0.1054E+00
     -5.502  0.4468E-02  0.1058E+00
     -5.415  0.4601E-04  0.1060E+00
     -5.329  0.5291E-01  0.1106E+00
     -5.243  0.2751E-01  0.1132E+00
     -5.157  0.5707E-01  0.1181E+00
     -5.070  0.1288E-01  0.1200E+00
     -4.984  0.0000E+00  0.1200E+00
     -4.898  0.0000E+00  0.1200E+00
     -4.812  0.0000E+00  0.1200E+00
     -4.725  0.0000E+00  0.1200E+00
     -4.639  0.0000E+00  0.1200E+00
     -4.553  0.0000E+00  0.1200E+00
     -4.467  0.0000E+00  0.1200E+00
     -4.380  0.0000E+00  0.1200E+00
     -4.294  0.0000E+00  0.1200E+00
     -4.208  0.0000E+00  0.1200E+00
     -4.121  0.0000E+00  0.1200E+00
     -4.035  0.0000E+00  0.1200E+00
     -3.949  0.0000E+00  0.1200E+00
     -3.863  0.0000E+00  0.1200E+00
     -3.776  0.0000E+00  0.1200E+00
     -3.690  0.0000E+00  0.1200E+00
     -3.604  0.0000E+00  0.1200E+00
     -3.518  0.0000E+00  0.1200E+00
     -3.431  0.0000E+00  0.1200E+00
     -3.345  0.0000E+00  0.1200E+00
     -3.259  0.0000E+00  0.1200E+00
     -3.172  0.0000E+00  0.1200E+00
     -3.086  0.0000E+00  0.1200E+00
     -3.000  0.0000E+00  0.1200E+00
     -2.914  0.0000E+00  0.1200E+00
     -2.827  0.0000E+00  0.1200E+00
     -2.741  0.0000E+00  0.1200E+00
     -2.655  0.0000E+00  0.1200E+00
     -2.569  0.0000E+00  0.1200E+00
     -2.482  0.0000E+00  0.1200E+00
     -2.396  0.0000E+00  0.1200E+00
     -2.310  0.0000E+00  0.1200E+00
     -2.223  0.4284E-02  0.1204E+00
     -2.137  0.1676E-09  0.1204E+00
     -2.051  0.3220E-02  0.1206E+00
     -1.965  0.5728E-01  0.1256E+00
     -1.878  0.3140E-01  0.1289E+00
     -1.792  0.0000E+00  0.1295E+00
     -1.706  0.2576E-01  0.1318E+00
     -1.620  0.0000E+00  0.1318E+00
     -1.533  0.2541E-01  0.1340E+00
     -1.447  0.0000E+00  0.1340E+00
     -1.361  0.2655E-03  0.1340E+00
     -1.274  0.8321E-02  0.1347E+00
     -1.188  0.6440E-02  0.1353E+00
     -1.102  0.0000E+00  0.1353E+00
     -1.016  0.0000E+00  0.1353E+00
     -0.929  0.0000E+00  0.1353E+00
     -0.843  0.2563E-01  0.1375E+00
     -0.757  0.0000E+00  0.1375E+00
     -0.671  0.0000E+00  0.1375E+00
     -0.584  0.0000E+00  0.1375E+00
     -0.498  0.0000E+00  0.1375E+00
     -0.412  0.1288E-01  0.1386E+00
     -0.325  0.1288E-01  0.1397E+00
     -0.239  0.0000E+00  0.1397E+00
     -0.153  0.1512E-04  0.1397E+00
     -0.067  0.2574E-01  0.1419E+00
      0.020  0.1529E-09  0.1419E+00
      0.106  0.1832E-01  0.1435E+00
      0.192  0.1607E-01  0.1467E+00
      0.278  0.2256E-01  0.1486E+00
      0.365  0.0000E+00  0.1486E+00
      0.451  0.6431E-02  0.1492E+00
      0.537  0.2576E-01  0.1514E+00
      0.623  0.1503E-01  0.1527E+00
      0.710  0.7301E-01  0.1590E+00
      0.796  0.2250E-04  0.1594E+00
      0.882  0.1286E-01  0.1605E+00
      0.969  0.6853E-08  0.1605E+00
      1.055  0.3909E-01  0.1638E+00
      1.141  0.1243E-01  0.1649E+00
      1.227  0.2587E-01  0.1671E+00
      1.314  0.2583E-01  0.1694E+00
      1.400  0.2553E-01  0.1716E+00
      1.486  0.0000E+00  0.1716E+00
      1.572  0.2389E-01  0.1736E+00
      1.659  0.8487E-02  0.1745E+00
      1.745  0.1015E-03  0.1745E+00
      1.831  0.2995E-01  0.1771E+00
      1.918  0.0000E+00  0.1771E+00
      2.004  0.1333E-09  0.1771E+00
      2.090  0.1288E-01  0.1782E+00
      2.176  0.1316E-01  0.1794E+00
      2.263  0.0000E+00  0.1797E+00
      2.349  0.0000E+00  0.1797E+00
      2.435  0.3201E-02  0.1800E+00
      2.521  0.0000E+00  0.1800E+00
      2.608  0.0000E+00  0.1800E+00
      2.694  0.0000E+00  0.1800E+00
      2.780  0.0000E+00  0.1800E+00
      2.867  0.0000E+00  0.1800E+00
      2.953  0.0000E+00  0.1800E+00
      3.039  0.4654E-04  0.1800E+00
      3.125  0.1027E-02  0.1801E+00
      3.212  0.0000E+00  0.1801E+00
      3.298  0.0000E+00  0.1801E+00
      3.384  0.0000E+00  0.1801E+00
      3.470  0.0000E+00  0.1801E+00
      3.557  0.0000E+00  0.1801E+00
      3.643  0.0000E+00  0.1801E+00
      3.729  0.0000E+00  0.1801E+00
      3.816  0.0000E+00  0.1801E+00
      3.902  0.0000E+00  0.1801E+00
      3.988  0.0000E+00  0.1801E+00
      4.074  0.7180E-06  0.1801E+00
      4.161  0.4303E-02  0.1805E+00
      4.247  0.1716E-01  0.1819E+00
      4.333  0.0000E+00  0.1819E+00
      4.419  0.0000E+00  0.1819E+00
      4.506  0.0000E+00  0.1819E+00
      4.592  0.0000E+00  0.1819E+00
      4.678  0.0000E+00  0.1819E+00
      4.765  0.1529E-07  0.1819E+00
      4.851  0.3225E-02  0.1822E+00
      4.937  0.6436E-02  0.1828E+00
      5.023  0.1585E-01  0.1841E+00
      5.110  0.4721E-01  0.1888E+00
      5.196  0.2659E-01  0.1915E+00
      5.282  0.2493E-01  0.1936E+00
      5.368  0.1288E-01  0.1947E+00
      5.455  0.6429E-02  0.1953E+00
      5.541  0.0000E+00  0.1953E+00
      5.627  0.0000E+00  0.1953E+00
      5.713  0.0000E+00  0.1953E+00
      5.800  0.0000E+00  0.1953E+00
      5.886  0.0000E+00  0.1953E+00
      5.972  0.3213E-01  0.1980E+00
      6.059  0.3933E-01  0.2014E+00
      6.145  0.3794E-01  0.2047E+00
      6.231  0.0000E+00  0.2047E+00
      6.317  0.1086E-02  0.2048E+00
      6.404  0.3157E-01  0.2075E+00
      6.490  0.0000E+00  0.2092E+00
      6.576  0.0000E+00  0.2092E+00
      6.662  0.0000E+00  0.2092E+00
      6.749  0.0000E+00  0.2092E+00
      6.835  0.8579E-17  0.2092E+00
      6.921  0.2898E-01  0.2117E+00
      7.008  0.3865E-01  0.2150E+00
      7.094  0.8346E-02  0.2157E+00
      7.180  0.4087E-11  0.2157E+00
      7.266  0.4283E-01  0.2194E+00
      7.353  0.0000E+00  0.2194E+00
      7.439  0.5163E-10  0.2194E+00
      7.525  0.3495E-01  0.2225E+00
      7.611  0.4232E-01  0.2261E+00
      7.698  0.0000E+00  0.2261E+00
      7.784  0.4886E-03  0.2262E+00
      7.870  0.1249E-01  0.2272E+00
      7.957  0.2121E-01  0.2291E+00
      8.043  0.2576E-01  0.2328E+00
      8.129  0.2576E-01  0.2350E+00
      8.215  0.1430E-17  0.2350E+00
      8.302  0.2576E-01  0.2372E+00
      8.388  0.0000E+00  0.2372E+00
      8.474  0.2232E-01  0.2391E+00
      8.560  0.1463E-04  0.2394E+00
      8.647  0.8572E-02  0.2402E+00
      8.733  0.2576E-01  0.2424E+00
      8.819  0.0000E+00  0.2424E+00
      8.906  0.7590E-02  0.2431E+00
      8.992  0.2143E-07  0.2446E+00
      9.078  0.1288E-01  0.2457E+00
      9.164  0.1283E-09  0.2457E+00
      9.251  0.1288E-01  0.2469E+00
      9.337  0.4601E-01  0.2508E+00
      9.423  0.3612E-12  0.2517E+00
      9.509  0.6440E-02  0.2522E+00
      9.596  0.1887E-01  0.2538E+00
      9.682  0.1253E-02  0.2546E+00
      9.768  0.6771E-02  0.2551E+00
      9.855  0.3808E-01  0.2584E+00
      9.941  0.1288E-01  0.2595E+00
     10.027  0.1643E-09  0.2595E+00
     10.113  0.3864E-01  0.2629E+00
     10.200  0.3409E-11  0.2629E+00
     10.286  0.3107E-01  0.2656E+00
     10.372  0.2576E-01  0.2681E+00
     10.458  0.0000E+00  0.2681E+00
     10.545  0.2425E-02  0.2683E+00
     10.631  0.2333E-01  0.2703E+00
     10.717  0.8586E-02  0.2710E+00
     10.803  0.2599E-06  0.2710E+00
     10.890  0.4293E-01  0.2747E+00
     10.976  0.3852E-02  0.2751E+00
     11.062  0.1144E-16  0.2751E+00
     11.149  0.2576E-01  0.2773E+00
     11.235  0.3384E-02  0.2776E+00
     11.321  0.2850E-01  0.2801E+00
     11.407  0.1288E-01  0.2813E+00
     11.494  0.5633E-01  0.2862E+00
     11.580  0.6440E-02  0.2869E+00
     11.666  0.0000E+00  0.2869E+00
     11.752  0.5006E-13  0.2869E+00
     11.839  0.2147E-02  0.2870E+00
     11.925  0.0000E+00  0.2870E+00
     12.011  0.9866E-02  0.2879E+00
     12.098  0.4501E-01  0.2920E+00
     12.184  0.2575E-01  0.2943E+00
     12.270  0.0000E+00  0.2943E+00
     12.356  0.2325E-01  0.2963E+00
     12.443  0.0000E+00  0.2965E+00
     12.529  0.0000E+00  0.2965E+00
     12.615  0.1279E-09  0.2965E+00
     12.701  0.5338E-01  0.3011E+00
     12.788  0.7997E-02  0.3029E+00
     12.874  0.2573E-01  0.3067E+00
     12.960  0.0000E+00  0.3067E+00
     13.047  0.1357E-13  0.3067E+00
     13.133  0.2576E-01  0.3089E+00
     13.219  0.5046E-05  0.3089E+00
     13.305  0.3215E-02  0.3092E+00
     13.392  0.0000E+00  0.3092E+00
     13.478  0.8536E-04  0.3092E+00
     13.564  0.1279E-01  0.3103E+00
     13.650  0.2568E-01  0.3125E+00
     13.737  0.4074E-02  0.3129E+00
     13.823  0.2568E-06  0.3136E+00
     13.909  0.4224E-01  0.3173E+00
     13.996  0.3220E-02  0.3183E+00
     14.082  0.0000E+00  0.3183E+00
     14.168  0.0000E+00  0.3183E+00
     14.254  0.0000E+00  0.3183E+00
     14.341  0.2958E-02  0.3186E+00
     14.427  0.0000E+00  0.3189E+00
     14.513  0.5886E-07  0.3189E+00
     14.599  0.1288E-01  0.3200E+00
     14.686  0.0000E+00  0.3200E+00
     14.772  0.0000E+00  0.3200E+00
     14.858  0.0000E+00  0.3200E+00
     14.945  0.0000E+00  0.3200E+00
     15.031  0.0000E+00  0.3200E+00
     15.117  0.0000E+00  0.3200E+00
     15.203  0.0000E+00  0.3200E+00
     15.290  0.0000E+00  0.3200E+00
     15.376  0.0000E+00  0.3200E+00
     15.462  0.0000E+00  0.3200E+00
     15.548  0.0000E+00  0.3200E+00
     15.635  0.0000E+00  0.3200E+00
     15.721  0.0000E+00  0.3200E+00
     15.72094200    -10.16040211  301      2.53224040      1.00000000
    -10.160  0.0000E+00  0.0000E+00  0.0000E+00
    -10.074  0.0000E+00  0.0000E+00  0.0000E+00
     -9.988  0.0000E+00  0.0000E+00  0.0000E+00
     -9.902  0.0000E+00  0.0000E+00  0.0000E+00
     -9.815  0.0000E+00  0.0000E+00  0.0000E+00
     -9.729  0.0000E+00  0.0000E+00  0.0000E+00
     -9.643  0.0000E+00  0.0000E+00  0.0000E+00
     -9.557  0.0000E+00  0.0000E+00  0.0000E+00
     -9.470  0.0000E+00  0.0000E+00  0.0000E+00
     -9.384  0.0000E+00  0.0000E+00  0.0000E+00
     -9.298  0.0000E+00  0.0000E+00  0.0000E+00
     -9.211  0.0000E+00  0.0000E+00  0.0000E+00
     -9.125  0.0000E+00  0.0000E+00  0.0000E+00
     -9.039  0.2983E-16  0.2066E-34  0.3486E-33
     -8.953  0.7261E-02  0.5030E-20  0.8487E-19
     -8.866  0.4485E-01  0.2140E-02  0.1408E-01
     -8.780  0.3432E-01  0.2358E-02  0.1566E-01
     -8.694  0.5294E-01  0.8296E-02  0.6284E-01
     -8.608  0.1115E+00  0.2854E-01  0.2326E+00
     -8.521  0.1056E+00  0.7228E-01  0.6695E+00
     -8.435  0.3032E-01  0.9000E-01  0.8891E+00
     -8.349  0.2301E-16  0.2281E-01  0.2307E+00
     -8.262  0.0000E+00  0.0000E+00  0.0000E+00
     -8.176  0.0000E+00  0.0000E+00  0.0000E+00
     -8.090  0.0000E+00  0.0000E+00  0.0000E+00
     -8.004  0.0000E+00  0.0000E+00  0.0000E+00
     -7.917  0.0000E+00  0.0000E+00  0.0000E+00
     -7.831  0.0000E+00  0.0000E+00  0.0000E+00
     -7.745  0.0000E+00  0.0000E+00  0.0000E+00
     -7.659  0.0000E+00  0.0000E+00  0.0000E+00
     -7.572  0.0000E+00  0.0000E+00  0.0000E+00
     -7.486  0.0000E+00  0.0000E+00  0.0000E+00
     -7.400  0.0000E+00  0.0000E+00  0.0000E+00
     -7.313  0.0000E+00  0.0000E+00  0.0000E+00
     -7.227  0.0000E+00  0.0000E+00  0.0000E+00
     -7.141  0.0000E+00  0.0000E+00  0.0000E+00
     -7.055  0.0000E+00  0.0000E+00  0.0000E+00
     -6.968  0.0000E+00  0.0000E+00  0.0000E+00
     -6.882  0.0000E+00  0.0000E+00  0.0000E+00
     -6.796  0.0000E+00  0.0000E+00  0.0000E+00
     -6.710  0.0000E+00  0.0000E+00  0.0000E+00
     -6.623  0.0000E+00  0.0000E+00  0.0000E+00
     -6.537  0.0000E+00  0.0000E+00  0.0000E+00
     -6.451  0.0000E+00  0.0000E+00  0.0000E+00
     -6.364  0.0000E+00  0.0000E+00  0.0000E+00
     -6.278  0.0000E+00  0.0000E+00  0.0000E+00
     -6.192  0.0000E+00  0.0000E+00  0.0000E+00
     -6.106  0.0000E+00  0.0000E+00  0.0000E+00
     -6.019  0.3456E-27  0.9842E-12  0.1973E-08
     -5.933  0.9173E-05  0.2099E-02  0.3662E+01
     -5.847  0.1402E-01  0.1935E-01  0.3170E+02
     -5.761  0.1431E-01  0.3810E-02  0.9500E+01
     -5.674  0.5760E-02  0.5713E-03  0.3321E+02
     -5.588  0.3567E-01  0.1983E-02  0.3240E+01
     -5.502  0.5401E-02  0.6860E-03  0.3710E+00
     -5.415  0.5417E-04  0.7782E-05  0.3818E-02
     -5.329  0.6163E-01  0.1011E-01  0.4367E+01
     -5.243  0.2298E-01  0.6826E-02  0.2280E+01
     -5.157  0.2727E-01  0.2274E-01  0.4625E+01
     -5.070  0.1683E-18  0.6684E-02  0.1038E+01
     -4.984  0.0000E+00  0.0000E+00  0.0000E+00
     -4.898  0.0000E+00  0.0000E+00  0.0000E+00
     -4.812  0.0000E+00  0.0000E+00  0.0000E+00
     -4.725  0.0000E+00  0.0000E+00  0.0000E+00
     -4.639  0.0000E+00  0.0000E+00  0.0000E+00
     -4.553  0.0000E+00  0.0000E+00  0.0000E+00
     -4.467  0.0000E+00  0.0000E+00  0.0000E+00
     -4.380  0.0000E+00  0.0000E+00  0.0000E+00
     -4.294  0.0000E+00  0.0000E+00  0.0000E+00
     -4.208  0.0000E+00  0.0000E+00  0.0000E+00
     -4.121  0.0000E+00  0.0000E+00  0.0000E+00
     -4.035  0.0000E+00  0.0000E+00  0.0000E+00
     -3.949  0.0000E+00  0.0000E+00  0.0000E+00
     -3.863  0.0000E+00  0.0000E+00  0.0000E+00
     -3.776  0.0000E+00  0.0000E+00  0.0000E+00
     -3.690  0.0000E+00  0.0000E+00  0.0000E+00
     -3.604  0.0000E+00  0.0000E+00  0.0000E+00
     -3.518  0.0000E+00  0.0000E+00  0.0000E+00
     -3.431  0.0000E+00  0.0000E+00  0.0000E+00
     -3.345  0.0000E+00  0.0000E+00  0.0000E+00
     -3.259  0.0000E+00  0.0000E+00  0.0000E+00
     -3.172  0.0000E+00  0.0000E+00  0.0000E+00
     -3.086  0.0000E+00  0.0000E+00  0.0000E+00
     -3.000  0.0000E+00  0.0000E+00  0.0000E+00
     -2.914  0.0000E+00  0.0000E+00  0.0000E+00
     -2.827  0.0000E+00  0.0000E+00  0.0000E+00
     -2.741  0.0000E+00  0.0000E+00  0.0000E+00
     -2.655  0.0000E+00  0.0000E+00  0.0000E+00
     -2.569  0.0000E+00  0.0000E+00  0.0000E+00
     -2.482  0.0000E+00  0.0000E+00  0.0000E+00
     -2.396  0.0000E+00  0.0000E+00  0.0000E+00
     -2.310  0.0000E+00  0.0000E+00  0.0000E+00
     -2.223  0.7260E-01  0.1200E-01  0.3364E-04
     -2.137  0.4235E-08  0.2646E-25  0.5683E-09
     -2.051  0.8137E-01  0.1651E-07  0.1092E-01
     -1.965  0.1271E+01  0.7760E-01  0.6277E-01
     -1.878  0.7663E+00  0.1765E-01  0.7311E-01
     -1.792  0.0000E+00  0.0000E+00  0.0000E+00
     -1.706  0.4604E+00  0.6112E-01  0.6802E-01
     -1.620  0.0000E+00  0.0000E+00  0.0000E+00
     -1.533  0.5386E+00  0.3166E-01  0.1006E+00
     -1.447  0.0000E+00  0.0000E+00  0.0000E+00
     -1.361  0.3900E-02  0.7989E-03  0.1115E-02
     -1.274  0.1222E+00  0.2504E-01  0.3495E-01
     -1.188  0.1351E+00  0.4514E-02  0.4185E-01
     -1.102  0.0000E+00  0.0000E+00  0.0000E+00
     -1.016  0.0000E+00  0.0000E+00  0.0000E+00
     -0.929  0.0000E+00  0.0000E+00  0.0000E+00
     -0.843  0.4234E+00  0.5506E-01  0.1465E+00
     -0.757  0.0000E+00  0.0000E+00  0.0000E+00
     -0.671  0.0000E+00  0.0000E+00  0.0000E+00
     -0.584  0.0000E+00  0.0000E+00  0.0000E+00
     -0.498  0.0000E+00  0.0000E+00  0.0000E+00
     -0.412  0.1966E+00  0.3017E-01  0.7754E-01
     -0.325  0.6663E-02  0.9770E-01  0.3799E-01
     -0.239  0.0000E+00  0.0000E+00  0.0000E+00
     -0.153  0.2707E-04  0.1084E-03  0.5000E-04
     -0.067  0.4608E-01  0.1846E+00  0.8511E-01
      0.020  0.3775E-10  0.1108E-08  0.6096E-09
      0.106  0.6788E-02  0.1363E+00  0.6551E-01
      0.192  0.4655E-02  0.1396E+00  0.2281E-01
      0.278  0.3288E-01  0.1675E+00  0.7186E-01
      0.365  0.0000E+00  0.0000E+00  0.0000E+00
      0.451  0.1710E-15  0.5496E-01  0.1175E-01
      0.537  0.8085E-01  0.1698E+00  0.1034E+00
      0.623  0.2021E+00  0.3288E-01  0.9738E-01
      0.710  0.9857E-01  0.5440E+00  0.2505E+00
      0.796  0.2335E-19  0.1792E-03  0.7288E-04
      0.882  0.1334E-16  0.1024E+00  0.4165E-01
      0.969  0.1920E-08  0.5168E-07  0.2665E-07
      1.055  0.1175E-01  0.2942E+00  0.1527E+00
      1.141  0.1788E-01  0.8307E-01  0.5893E-01
      1.227  0.6169E-01  0.1599E+00  0.1290E+00
      1.314  0.9712E-16  0.1898E+00  0.1092E+00
      1.400  0.5728E-15  0.1792E+00  0.1210E+00
      1.486  0.0000E+00  0.0000E+00  0.0000E+00
      1.572  0.4801E-16  0.1587E+00  0.1215E+00
      1.659  0.2938E-17  0.5616E-01  0.4273E-01
      1.745  0.1526E-18  0.5979E-03  0.6015E-03
      1.831  0.4519E-16  0.1764E+00  0.1775E+00
      1.918  0.0000E+00  0.0000E+00  0.0000E+00
      2.004  0.2883E-24  0.6635E-09  0.8866E-09
      2.090  0.2786E-16  0.6412E-01  0.8568E-01
      2.176  0.1541E-16  0.5606E-01  0.9611E-01
      2.263  0.0000E+00  0.0000E+00  0.0000E+00
      2.349  0.0000E+00  0.0000E+00  0.0000E+00
      2.435  0.4346E-18  0.9278E-02  0.2651E-01
      2.521  0.0000E+00  0.0000E+00  0.0000E+00
      2.608  0.0000E+00  0.0000E+00  0.0000E+00
      2.694  0.0000E+00  0.0000E+00  0.0000E+00
      2.780  0.0000E+00  0.0000E+00  0.0000E+00
      2.867  0.0000E+00  0.0000E+00  0.0000E+00
      2.953  0.0000E+00  0.0000E+00  0.0000E+00
      3.039  0.1417E-02  0.1015E-20  0.5118E-20
      3.125  0.3126E-01  0.2238E-19  0.1129E-18
      3.212  0.0000E+00  0.0000E+00  0.0000E+00
      3.298  0.0000E+00  0.0000E+00  0.0000E+00
      3.384  0.0000E+00  0.0000E+00  0.0000E+00
      3.470  0.0000E+00  0.0000E+00  0.0000E+00
      3.557  0.0000E+00  0.0000E+00  0.0000E+00
      3.643  0.0000E+00  0.0000E+00  0.0000E+00
      3.729  0.0000E+00  0.0000E+00  0.0000E+00
      3.816  0.0000E+00  0.0000E+00  0.0000E+00
      3.902  0.0000E+00  0.0000E+00  0.0000E+00
      3.988  0.0000E+00  0.0000E+00  0.0000E+00
      4.074  0.1764E-04  0.2262E-05  0.7647E-06
      4.161  0.1057E+00  0.1356E-01  0.4577E-02
      4.247  0.3849E+00  0.6446E-01  0.9687E-02
      4.333  0.0000E+00  0.0000E+00  0.0000E+00
      4.419  0.0000E+00  0.0000E+00  0.0000E+00
      4.506  0.0000E+00  0.0000E+00  0.0000E+00
      4.592  0.0000E+00  0.0000E+00  0.0000E+00
      4.678  0.0000E+00  0.0000E+00  0.0000E+00
      4.765  0.1687E-22  0.1490E-06  0.5933E-07
      4.851  0.1115E-03  0.3140E-01  0.1251E-01
      4.937  0.1283E+00  0.5815E-02  0.1056E-01
      5.023  0.2746E+00  0.7534E-01  0.3257E-01
      5.110  0.6739E+00  0.2394E+00  0.1271E+00
      5.196  0.5426E+00  0.1249E+00  0.3095E-01
      5.282  0.4813E+00  0.8473E-01  0.4112E-01
      5.368  0.1693E+00  0.7477E-01  0.3743E-01
      5.455  0.6498E-01  0.2982E-01  0.1970E-01
      5.541  0.0000E+00  0.0000E+00  0.0000E+00
      5.627  0.0000E+00  0.0000E+00  0.0000E+00
      5.713  0.0000E+00  0.0000E+00  0.0000E+00
      5.800  0.0000E+00  0.0000E+00  0.0000E+00
      5.886  0.0000E+00  0.0000E+00  0.0000E+00
      5.972  0.6353E+00  0.1354E+00  0.4931E-01
      6.059  0.2927E+00  0.2205E+00  0.1381E+00
      6.145  0.7689E+00  0.9078E-01  0.8394E-01
      6.231  0.0000E+00  0.0000E+00  0.0000E+00
      6.317  0.5410E-02  0.1395E-01  0.1423E-02
      6.404  0.1229E+00  0.3968E+00  0.5220E-01
      6.490  0.0000E+00  0.0000E+00  0.0000E+00
      6.576  0.0000E+00  0.0000E+00  0.0000E+00
      6.662  0.0000E+00  0.0000E+00  0.0000E+00
      6.749  0.0000E+00  0.0000E+00  0.0000E+00
      6.835  0.7274E-18  0.6159E-16  0.3212E-16
      6.921  0.2184E-02  0.2651E+00  0.9678E-01
      7.008  0.1377E+00  0.3747E+00  0.1054E+00
      7.094  0.4237E-01  0.1022E+00  0.1171E-01
      7.180  0.6422E-11  0.3592E-10  0.1300E-10
      7.266  0.4047E-01  0.6277E+00  0.9385E-01
      7.353  0.0000E+00  0.0000E+00  0.0000E+00
      7.439  0.5159E-09  0.2203E-09  0.7141E-10
      7.525  0.1452E+00  0.4685E+00  0.6084E-01
      7.611  0.9233E-04  0.5502E+00  0.1204E+00
      7.698  0.0000E+00  0.0000E+00  0.0000E+00
      7.784  0.1656E-03  0.5579E-02  0.1038E-02
      7.870  0.4199E-02  0.1436E+00  0.2644E-01
      7.957  0.3367E-15  0.4236E+00  0.3714E-01
      8.043  0.8779E-03  0.2422E+00  0.9121E-01
      8.129  0.1296E+00  0.2581E+00  0.4455E-01
      8.215  0.1625E-33  0.2130E-16  0.4804E-17
      8.302  0.2928E-17  0.3837E+00  0.8655E-01
      8.388  0.0000E+00  0.0000E+00  0.0000E+00
      8.474  0.9824E-19  0.4024E+00  0.5245E-01
      8.560  0.4726E-04  0.8168E-04  0.2383E-04
      8.647  0.2768E-01  0.4785E-01  0.1396E-01
      8.733  0.9016E-01  0.1673E+00  0.6446E-01
      8.819  0.0000E+00  0.0000E+00  0.0000E+00
      8.906  0.1596E-01  0.6337E-01  0.2388E-01
      8.992  0.1641E-20  0.2961E-06  0.5676E-07
      9.078  0.9861E-15  0.1780E+00  0.3412E-01
      9.164  0.9853E-24  0.2033E-08  0.2797E-09
      9.251  0.9154E-10  0.2040E+00  0.2806E-01
      9.337  0.1422E+00  0.3707E+00  0.1235E+00
      9.423  0.1879E-13  0.2729E-12  0.2394E-11
      9.509  0.3349E-03  0.4866E-02  0.4268E-01
      9.596  0.5176E-03  0.2016E+00  0.7462E-01
      9.682  0.2579E-01  0.1025E-03  0.7895E-03
      9.768  0.2935E-01  0.1278E-01  0.2310E-01
      9.855  0.4728E-02  0.6839E+00  0.1045E+00
      9.941  0.4132E-16  0.2400E+00  0.2602E-01
     10.027  0.5150E-26  0.2379E-10  0.1343E-08
     10.113  0.2989E-17  0.3937E+00  0.1722E+00
     10.200  0.4134E-11  0.2484E-10  0.1479E-10
     10.286  0.7836E-01  0.1959E+00  0.1192E+00
     10.372  0.2450E-03  0.3706E+00  0.1111E+00
     10.458  0.0000E+00  0.0000E+00  0.0000E+00
     10.545  0.3121E-02  0.8321E-02  0.1039E-01
     10.631  0.3003E-01  0.8007E-01  0.1000E+00
     10.717  0.1010E+00  0.5331E-01  0.3765E-02
     10.803  0.2789E-22  0.2351E-06  0.2057E-05
     10.890  0.3175E-17  0.1229E+00  0.3163E+00
     10.976  0.4431E-01  0.4461E-03  0.1618E-03
     11.062  0.1145E-16  0.8595E-16  0.3424E-16
     11.149  0.2578E-01  0.1935E+00  0.7709E-01
     11.235  0.2561E-01  0.6844E-03  0.2761E-02
     11.321  0.5760E-03  0.1852E+00  0.1646E+00
     11.407  0.2677E-18  0.6692E-01  0.9545E-01
     11.494  0.2095E+00  0.6005E+00  0.1141E+00
     11.580  0.7219E-16  0.1381E+00  0.9442E-02
     11.666  0.0000E+00  0.0000E+00  0.0000E+00
     11.752  0.8659E-33  0.1893E-22  0.5221E-12
     11.839  0.3713E-22  0.8116E-12  0.2239E-01
     11.925  0.0000E+00  0.0000E+00  0.0000E+00
     12.011  0.2156E-02  0.1431E+00  0.3663E-01
     12.098  0.2829E+00  0.2360E+00  0.1324E+00
     12.184  0.3922E-17  0.7572E-01  0.1697E+00
     12.270  0.0000E+00  0.0000E+00  0.0000E+00
     12.356  0.1312E+00  0.7939E-01  0.6196E-01
     12.443  0.0000E+00  0.0000E+00  0.0000E+00
     12.529  0.0000E+00  0.0000E+00  0.0000E+00
     12.615  0.1141E-12  0.1742E-08  0.6876E-09
     12.701  0.4638E-01  0.4925E+00  0.2421E+00
     12.788  0.6292E-19  0.7282E-01  0.2569E-01
     12.874  0.4466E-03  0.9098E-01  0.1262E+00
     12.960  0.0000E+00  0.0000E+00  0.0000E+00
     13.047  0.3586E-30  0.1063E-12  0.4359E-13
     13.133  0.6805E-18  0.2018E+00  0.8273E-01
     13.219  0.6639E-29  0.1361E-19  0.6882E-19
     13.305  0.4229E-26  0.8671E-17  0.4385E-16
     13.392  0.0000E+00  0.0000E+00  0.0000E+00
     13.478  0.2942E-14  0.1275E-02  0.3372E-03
     13.564  0.4410E-12  0.1911E+00  0.5055E-01
     13.650  0.4649E-04  0.2798E+00  0.9216E-01
     13.737  0.2368E-02  0.2945E-02  0.2626E-01
     13.823  0.7475E-07  0.2630E-05  0.8013E-06
     13.909  0.1195E-01  0.5146E+00  0.1373E+00
     13.996  0.1589E-18  0.9012E-02  0.2043E-01
     14.082  0.0000E+00  0.0000E+00  0.0000E+00
     14.168  0.0000E+00  0.0000E+00  0.0000E+00
     14.254  0.0000E+00  0.0000E+00  0.0000E+00
     14.341  0.1814E-01  0.5868E-01  0.1946E-02
     14.427  0.0000E+00  0.0000E+00  0.0000E+00
     14.513  0.1479E-06  0.4424E-06  0.1530E-07
     14.599  0.3237E-01  0.9680E-01  0.3347E-02
     14.686  0.0000E+00  0.0000E+00  0.0000E+00
     14.772  0.0000E+00  0.0000E+00  0.0000E+00
     14.858  0.0000E+00  0.0000E+00  0.0000E+00
     14.945  0.0000E+00  0.0000E+00  0.0000E+00
     15.031  0.0000E+00  0.0000E+00  0.0000E+00
     15.117  0.0000E+00  0.0000E+00  0.0000E+00
     15.203  0.0000E+00  0.0000E+00  0.0000E+00
     15.290  0.0000E+00  0.0000E+00  0.0000E+00
     15.376  0.0000E+00  0.0000E+00  0.0000E+00
     15.462  0.0000E+00  0.0000E+00  0.0000E+00
     15.548  0.0000E+00  0.0000E+00  0.0000E+00
     15.635  0.0000E+00  0.0000E+00  0.0000E+00
     15.721  0.0000E+00  0.0000E+00  0.0000E+00
     15.72094200    -10.16040211  301      2.53224040      1.00000000
    -10.160  0.0000E+00  0.0000E+00  0.0000E+00
    -10.074  0.0000E+00  0.0000E+00  0.0000E+00
     -9.988  0.0000E+00  0.0000E+00  0.0000E+00
     -9.902  0.0000E+00  0.0000E+00  0.0000E+00
     -9.815  0.0000E+00  0.0000E+00  0.0000E+00
     -9.729  0.0000E+00  0.0000E+00  0.0000E+00
     -9.643  0.0000E+00  0.0000E+00  0.0000E+00
     -9.557  0.0000E+00  0.0000E+00  0.0000E+00
     -9.470  0.0000E+00  0.0000E+00  0.0000E+00
     -9.384  0.0000E+00  0.0000E+00  0.0000E+00
     -9.298  0.0000E+00  0.0000E+00  0.0000E+00
     -9.211  0.0000E+00  0.0000E+00  0.0000E+00
     -9.125  0.0000E+00  0.0000E+00  0.0000E+00
     -9.039  0.2501E-15  0.2904E-34  0.4170E-32
     -8.953  0.6088E-01  0.7068E-20  0.1015E-17
     -8.866  0.4504E+00  0.1511E-03  0.1003E-05
     -8.780  0.3696E+00  0.1621E-03  0.1221E-06
     -8.694  0.7433E+00  0.3684E-03  0.4395E-05
     -8.608  0.1986E+01  0.9133E-03  0.1491E-04
     -8.521  0.3642E+01  0.8438E-03  0.3593E-04
     -8.435  0.3728E+01  0.2771E-03  0.1537E-04
     -8.349  0.8842E+00  0.5176E-08  0.2245E-05
     -8.262  0.0000E+00  0.0000E+00  0.0000E+00
     -8.176  0.0000E+00  0.0000E+00  0.0000E+00
     -8.090  0.0000E+00  0.0000E+00  0.0000E+00
     -8.004  0.0000E+00  0.0000E+00  0.0000E+00
     -7.917  0.0000E+00  0.0000E+00  0.0000E+00
     -7.831  0.0000E+00  0.0000E+00  0.0000E+00
     -7.745  0.0000E+00  0.0000E+00  0.0000E+00
     -7.659  0.0000E+00  0.0000E+00  0.0000E+00
     -7.572  0.0000E+00  0.0000E+00  0.0000E+00
     -7.486  0.0000E+00  0.0000E+00  0.0000E+00
     -7.400  0.0000E+00  0.0000E+00  0.0000E+00
     -7.313  0.0000E+00  0.0000E+00  0.0000E+00
     -7.227  0.0000E+00  0.0000E+00  0.0000E+00
     -7.141  0.0000E+00  0.0000E+00  0.0000E+00
     -7.055  0.0000E+00  0.0000E+00  0.0000E+00
     -6.968  0.0000E+00  0.0000E+00  0.0000E+00
     -6.882  0.0000E+00  0.0000E+00  0.0000E+00
     -6.796  0.0000E+00  0.0000E+00  0.0000E+00
     -6.710  0.0000E+00  0.0000E+00  0.0000E+00
     -6.623  0.0000E+00  0.0000E+00  0.0000E+00
     -6.537  0.0000E+00  0.0000E+00  0.0000E+00
     -6.451  0.0000E+00  0.0000E+00  0.0000E+00
     -6.364  0.0000E+00  0.0000E+00  0.0000E+00
     -6.278  0.0000E+00  0.0000E+00  0.0000E+00
     -6.192  0.0000E+00  0.0000E+00  0.0000E+00
     -6.106  0.0000E+00  0.0000E+00  0.0000E+00
     -6.019  0.6963E-27  0.4974E-10  0.1750E-11
     -5.933  0.1084E-05  0.8425E-01  0.3611E-02
     -5.847  0.1259E-01  0.5577E+00  0.3811E-01
     -5.761  0.1562E-01  0.1060E+00  0.1178E-01
     -5.674  0.6154E-02  0.2270E-01  0.3006E-01
     -5.588  0.9658E-01  0.3646E-01  0.4078E-02
     -5.502  0.2240E-01  0.3964E-02  0.6278E-03
     -5.415  0.2803E-03  0.4096E-04  0.3535E-05
     -5.329  0.3386E+00  0.4669E-01  0.4096E-02
     -5.243  0.2109E+00  0.1066E-01  0.2341E-02
     -5.157  0.5585E+00  0.1516E-01  0.3309E-02
     -5.070  0.1467E+00  0.7875E-04  0.4737E-03
     -4.984  0.0000E+00  0.0000E+00  0.0000E+00
     -4.898  0.0000E+00  0.0000E+00  0.0000E+00
     -4.812  0.0000E+00  0.0000E+00  0.0000E+00
     -4.725  0.0000E+00  0.0000E+00  0.0000E+00
     -4.639  0.0000E+00  0.0000E+00  0.0000E+00
     -4.553  0.0000E+00  0.0000E+00  0.0000E+00
     -4.467  0.0000E+00  0.0000E+00  0.0000E+00
     -4.380  0.0000E+00  0.0000E+00  0.0000E+00
     -4.294  0.0000E+00  0.0000E+00  0.0000E+00
     -4.208  0.0000E+00  0.0000E+00  0.0000E+00
     -4.121  0.0000E+00  0.0000E+00  0.0000E+00
     -4.035  0.0000E+00  0.0000E+00  0.0000E+00
     -3.949  0.0000E+00  0.0000E+00  0.0000E+00
     -3.863  0.0000E+00  0.0000E+00  0.0000E+00
     -3.776  0.0000E+00  0.0000E+00  0.0000E+00
     -3.690  0.0000E+00  0.0000E+00  0.0000E+00
     -3.604  0.0000E+00  0.0000E+00  0.0000E+00
     -3.518  0.0000E+00  0.0000E+00  0.0000E+00
     -3.431  0.0000E+00  0.0000E+00  0.0000E+00
     -3.345  0.0000E+00  0.0000E+00  0.0000E+00
     -3.259  0.0000E+00  0.0000E+00  0.0000E+00
     -3.172  0.0000E+00  0.0000E+00  0.0000E+00
     -3.086  0.0000E+00  0.0000E+00  0.0000E+00
     -3.000  0.0000E+00  0.0000E+00  0.0000E+00
     -2.914  0.0000E+00  0.0000E+00  0.0000E+00
     -2.827  0.0000E+00  0.0000E+00  0.0000E+00
     -2.741  0.0000E+00  0.0000E+00  0.0000E+00
     -2.655  0.0000E+00  0.0000E+00  0.0000E+00
     -2.569  0.0000E+00  0.0000E+00  0.0000E+00
     -2.482  0.0000E+00  0.0000E+00  0.0000E+00