  96  96   0   0
  0.2080188E+02  0.1257760E-08  0.1245754E-08  0.1274818E-08  0.5000000E-15
  1.000000000000000E-004
  CAR 
 MAPbI3-Cubic                            
     10.10627523    -22.27567371  301      1.17425431      1.00000000
    -22.276  0.0000E+00  0.0000E+00
    -22.168  0.0000E+00  0.0000E+00
    -22.060  0.0000E+00  0.0000E+00
    -21.952  0.0000E+00  0.0000E+00
    -21.844  0.0000E+00  0.0000E+00
    -21.736  0.0000E+00  0.0000E+00
    -21.628  0.0000E+00  0.0000E+00
    -21.520  0.0000E+00  0.0000E+00
    -21.412  0.0000E+00  0.0000E+00
    -21.304  0.0000E+00  0.0000E+00
    -21.196  0.0000E+00  0.0000E+00
    -21.088  0.0000E+00  0.0000E+00
    -20.980  0.0000E+00  0.0000E+00
    -20.872  0.0000E+00  0.0000E+00
    -20.765  0.0000E+00  0.1600E+02
    -20.657  0.0000E+00  0.1600E+02
    -20.549  0.0000E+00  0.1600E+02
    -20.441  0.0000E+00  0.1600E+02
    -20.333  0.0000E+00  0.1600E+02
    -20.225  0.0000E+00  0.1600E+02
    -20.117  0.0000E+00  0.1600E+02
    -20.009  0.0000E+00  0.1600E+02
    -19.901  0.0000E+00  0.1600E+02
    -19.793  0.0000E+00  0.1600E+02
    -19.685  0.0000E+00  0.1600E+02
    -19.577  0.0000E+00  0.1600E+02
    -19.469  0.0000E+00  0.1600E+02
    -19.361  0.0000E+00  0.1600E+02
    -19.253  0.0000E+00  0.1600E+02
    -19.145  0.0000E+00  0.1600E+02
    -19.037  0.0000E+00  0.1600E+02
    -18.930  0.0000E+00  0.1600E+02
    -18.822  0.0000E+00  0.1600E+02
    -18.714  0.0000E+00  0.1600E+02
    -18.606  0.0000E+00  0.1600E+02
    -18.498  0.0000E+00  0.1600E+02
    -18.390  0.0000E+00  0.1600E+02
    -18.282  0.0000E+00  0.1600E+02
    -18.174  0.0000E+00  0.1600E+02
    -18.066  0.0000E+00  0.1600E+02
    -17.958  0.0000E+00  0.1600E+02
    -17.850  0.0000E+00  0.1600E+02
    -17.742  0.0000E+00  0.1600E+02
    -17.634  0.0000E+00  0.1600E+02
    -17.526  0.0000E+00  0.1600E+02
    -17.418  0.0000E+00  0.1600E+02
    -17.310  0.0000E+00  0.1600E+02
    -17.203  0.3094E+02  0.3534E+02
    -17.095  0.0000E+00  0.9600E+02
    -16.987  0.0000E+00  0.9600E+02
    -16.879  0.0000E+00  0.9600E+02
    -16.771  0.0000E+00  0.9600E+02
    -16.663  0.0000E+00  0.9600E+02
    -16.555  0.0000E+00  0.9600E+02
    -16.447  0.0000E+00  0.9600E+02
    -16.339  0.0000E+00  0.9600E+02
    -16.231  0.0000E+00  0.9600E+02
    -16.123  0.0000E+00  0.9600E+02
    -16.015  0.0000E+00  0.9600E+02
    -15.907  0.0000E+00  0.9600E+02
    -15.799  0.0000E+00  0.9600E+02
    -15.691  0.0000E+00  0.9600E+02
    -15.583  0.0000E+00  0.9600E+02
    -15.475  0.0000E+00  0.9600E+02
    -15.368  0.0000E+00  0.9600E+02
    -15.260  0.0000E+00  0.9600E+02
    -15.152  0.0000E+00  0.9600E+02
    -15.044  0.0000E+00  0.9600E+02
    -14.936  0.0000E+00  0.9600E+02
    -14.828  0.0000E+00  0.9600E+02
    -14.720  0.0000E+00  0.9600E+02
    -14.612  0.0000E+00  0.9600E+02
    -14.504  0.0000E+00  0.9600E+02
    -14.396  0.0000E+00  0.9600E+02
    -14.288  0.0000E+00  0.9600E+02
    -14.180  0.0000E+00  0.9600E+02
    -14.072  0.0000E+00  0.9600E+02
    -13.964  0.0000E+00  0.9600E+02
    -13.856  0.0000E+00  0.9600E+02
    -13.748  0.0000E+00  0.9600E+02
    -13.640  0.0000E+00  0.9600E+02
    -13.533  0.0000E+00  0.9600E+02
    -13.425  0.0000E+00  0.9600E+02
    -13.317  0.0000E+00  0.1040E+03
    -13.209  0.0000E+00  0.1120E+03
    -13.101  0.0000E+00  0.1120E+03
    -12.993  0.0000E+00  0.1120E+03
    -12.885  0.0000E+00  0.1120E+03
    -12.777  0.0000E+00  0.1120E+03
    -12.669  0.0000E+00  0.1120E+03
    -12.561  0.0000E+00  0.1120E+03
    -12.453  0.0000E+00  0.1120E+03
    -12.345  0.0000E+00  0.1121E+03
    -12.237  0.4157E+01  0.1139E+03
    -12.129  0.3715E+01  0.1183E+03
    -12.021  0.6861E+01  0.1240E+03
    -11.913  0.2886E+01  0.1285E+03
    -11.806  0.2023E+02  0.1322E+03
    -11.698  0.1373E+01  0.1400E+03
    -11.590  0.0000E+00  0.1436E+03
    -11.482  0.8022E+01  0.1510E+03
    -11.374  0.9608E+01  0.1591E+03
    -11.266  0.0000E+00  0.1600E+03
    -11.158  0.0000E+00  0.1600E+03
    -11.050  0.0000E+00  0.1600E+03
    -10.942  0.0000E+00  0.1600E+03
    -10.834  0.0000E+00  0.1600E+03
    -10.726  0.0000E+00  0.1600E+03
    -10.618  0.0000E+00  0.1600E+03
    -10.510  0.0000E+00  0.1600E+03
    -10.402  0.0000E+00  0.1600E+03
    -10.294  0.0000E+00  0.1600E+03
    -10.186  0.0000E+00  0.1600E+03
    -10.078  0.0000E+00  0.1600E+03
     -9.971  0.0000E+00  0.1600E+03
     -9.863  0.0000E+00  0.1600E+03
     -9.755  0.0000E+00  0.1600E+03
     -9.647  0.0000E+00  0.1600E+03
     -9.539  0.0000E+00  0.1600E+03
     -9.431  0.0000E+00  0.1600E+03
     -9.323  0.0000E+00  0.1600E+03
     -9.215  0.2682E-01  0.1600E+03
     -9.107  0.1716E+02  0.1759E+03
     -8.999  0.0000E+00  0.1920E+03
     -8.891  0.0000E+00  0.1920E+03
     -8.783  0.0000E+00  0.1920E+03
     -8.675  0.0000E+00  0.1920E+03
     -8.567  0.0000E+00  0.1920E+03
     -8.459  0.0000E+00  0.1920E+03
     -8.351  0.0000E+00  0.1920E+03
     -8.243  0.0000E+00  0.1920E+03
     -8.136  0.0000E+00  0.1920E+03
     -8.028  0.5655E-12  0.1920E+03
     -7.920  0.0000E+00  0.1921E+03
     -7.812  0.0000E+00  0.1925E+03
     -7.704  0.0000E+00  0.1934E+03
     -7.596  0.2745E+01  0.1940E+03
     -7.488  0.0000E+00  0.1944E+03
     -7.380  0.6863E+00  0.1964E+03
     -7.272  0.5489E+01  0.1985E+03
     -7.164  0.5765E-07  0.1991E+03
     -7.056  0.7544E+01  0.2084E+03
     -6.948  0.2745E+01  0.2175E+03
     -6.840  0.0000E+00  0.2196E+03
     -6.732  0.6863E+00  0.2215E+03
     -6.624  0.0000E+00  0.2223E+03
     -6.516  0.0000E+00  0.2226E+03
     -6.409  0.0000E+00  0.2235E+03
     -6.301  0.2734E+01  0.2239E+03
     -6.193  0.0000E+00  0.2239E+03
     -6.085  0.0000E+00  0.2240E+03
     -5.977  0.0000E+00  0.2240E+03
     -5.869  0.0000E+00  0.2240E+03
     -5.761  0.0000E+00  0.2240E+03
     -5.653  0.0000E+00  0.2240E+03
     -5.545  0.0000E+00  0.2240E+03
     -5.437  0.0000E+00  0.2240E+03
     -5.329  0.0000E+00  0.2240E+03
     -5.221  0.0000E+00  0.2240E+03
     -5.113  0.0000E+00  0.2240E+03
     -5.005  0.0000E+00  0.2240E+03
     -4.897  0.0000E+00  0.2240E+03
     -4.789  0.1576E+02  0.2318E+03
     -4.681  0.0000E+00  0.2560E+03
     -4.574  0.0000E+00  0.2560E+03
     -4.466  0.0000E+00  0.2560E+03
     -4.358  0.0000E+00  0.2560E+03
     -4.250  0.0000E+00  0.2560E+03
     -4.142  0.0000E+00  0.2560E+03
     -4.034  0.0000E+00  0.2560E+03
     -3.926  0.0000E+00  0.2560E+03
     -3.818  0.0000E+00  0.2560E+03
     -3.710  0.0000E+00  0.2560E+03
     -3.602  0.0000E+00  0.2560E+03
     -3.494  0.0000E+00  0.2560E+03
     -3.386  0.0000E+00  0.2560E+03
     -3.278  0.0000E+00  0.2560E+03
     -3.170  0.0000E+00  0.2560E+03
     -3.062  0.0000E+00  0.2560E+03
     -2.954  0.0000E+00  0.2560E+03
     -2.847  0.0000E+00  0.2560E+03
     -2.739  0.2745E+01  0.2573E+03
     -2.631  0.4038E+01  0.2607E+03
     -2.523  0.3215E+01  0.2632E+03
     -2.415  0.0000E+00  0.2653E+03
     -2.307  0.2745E+01  0.2676E+03
     -2.199  0.2062E+01  0.2713E+03
     -2.091  0.5328E+01  0.2748E+03
     -1.983  0.0000E+00  0.2785E+03
     -1.875  0.0000E+00  0.2796E+03
     -1.767  0.0000E+00  0.2800E+03
     -1.659  0.1355E+01  0.2804E+03
     -1.551  0.2745E+01  0.2839E+03
     -1.443  0.1135E+02  0.2900E+03
     -1.335  0.4123E+01  0.2965E+03
     -1.227  0.2122E+01  0.3020E+03
     -1.119  0.7649E+01  0.3068E+03
     -1.012  0.2341E-07  0.3109E+03
     -0.904  0.8109E+00  0.3162E+03
     -0.796  0.4094E+01  0.3236E+03
     -0.688  0.4662E+01  0.3314E+03
     -0.580  0.1373E+01  0.3373E+03
     -0.472  0.6869E+01  0.3460E+03
     -0.364  0.2744E+01  0.3546E+03
     -0.256  0.7966E+01  0.3637E+03
     -0.148  0.6675E+01  0.3721E+03
     -0.040  0.2601E+01  0.3795E+03
      0.068  0.6560E-01  0.3873E+03
      0.176  0.2751E+01  0.3911E+03
      0.284  0.1427E-07  0.3936E+03
      0.392  0.4863E+00  0.3953E+03
      0.500  0.0000E+00  0.3972E+03
      0.608  0.6862E+00  0.3985E+03
      0.716  0.0000E+00  0.3993E+03
      0.823  0.6224E-03  0.3993E+03
      0.931  0.0000E+00  0.3998E+03
      1.039  0.0000E+00  0.3999E+03
      1.147  0.0000E+00  0.4000E+03
      1.255  0.0000E+00  0.4000E+03
      1.363  0.0000E+00  0.4000E+03
      1.471  0.0000E+00  0.4000E+03
      1.579  0.0000E+00  0.4000E+03
      1.687  0.0000E+00  0.4000E+03
      1.795  0.0000E+00  0.4000E+03
      1.903  0.0000E+00  0.4000E+03
      2.011  0.0000E+00  0.4000E+03
      2.119  0.0000E+00  0.4000E+03
      2.227  0.0000E+00  0.4000E+03
      2.335  0.0000E+00  0.4000E+03
      2.443  0.0000E+00  0.4000E+03
      2.550  0.0000E+00  0.4000E+03
      2.658  0.0000E+00  0.4000E+03
      2.766  0.0000E+00  0.4000E+03
      2.874  0.0000E+00  0.4000E+03
      2.982  0.0000E+00  0.4000E+03
      3.090  0.0000E+00  0.4000E+03
      3.198  0.0000E+00  0.4000E+03
      3.306  0.1333E+01  0.4002E+03
      3.414  0.0000E+00  0.4007E+03
      3.522  0.1376E+01  0.4015E+03
      3.630  0.3431E+01  0.4033E+03
      3.738  0.8736E-01  0.4041E+03
      3.846  0.2587E+00  0.4060E+03
      3.954  0.1373E+01  0.4068E+03
      4.062  0.0000E+00  0.4081E+03
      4.170  0.5153E+00  0.4087E+03
      4.278  0.1372E+01  0.4096E+03
      4.385  0.0000E+00  0.4108E+03
      4.493  0.4117E+01  0.4135E+03
      4.601  0.2745E+01  0.4153E+03
      4.709  0.4056E+01  0.4178E+03
      4.817  0.2745E+01  0.4207E+03
      4.925  0.0000E+00  0.4227E+03
      5.033  0.0000E+00  0.4239E+03
      5.141  0.0000E+00  0.4240E+03
      5.249  0.0000E+00  0.4240E+03
      5.357  0.0000E+00  0.4240E+03
      5.465  0.0000E+00  0.4240E+03
      5.573  0.0000E+00  0.4241E+03
      5.681  0.1373E+01  0.4245E+03
      5.789  0.1373E+01  0.4270E+03
      5.897  0.2745E+01  0.4296E+03
      6.005  0.2069E+01  0.4344E+03
      6.113  0.4120E+01  0.4375E+03
      6.220  0.6863E+01  0.4401E+03
      6.328  0.1080E-03  0.4421E+03
      6.436  0.0000E+00  0.4447E+03
      6.544  0.5490E+01  0.4483E+03
      6.652  0.5440E+01  0.4519E+03
      6.760  0.2002E+01  0.4566E+03
      6.868  0.5121E+01  0.4611E+03
      6.976  0.2105E+01  0.4641E+03
      7.084  0.4809E+01  0.4704E+03
      7.192  0.5647E+01  0.4747E+03
      7.300  0.2920E-02  0.4790E+03
      7.408  0.1373E+01  0.4824E+03
      7.516  0.1373E+01  0.4866E+03
      7.624  0.1373E+01  0.4889E+03
      7.732  0.1374E+01  0.4927E+03
      7.840  0.2740E+01  0.4969E+03
      7.947  0.1373E+01  0.4999E+03
      8.055  0.2729E+01  0.5030E+03
      8.163  0.0000E+00  0.5053E+03
      8.271  0.1799E+01  0.5078E+03
      8.379  0.2714E+01  0.5100E+03
      8.487  0.1373E+01  0.5113E+03
      8.595  0.0000E+00  0.5119E+03
      8.703  0.0000E+00  0.5120E+03
      8.811  0.0000E+00  0.5120E+03
      8.919  0.0000E+00  0.5120E+03
      9.027  0.0000E+00  0.5120E+03
      9.135  0.0000E+00  0.5120E+03
      9.243  0.0000E+00  0.5120E+03
      9.351  0.0000E+00  0.5120E+03
      9.459  0.0000E+00  0.5120E+03
      9.567  0.0000E+00  0.5120E+03
      9.675  0.0000E+00  0.5120E+03
      9.782  0.0000E+00  0.5120E+03
      9.890  0.0000E+00  0.5120E+03
      9.998  0.0000E+00  0.5120E+03
     10.106  0.0000E+00  0.5120E+03
