 running on 1344 total cores
 distrk:  each k-point on  192 cores,    7 groups
 distr:  one band on   12 cores,   16 groups
 using from now: INCAR     
 vasp.5.4.1 24Jun15 (build Nov 25 2015 16:01:35) complex                        
  
 POSCAR found type information on POSCAR  C  N  H  Pb I 
 POSCAR found :  5 types and      96 ions
 scaLAPACK will be used

 ----------------------------------------------------------------------------- 
|                                                                             |
|           W    W    AA    RRRRR   N    N  II  N    N   GGGG   !!!           |
|           W    W   A  A   R    R  NN   N  II  NN   N  G    G  !!!           |
|           W    W  A    A  R    R  N N  N  II  N N  N  G       !!!           |
|           W WW W  AAAAAA  RRRRR   N  N N  II  N  N N  G  GGG   !            |
|           WW  WW  A    A  R   R   N   NN  II  N   NN  G    G                |
|           W    W  A    A  R    R  N    N  II  N    N   GGGG   !!!           |
|                                                                             |
|      For optimal performance we recommend to set                            |
|        NCORE= 4 - approx SQRT( number of cores)                             |
|      NCORE specifies how many cores store one orbital (NPAR=cpu/NCORE).     |
|      This setting can  greatly improve the performance of VASP for DFT.     |
|      The default, NPAR=number of cores might be grossly inefficient         |
|      on modern multi-core architectures or massively parallel machines.     |
|      Do your own testing !!!!                                               |
|      Unfortunately you need to use the default for GW and RPA calculations. |
|      (for HF NCORE is supported but not extensively tested yet)             |
|                                                                             |
 ----------------------------------------------------------------------------- 


 ----------------------------------------------------------------------------- 
|                                                                             |
|           W    W    AA    RRRRR   N    N  II  N    N   GGGG   !!!           |
|           W    W   A  A   R    R  NN   N  II  NN   N  G    G  !!!           |
|           W    W  A    A  R    R  N N  N  II  N N  N  G       !!!           |
|           W WW W  AAAAAA  RRRRR   N  N N  II  N  N N  G  GGG   !            |
|           WW  WW  A    A  R   R   N   NN  II  N   NN  G    G                |
|           W    W  A    A  R    R  N    N  II  N    N   GGGG   !!!           |
|                                                                             |
|      You have enabled k-point parallelism (KPAR>1).                         |
|      This developmental code was originally  written by Paul Kent at ORNL,  |
|      and carefully double checked in Vienna.                                |
|      GW as well as linear response parallelism added by Martijn Marsman     |
|      and Georg Kresse.                                                      |
|      Carefully verify results versus KPAR=1.                                |
|      Report problems to Paul Kent and Vienna.                               |
|                                                                             |
 ----------------------------------------------------------------------------- 


 ----------------------------------------------------------------------------- 
|                                                                             |
|  ADVICE TO THIS USER RUNNING 'VASP/VAMP'   (HEAR YOUR MASTER'S VOICE ...):  |
|                                                                             |
|      You have a (more or less) 'large supercell' and for larger cells       |
|      it might be more efficient to use real space projection opertators     |
|      So try LREAL= Auto  in the INCAR   file.                               |
|      Mind: At the moment your POTCAR file does not contain real space       |
|       projectors, and has to be modified,  BUT if you                       |
|      want to do an extremely  accurate calculation you might also keep the  |
|      reciprocal projection scheme          (i.e. LREAL=.FALSE.)             |
|                                                                             |
 ----------------------------------------------------------------------------- 

 LDA part: xc-table for Pade appr. of Perdew
 POSCAR, INCAR and KPOINTS ok, starting setup
 WARNING: small aliasing (wrap around) errors must be expected
 FFT: planning ...
 WAVECAR not read
  WARNING: DENMP: can't reach specified precision
  Number of Electrons is NELECT =   399.999999999859     
 entering main loop
       N       E                     dE             d eps       ncg     rms          ort
DAV:   1     0.345972795179E+05    0.34597E+05   -0.11419E+06  3584   0.486E+03
DAV:   2     0.859048812268E+04   -0.26007E+05   -0.25275E+05  3584   0.168E+03
DAV:   3     0.179243066114E+04   -0.67981E+04   -0.66934E+04  3584   0.498E+02
DAV:   4     0.439397802374E+03   -0.13530E+04   -0.12974E+04  3584   0.208E+02
DAV:   5     0.274404756915E+03   -0.16499E+03   -0.16232E+03  3584   0.782E+01
 gam= 0.000 g(H,U,f)=  0.106E+03 0.526E+01 0.000E+00 ort(H,U,f) = 0.000E+00 0.000E+00 0.000E+00
SDA:   6    -0.448821885509E+03   -0.72323E+03   -0.16232E+03  3584   0.111E+03 0.000E+00
 gam= 0.000 trial= 0.400  step= 0.338 mean= 0.400
 gam= 0.353 g(H,U,f)=  0.375E+02 0.170E+01 0.364-117 ort(H,U,f) =-0.201E+01 0.265E+01 0.548-117
CGA:   7    -0.467538749332E+03   -0.18717E+02   -0.18782E+02  3584   0.392E+02 0.639E+00
 gam= 0.353 trial= 0.397  step= 0.391 mean= 0.397
 gam= 0.211 g(H,U,f)=  0.789E+01 0.405E+00 0.202E-50 ort(H,U,f) =-0.982E+00 0.994E+00 0.427E-50
CGA:   8    -0.475261130202E+03   -0.77224E+01   -0.77227E+01  3584   0.829E+01 0.124E-01
 gam= 0.211 trial= 0.397  step= 0.670 mean= 0.397
 gam= 0.336 g(H,U,f)=  0.264E+01 0.150E+00 0.000E+00 ort(H,U,f) =-0.347E+00 0.338E+00 0.000E+00
CGA:   9    -0.478041703341E+03   -0.27806E+01   -0.27803E+01  3584   0.279E+01-0.968E-02
 gam= 0.336 trial= 0.410  step= 0.634 mean= 0.410
 gam= 0.371 g(H,U,f)=  0.989E+00 0.448E-01 0.000E+00 ort(H,U,f) =-0.140E+00 0.131E+00 0.000E+00
CGA:  10    -0.478923464090E+03   -0.88176E+00   -0.88269E+00  3584   0.103E+01-0.864E-02
 gam= 0.371 trial= 0.422  step= 0.437 mean= 0.422
 gam= 0.398 g(H,U,f)=  0.392E+00 0.188E-01 0.000E+00 ort(H,U,f) =-0.546E-01 0.531E-01 0.000E+00
CGA:  11    -0.479148793047E+03   -0.22533E+00   -0.22535E+00  3584   0.411E+00-0.155E-02
 gam= 0.398 trial= 0.422  step= 0.554 mean= 0.422
 gam= 0.250 g(H,U,f)=  0.987E-01 0.413E-02 0.000E+00 ort(H,U,f) =-0.181E-01 0.164E-01 0.000E+00
CGA:  12    -0.479262428177E+03   -0.11364E+00   -0.11375E+00  3584   0.103E+00-0.169E-02
 gam= 0.250 trial= 0.429  step= 0.689 mean= 0.429
 gam= 0.305 g(H,U,f)=  0.304E-01 0.985E-03 0.000E+00 ort(H,U,f) =-0.413E-02 0.367E-02 0.000E+00
CGA:  13    -0.479297664020E+03   -0.35236E-01   -0.35299E-01  3584   0.313E-01-0.451E-03
 gam= 0.305 trial= 0.442  step= 0.650 mean= 0.442
 gam= 0.399 g(H,U,f)=  0.122E-01 0.285E-03 0.000E+00 ort(H,U,f) =-0.100E-02 0.967E-03 0.000E+00
CGA:  14    -0.479307806509E+03   -0.10142E-01   -0.10147E-01  3584   0.125E-01-0.337E-04
 gam= 0.399 trial= 0.452  step= 0.462 mean= 0.452
 gam= 0.488 g(H,U,f)=  0.602E-02 0.859E-04 0.000E+00 ort(H,U,f) =-0.481E-03 0.238E-03 0.000E+00
CGA:  15    -0.479310691126E+03   -0.28846E-02   -0.28858E-02  3584   0.610E-02-0.242E-03
 gam= 0.488 trial= 0.453  step= 0.500 mean= 0.453
 gam= 0.302 g(H,U,f)=  0.182E-02 0.303E-04 0.000E+00 ort(H,U,f) =-0.219E-04 0.663E-04 0.000E+00
CGA:  16    -0.479312189104E+03   -0.14980E-02   -0.14970E-02  3584   0.185E-02 0.445E-04
 gam= 0.302 trial= 0.455  step= 0.747 mean= 0.455
 gam= 0.383 g(H,U,f)=  0.695E-03 0.127E-04 0.505E-40 ort(H,U,f) =-0.589E-04 0.517E-05-0.114E-40
CGA:  17    -0.479312876125E+03   -0.68702E-03   -0.69493E-03  3584   0.707E-03-0.537E-04
 gam= 0.383 trial= 0.470  step= 0.671 mean= 0.470
 gam= 0.375 g(H,U,f)=  0.259E-03 0.665E-05 0.000E+00 ort(H,U,f) = 0.556E-05 0.455E-05 0.000E+00
CGA:  18    -0.479313107475E+03   -0.23135E-03   -0.23035E-03  3584   0.265E-03 0.101E-04
 gam= 0.375 trial= 0.480  step= 0.654 mean= 0.480
 gam= 0.434 g(H,U,f)=  0.111E-03 0.383E-05 0.000E+00 ort(H,U,f) =-0.117E-04 0.463E-05 0.000E+00
CGA:  19    -0.479313194841E+03   -0.87365E-04   -0.87981E-04  3584   0.115E-03-0.706E-05
 gam= 0.434 trial= 0.489  step= 0.457 mean= 0.489
 gam= 0.401 g(H,U,f)=  0.444E-04 0.171E-05 0.000E+00 ort(H,U,f) = 0.107E-04 0.331E-05 0.000E+00
CGA:  20    -0.479313220258E+03   -0.25418E-04   -0.25637E-04  3584   0.461E-04 0.141E-04
 gam= 0.401 trial= 0.487  step= 0.681 mean= 0.487
 gam= 0.642 g(H,U,f)=  0.290E-04 0.629E-06 0.000E+00 ort(H,U,f) =-0.103E-04 0.157E-05 0.000E+00
CGA:  21    -0.479313237031E+03   -0.16773E-04   -0.17624E-04  3584   0.296E-04-0.878E-05
 gam= 0.642 trial= 0.497  step= 0.466 mean= 0.497
 gam= 0.328 g(H,U,f)=  0.953E-05 0.166E-06 0.000E+00 ort(H,U,f) = 0.256E-05 0.599E-06 0.000E+00
CGA:  22    -0.479313242564E+03   -0.55328E-05   -0.55816E-05  3584   0.970E-05 0.316E-05
 gam= 0.328 trial= 0.495  step= 0.548 mean= 0.495
 gam= 0.410 g(H,U,f)=  0.392E-05 0.531E-07 0.000E+00 ort(H,U,f) = 0.275E-06 0.108E-06 0.000E+00
CGA:  23    -0.479313245514E+03   -0.29497E-05   -0.29396E-05  3584   0.398E-05 0.383E-06
 gam= 0.410 trial= 0.498  step= 0.933 mean= 0.498
 gam= 0.000 g(H,U,f)=  0.594E-05 0.241E-07 0.835-187 ort(H,U,f) =-0.311E-05-0.179E-07-0.733-187
CGA:  24    -0.479313246762E+03   -0.12484E-05   -0.19279E-05  3584   0.596E-05-0.313E-05
 gam= 0.000 trial= 0.520  step= 0.246 mean= 0.520
 gam= 0.174 g(H,U,f)=  0.101E-05 0.204E-07 0.162-159 ort(H,U,f) = 0.171E-05 0.180E-07 0.161-159
CGA:  25    -0.479313247259E+03   -0.49684E-06   -0.73286E-06  3584   0.103E-05 0.172E-05
 gam= 0.174 trial= 0.506  step= 0.436 mean= 0.506
 gam= 0.395 g(H,U,f)=  0.394E-06 0.148E-07 0.502-111 ort(H,U,f) = 0.482E-07 0.193E-07 0.733-111
CGA:  26    -0.479313247547E+03   -0.28839E-06   -0.29086E-06  3584   0.408E-06 0.675E-07
 gam= 0.395 trial= 0.502  step=-0.402 mean= 0.502
 BOPT < 0, no correction made
 gam= 0.551 g(H,U,f)=  0.219E-06 0.553E-08 0.159E-59 ort(H,U,f) =-0.243E-07 0.131E-07 0.409E-59
CGA:  27    -0.479313247903E+03   -0.35509E-06    0.87428E-07  3584   0.225E-06-0.111E-07
 gam= 0.551 trial= 0.502  step= 1.522 mean= 0.502
 gam= 0.000 g(H,U,f)=  0.918E-06 0.138E-08 0.000E+00 ort(H,U,f) =-0.311E-06-0.600E-08 0.000E+00
CGA:  28    -0.479313247907E+03   -0.44711E-08   -0.16651E-06  3584   0.919E-06-0.317E-06
 gam= 0.000 trial= 0.553  step= 0.341 mean= 0.553
 gam= 0.101 g(H,U,f)=  0.918E-07 0.748E-09 0.000E+00 ort(H,U,f) = 0.130E-06 0.989E-09 0.000E+00
CGA:  29    -0.479313248050E+03   -0.14266E-06   -0.15660E-06  3584   0.926E-07 0.131E-06
 gam= 0.101 trial= 0.543  step= 0.574 mean= 0.543
 gam= 0.340 g(H,U,f)=  0.310E-07 0.389E-09 0.000E+00 ort(H,U,f) = 0.884E-08 0.588E-09 0.000E+00
CGA:  30    -0.479313248080E+03   -0.30432E-07   -0.30336E-07  3584   0.314E-07 0.943E-08
 gam= 0.340 trial= 0.544  step= 0.321 mean= 0.544
 gam= 0.329 g(H,U,f)=  0.101E-07 0.246E-09 0.000E+00 ort(H,U,f) = 0.147E-07 0.468E-09 0.000E+00
CGA:  31    -0.479313248084E+03   -0.38417E-08   -0.55520E-08  3584   0.104E-07 0.151E-07
 gam= 0.329 trial= 0.533  step= 0.343 mean= 0.533
   1 F= -.47931325E+03 E0= -.47931325E+03  d E =0.000000E+00
Application 22296063 resources: utime ~21491313s, stime ~28733s, Rss ~383720, inblocks ~17985610, outblocks ~10954082
