       N       E                     dE             d eps       ncg     rms          ort
DAV:   1     0.345972795179E+05    0.34597E+05   -0.11419E+06  3584   0.486E+03
DAV:   2     0.859048812268E+04   -0.26007E+05   -0.25275E+05  3584   0.168E+03
DAV:   3     0.179243066114E+04   -0.67981E+04   -0.66934E+04  3584   0.498E+02
DAV:   4     0.439397802374E+03   -0.13530E+04   -0.12974E+04  3584   0.208E+02
DAV:   5     0.274404756915E+03   -0.16499E+03   -0.16232E+03  3584   0.782E+01
SDA:   6    -0.448821885509E+03   -0.72323E+03   -0.16232E+03  3584   0.111E+03 0.000E+00
CGA:   7    -0.467538749332E+03   -0.18717E+02   -0.18782E+02  3584   0.392E+02 0.639E+00
CGA:   8    -0.475261130202E+03   -0.77224E+01   -0.77227E+01  3584   0.829E+01 0.124E-01
CGA:   9    -0.478041703341E+03   -0.27806E+01   -0.27803E+01  3584   0.279E+01-0.968E-02
CGA:  10    -0.478923464090E+03   -0.88176E+00   -0.88269E+00  3584   0.103E+01-0.864E-02
CGA:  11    -0.479148793047E+03   -0.22533E+00   -0.22535E+00  3584   0.411E+00-0.155E-02
CGA:  12    -0.479262428177E+03   -0.11364E+00   -0.11375E+00  3584   0.103E+00-0.169E-02
CGA:  13    -0.479297664020E+03   -0.35236E-01   -0.35299E-01  3584   0.313E-01-0.451E-03
CGA:  14    -0.479307806509E+03   -0.10142E-01   -0.10147E-01  3584   0.125E-01-0.337E-04
CGA:  15    -0.479310691126E+03   -0.28846E-02   -0.28858E-02  3584   0.610E-02-0.242E-03
CGA:  16    -0.479312189104E+03   -0.14980E-02   -0.14970E-02  3584   0.185E-02 0.445E-04
CGA:  17    -0.479312876125E+03   -0.68702E-03   -0.69493E-03  3584   0.707E-03-0.537E-04
CGA:  18    -0.479313107475E+03   -0.23135E-03   -0.23035E-03  3584   0.265E-03 0.101E-04
CGA:  19    -0.479313194841E+03   -0.87365E-04   -0.87981E-04  3584   0.115E-03-0.706E-05
CGA:  20    -0.479313220258E+03   -0.25418E-04   -0.25637E-04  3584   0.461E-04 0.141E-04
CGA:  21    -0.479313237031E+03   -0.16773E-04   -0.17624E-04  3584   0.296E-04-0.878E-05
CGA:  22    -0.479313242564E+03   -0.55328E-05   -0.55816E-05  3584   0.970E-05 0.316E-05
CGA:  23    -0.479313245514E+03   -0.29497E-05   -0.29396E-05  3584   0.398E-05 0.383E-06
CGA:  24    -0.479313246762E+03   -0.12484E-05   -0.19279E-05  3584   0.596E-05-0.313E-05
CGA:  25    -0.479313247259E+03   -0.49684E-06   -0.73286E-06  3584   0.103E-05 0.172E-05
CGA:  26    -0.479313247547E+03   -0.28839E-06   -0.29086E-06  3584   0.408E-06 0.675E-07
CGA:  27    -0.479313247903E+03   -0.35509E-06    0.87428E-07  3584   0.225E-06-0.111E-07
CGA:  28    -0.479313247907E+03   -0.44711E-08   -0.16651E-06  3584   0.919E-06-0.317E-06
CGA:  29    -0.479313248050E+03   -0.14266E-06   -0.15660E-06  3584   0.926E-07 0.131E-06
CGA:  30    -0.479313248080E+03   -0.30432E-07   -0.30336E-07  3584   0.314E-07 0.943E-08
CGA:  31    -0.479313248084E+03   -0.38417E-08   -0.55520E-08  3584   0.104E-07 0.151E-07
   1 F= -.47931325E+03 E0= -.47931325E+03  d E =0.000000E+00
