 vasp.5.4.1 24Jun15 (build Nov 25 2015 16:01:35) complex                        
  
 executed on         CrayXC-Intel date 2016.06.26  15:06:15
 running on 1344 total cores
 distrk:  each k-point on  192 cores,    7 groups
 distr:  one band on NCORES_PER_BAND=  12 cores,   16 groups


--------------------------------------------------------------------------------------------------------


 INCAR:
 POTCAR:    PAW_PBE C 08Apr2002                   
 POTCAR:    PAW_PBE N 08Apr2002                   
 POTCAR:    PAW_PBE H 15Jun2001                   
 POTCAR:    PAW_PBE Pb_d 06Sep2000                
 POTCAR:    PAW_PBE I 08Apr2002                   

 ----------------------------------------------------------------------------- 
|                                                                             |
|           W    W    AA    RRRRR   N    N  II  N    N   GGGG   !!!           |
|           W    W   A  A   R    R  NN   N  II  NN   N  G    G  !!!           |
|           W    W  A    A  R    R  N N  N  II  N N  N  G       !!!           |
|           W WW W  AAAAAA  RRRRR   N  N N  II  N  N N  G  GGG   !            |
|           WW  WW  A    A  R   R   N   NN  II  N   NN  G    G                |
|           W    W  A    A  R    R  N    N  II  N    N   GGGG   !!!           |
|                                                                             |
|      For optimal performance we recommend to set                            |
|        NCORE= 4 - approx SQRT( number of cores)                             |
|      NCORE specifies how many cores store one orbital (NPAR=cpu/NCORE).     |
|      This setting can  greatly improve the performance of VASP for DFT.     |
|      The default, NPAR=number of cores might be grossly inefficient         |
|      on modern multi-core architectures or massively parallel machines.     |
|      Do your own testing !!!!                                               |
|      Unfortunately you need to use the default for GW and RPA calculations. |
|      (for HF NCORE is supported but not extensively tested yet)             |
|                                                                             |
 ----------------------------------------------------------------------------- 


 ----------------------------------------------------------------------------- 
|                                                                             |
|           W    W    AA    RRRRR   N    N  II  N    N   GGGG   !!!           |
|           W    W   A  A   R    R  NN   N  II  NN   N  G    G  !!!           |
|           W    W  A    A  R    R  N N  N  II  N N  N  G       !!!           |
|           W WW W  AAAAAA  RRRRR   N  N N  II  N  N N  G  GGG   !            |
|           WW  WW  A    A  R   R   N   NN  II  N   NN  G    G                |
|           W    W  A    A  R    R  N    N  II  N    N   GGGG   !!!           |
|                                                                             |
|      You have enabled k-point parallelism (KPAR>1).                         |
|      This developmental code was originally  written by Paul Kent at ORNL,  |
|      and carefully double checked in Vienna.                                |
|      GW as well as linear response parallelism added by Martijn Marsman     |
|      and Georg Kresse.                                                      |
|      Carefully verify results versus KPAR=1.                                |
|      Report problems to Paul Kent and Vienna.                               |
|                                                                             |
 ----------------------------------------------------------------------------- 

 POTCAR:    PAW_PBE C 08Apr2002                   
   VRHFIN =C: s2p2                                                              
   LEXCH  = PE                                                                  
   EATOM  =   147.1560 eV,   10.8157 Ry                                         
                                                                                
   TITEL  = PAW_PBE C 08Apr2002                                                 
   LULTRA =        F    use ultrasoft PP ?                                      
   IUNSCR =        1    unscreen: 0-lin 1-nonlin 2-no                           
   RPACOR =    1.200    partial core radius                                     
   POMASS =   12.011; ZVAL   =    4.000    mass and valenz                      
   RCORE  =    1.500    outmost cutoff radius                                   
   RWIGS  =    1.630; RWIGS  =    0.863    wigner-seitz radius (au A)           
   ENMAX  =  400.000; ENMIN  =  300.000 eV                                      
   ICORE  =        2    local potential                                         
   LCOR   =        T    correct aug charges                                     
   LPAW   =        T    paw PP                                                  
   EAUG   =  644.873                                                            
   DEXC   =    0.000                                                            
   RMAX   =    1.529    core radius for proj-oper                               
   RAUG   =    1.300    factor for augmentation sphere                          
   RDEP   =    1.501    radius for radial grids                                 
   RDEPT  =    1.300    core radius for aug-charge                              
                                                                                
   Atomic configuration                                                         
    4 entries                                                                   
     n  l   j            E        occ.                                          
     1  0  0.50      -273.3789   2.0000                                         
     2  0  0.50       -13.7508   2.0000                                         
     2  1  0.50        -5.2854   2.0000                                         
     3  2  1.50        -5.4423   0.0000                                         
   Description                                                                  
     l       E           TYP  RCUT    TYP  RCUT                                 
     0    -13.7508458     23  1.200                                             
     0     -8.2022199     23  1.200                                             
     1     -5.2854383     23  1.500                                             
     1     34.0145650     23  1.500                                             
     2     -5.4423304      7  1.500                                             
  local pseudopotential read in
  partial core-charges read in
  partial kinetic energy density read in
  atomic valenz-charges read in
  non local Contribution for L=           0  read in
    real space projection operators read in
  non local Contribution for L=           0  read in
    real space projection operators read in
  non local Contribution for L=           1  read in
    real space projection operators read in
  non local Contribution for L=           1  read in
    real space projection operators read in
    PAW grid and wavefunctions read in
 
   number of l-projection  operators is LMAX  =           4
   number of lm-projection operators is LMMAX =           8
 
 POTCAR:    PAW_PBE N 08Apr2002                   
   VRHFIN =N: s2p3                                                              
   LEXCH  = PE                                                                  
   EATOM  =   264.5486 eV,   19.4438 Ry                                         
                                                                                
   TITEL  = PAW_PBE N 08Apr2002                                                 
   LULTRA =        F    use ultrasoft PP ?                                      
   IUNSCR =        1    unscreen: 0-lin 1-nonlin 2-no                           
   RPACOR =    1.200    partial core radius                                     
   POMASS =   14.001; ZVAL   =    5.000    mass and valenz                      
   RCORE  =    1.500    outmost cutoff radius                                   
   RWIGS  =    1.400; RWIGS  =    0.741    wigner-seitz radius (au A)           
   ENMAX  =  400.000; ENMIN  =  300.000 eV                                      
   ICORE  =        2    local potential                                         
   LCOR   =        T    correct aug charges                                     
   LPAW   =        T    paw PP                                                  
   EAUG   =  627.112                                                            
   DEXC   =    0.000                                                            
   RMAX   =    1.529    core radius for proj-oper                               
   RAUG   =    1.300    factor for augmentation sphere                          
   RDEP   =    1.514    radius for radial grids                                 
   RDEPT  =    1.338    core radius for aug-charge                              
                                                                                
   Atomic configuration                                                         
    4 entries                                                                   
     n  l   j            E        occ.                                          
     1  0  0.50      -384.7179   2.0000                                         
     2  0  0.50       -18.5828   2.0000                                         
     2  1  0.50        -7.0898   3.0000                                         
     3  2  1.50        -6.8029   0.0000                                         
   Description                                                                  
     l       E           TYP  RCUT    TYP  RCUT                                 
     0    -18.5828119     23  1.200                                             
     0    -13.5018863     23  1.200                                             
     1     -7.0897853     23  1.500                                             
     1      9.5240782     23  1.500                                             
     2     -6.8029130      7  1.500                                             
  local pseudopotential read in
  partial core-charges read in
  partial kinetic energy density read in
  atomic valenz-charges read in
  non local Contribution for L=           0  read in
    real space projection operators read in
  non local Contribution for L=           0  read in
    real space projection operators read in
  non local Contribution for L=           1  read in
    real space projection operators read in
  non local Contribution for L=           1  read in
    real space projection operators read in
    PAW grid and wavefunctions read in
 
   number of l-projection  operators is LMAX  =           4
   number of lm-projection operators is LMMAX =           8
 
 POTCAR:    PAW_PBE H 15Jun2001                   
   VRHFIN =H: ultrasoft test                                                    
   LEXCH  = PE                                                                  
   EATOM  =    12.4884 eV,    0.9179 Ry                                         
                                                                                
   TITEL  = PAW_PBE H 15Jun2001                                                 
   LULTRA =        F    use ultrasoft PP ?                                      
   IUNSCR =        0    unscreen: 0-lin 1-nonlin 2-no                           
   RPACOR =    0.000    partial core radius                                     
   POMASS =    1.000; ZVAL   =    1.000    mass and valenz                      
   RCORE  =    1.100    outmost cutoff radius                                   
   RWIGS  =    0.700; RWIGS  =    0.370    wigner-seitz radius (au A)           
   ENMAX  =  250.000; ENMIN  =  200.000 eV                                      
   RCLOC  =    0.701    cutoff for local pot                                    
   LCOR   =        T    correct aug charges                                     
   LPAW   =        T    paw PP                                                  
   EAUG   =  400.000                                                            
   RMAX   =    1.123    core radius for proj-oper                               
   RAUG   =    1.200    factor for augmentation sphere                          
   RDEP   =    1.112    radius for radial grids                                 
   RDEPT  =    0.926    core radius for aug-charge                              
                                                                                
   Atomic configuration                                                         
    2 entries                                                                   
     n  l   j            E        occ.                                          
     1  0  0.50        -6.4927   1.0000                                         
     2  1  0.50        -3.4015   0.0000                                         
   Description                                                                  
     l       E           TYP  RCUT    TYP  RCUT                                 
     0     -6.4927494     23  1.100                                             
     0      6.8029130     23  1.100                                             
     1     -4.0817478     23  1.100                                             
  local pseudopotential read in
  atomic valenz-charges read in
  non local Contribution for L=           0  read in
    real space projection operators read in
  non local Contribution for L=           0  read in
    real space projection operators read in
  non local Contribution for L=           1  read in
    real space projection operators read in
    PAW grid and wavefunctions read in
 
   number of l-projection  operators is LMAX  =           3
   number of lm-projection operators is LMMAX =           5
 
 POTCAR:    PAW_PBE Pb_d 06Sep2000                
   VRHFIN =Pb:                                                                  
   LEXCH  = PE                                                                  
   EATOM  =  1661.6185 eV,  122.1255 Ry                                         
                                                                                
   TITEL  = PAW_PBE Pb_d 06Sep2000                                              
   LULTRA =        F    use ultrasoft PP ?                                      
   IUNSCR =        1    unscreen: 0-lin 1-nonlin 2-no                           
   RPACOR =    2.200    partial core radius                                     
   POMASS =  207.200; ZVAL   =   14.000    mass and valenz                      
   RCORE  =    2.500    outmost cutoff radius                                   
   RWIGS  =    3.260; RWIGS  =    1.725    wigner-seitz radius (au A)           
   ENMAX  =  237.835; ENMIN  =  178.376 eV                                      
   ICORE  =        3    local potential                                         
   LCOR   =        T    correct aug charges                                     
   LPAW   =        T    paw PP                                                  
   EAUG   =  391.914                                                            
   DEXC   =    0.000                                                            
   RMAX   =    2.565    core radius for proj-oper                               
   RAUG   =    1.300    factor for augmentation sphere                          
   RDEP   =    2.643    radius for radial grids                                 
   RDEPT  =    2.092    core radius for aug-charge                              
                                                                                
   Atomic configuration                                                         
   16 entries                                                                   
     n  l   j            E        occ.                                          
     1  0  0.50    -88091.8466   2.0000                                         
     2  0  0.50    -15753.4197   2.0000                                         
     2  1  1.50    -13508.1797   6.0000                                         
     3  0  0.50     -3781.7194   2.0000                                         
     3  1  1.50     -3138.2529   6.0000                                         
     3  2  2.50     -2483.2977  10.0000                                         
     4  0  0.50      -856.2895   2.0000                                         
     4  1  1.50      -645.4942   6.0000                                         
     4  2  2.50      -401.8768  10.0000                                         
     4  3  3.50      -132.9059  14.0000                                         
     5  0  0.50      -144.0950   2.0000                                         
     5  1  1.50       -85.7879   6.0000                                         
     5  2  2.50       -21.1769  10.0000                                         
     6  0  0.50       -12.0372   2.0000                                         
     6  1  1.50        -3.4971   2.0000                                         
     5  3  2.50        -2.7212   0.0000                                         
   Description                                                                  
     l       E           TYP  RCUT    TYP  RCUT                                 
     2    -21.1768523     23  2.500                                             
     2      1.3605826     23  2.500                                             
     0    -12.0371562     23  2.500                                             
     0     13.6058260     23  2.500                                             
     1     -3.4971339     23  2.500                                             
     1     13.6058260     23  2.500                                             
     3     -1.3605826      7  2.500                                             
  local pseudopotential read in
  partial core-charges read in
  partial kinetic energy density read in
  atomic valenz-charges read in
  non local Contribution for L=           2  read in
    real space projection operators read in
  non local Contribution for L=           2  read in
    real space projection operators read in
  non local Contribution for L=           0  read in
    real space projection operators read in
  non local Contribution for L=           0  read in
    real space projection operators read in
  non local Contribution for L=           1  read in
    real space projection operators read in
  non local Contribution for L=           1  read in
    real space projection operators read in
    PAW grid and wavefunctions read in
 
   number of l-projection  operators is LMAX  =           6
   number of lm-projection operators is LMMAX =          18
 
 POTCAR:    PAW_PBE I 08Apr2002                   
   VRHFIN =I : s2p5                                                             
   LEXCH  = PE                                                                  
   EATOM  =   315.8678 eV,   23.2156 Ry                                         
                                                                                
   TITEL  = PAW_PBE I 08Apr2002                                                 
   LULTRA =        F    use ultrasoft PP ?                                      
   IUNSCR =        1    unscreen: 0-lin 1-nonlin 2-no                           
   RPACOR =    2.200    partial core radius                                     
   POMASS =  126.904; ZVAL   =    7.000    mass and valenz                      
   RCORE  =    2.300    outmost cutoff radius                                   
   RWIGS  =    2.810; RWIGS  =    1.487    wigner-seitz radius (au A)           
   ENMAX  =  175.647; ENMIN  =  131.735 eV                                      
   ICORE  =        3    local potential                                         
   LCOR   =        T    correct aug charges                                     
   LPAW   =        T    paw PP                                                  
   EAUG   =  370.139                                                            
   DEXC   =    0.000                                                            
   RMAX   =    2.359    core radius for proj-oper                               
   RAUG   =    1.300    factor for augmentation sphere                          
   RDEP   =    2.392    radius for radial grids                                 
   RDEPT  =    2.170    core radius for aug-charge                              
                                                                                
   Atomic configuration                                                         
   13 entries                                                                   
     n  l   j            E        occ.                                          
     1  0  0.50    -32976.3739   2.0000                                         
     2  0  0.50     -5094.5933   2.0000                                         
     2  1  1.50     -4572.0131   6.0000                                         
     3  0  0.50     -1028.2813   2.0000                                         
     3  1  1.50      -859.0250   6.0000                                         
     3  2  2.50      -605.7620  10.0000                                         
     4  0  0.50      -180.5540   2.0000                                         
     4  1  1.50      -127.5306   6.0000                                         
     4  2  2.50       -50.2720  10.0000                                         
     5  0  0.50       -17.4058   2.0000                                         
     5  1  0.50        -7.0851   5.0000                                         
     5  2  1.50        -7.0750   0.0000                                         
     4  3  2.50        -7.0750   0.0000                                         
   Description                                                                  
     l       E           TYP  RCUT    TYP  RCUT                                 
     0    -17.4058016     23  2.300                                             
     0    -18.7663842     23  2.300                                             
     1     -7.0850686     23  2.300                                             
     1     -4.2150896     23  2.300                                             
     2     -7.0750295     23  2.300                                             
     3     -1.3605826     23  2.300                                             
  local pseudopotential read in
  partial core-charges read in
  partial kinetic energy density read in
  atomic valenz-charges read in
  non local Contribution for L=           0  read in
    real space projection operators read in
  non local Contribution for L=           0  read in
    real space projection operators read in
  non local Contribution for L=           1  read in
    real space projection operators read in
  non local Contribution for L=           1  read in
    real space projection operators read in
  non local Contribution for L=           2  read in
    real space projection operators read in
    PAW grid and wavefunctions read in
 
   number of l-projection  operators is LMAX  =           5
   number of lm-projection operators is LMMAX =          13
 

 ----------------------------------------------------------------------------- 
|                                                                             |
|  ADVICE TO THIS USER RUNNING 'VASP/VAMP'   (HEAR YOUR MASTER'S VOICE ...):  |
|                                                                             |
|      You have a (more or less) 'large supercell' and for larger cells       |
|      it might be more efficient to use real space projection opertators     |
|      So try LREAL= Auto  in the INCAR   file.                               |
|      Mind: At the moment your POTCAR file does not contain real space       |
|       projectors, and has to be modified,  BUT if you                       |
|      want to do an extremely  accurate calculation you might also keep the  |
|      reciprocal projection scheme          (i.e. LREAL=.FALSE.)             |
|                                                                             |
 ----------------------------------------------------------------------------- 

  PAW_PBE C 08Apr2002                   :
 energy of atom  1       EATOM= -147.1560
 kinetic energy error for atom=    0.0032 (will be added to EATOM!!)
  PAW_PBE N 08Apr2002                   :
 energy of atom  2       EATOM= -264.5486
 kinetic energy error for atom=    0.0061 (will be added to EATOM!!)
  PAW_PBE H 15Jun2001                   :
 energy of atom  3       EATOM=  -12.4884
 kinetic energy error for atom=    0.0002 (will be added to EATOM!!)
  PAW_PBE Pb_d 06Sep2000                :
 energy of atom  4       EATOM=-1661.6185
 kinetic energy error for atom=    0.0012 (will be added to EATOM!!)
  PAW_PBE I 08Apr2002                   :
 energy of atom  5       EATOM= -315.8678
 kinetic energy error for atom=    0.0003 (will be added to EATOM!!)
 
 
 POSCAR: C N H Pb I                              
  positions in direct lattice
  No initial velocities read in
 exchange correlation table for  LEXCH =        8
   RHO(1)=    0.500       N(1)  =     2000
   RHO(2)=  100.500       N(2)  =     4000
 


--------------------------------------------------------------------------------------------------------


 ion  position               nearest neighbor table
   1  0.198  0.250  0.229-  25 1.10  33 1.10  17 1.10   9 1.49
   2  0.696  0.250  0.229-  26 1.10  34 1.10  18 1.10  10 1.49
   3  0.196  0.750  0.229-  27 1.10  35 1.10  19 1.10  11 1.49
   4  0.698  0.750  0.229-  28 1.10  36 1.10  20 1.10  12 1.49
   5  0.196  0.250  0.729-  29 1.10  37 1.10  21 1.10  13 1.49
   6  0.698  0.250  0.729-  30 1.10  38 1.10  22 1.10  14 1.49
   7  0.198  0.750  0.729-  31 1.10  39 1.10  23 1.10  15 1.49
   8  0.696  0.750  0.729-  32 1.10  40 1.10  24 1.10  16 1.49
   9  0.309  0.250  0.264-  41 1.05  49 1.05  57 1.05   1 1.49
  10  0.800  0.250  0.284-  58 1.04  42 1.05  50 1.05   2 1.49
  11  0.300  0.750  0.284-  59 1.04  43 1.05  51 1.05   3 1.49
  12  0.809  0.750  0.264-  44 1.05  52 1.05  60 1.05   4 1.49
  13  0.300  0.250  0.784-  61 1.04  45 1.05  53 1.05   5 1.49
  14  0.809  0.250  0.764-  46 1.05  54 1.05  62 1.05   6 1.49
  15  0.309  0.750  0.764-  47 1.05  55 1.05  63 1.05   7 1.49
  16  0.800  0.750  0.784-  64 1.04  48 1.05  56 1.05   8 1.49
  17  0.197  0.250  0.142-   1 1.10
  18  0.713  0.250  0.144-   2 1.10
  19  0.213  0.750  0.144-   3 1.10
  20  0.697  0.750  0.142-   4 1.10
  21  0.213  0.250  0.644-   5 1.10
  22  0.697  0.250  0.642-   6 1.10
  23  0.197  0.750  0.642-   7 1.10
  24  0.713  0.750  0.644-   8 1.10
  25  0.157  0.322  0.259-   1 1.10
  26  0.652  0.322  0.252-   2 1.10
  27  0.152  0.822  0.252-   3 1.10
  28  0.657  0.822  0.259-   4 1.10
  29  0.152  0.322  0.752-   5 1.10
  30  0.657  0.322  0.759-   6 1.10
  31  0.157  0.822  0.759-   7 1.10
  32  0.652  0.822  0.752-   8 1.10
  33  0.157  0.177  0.259-   1 1.10
  34  0.652  0.177  0.252-   2 1.10
  35  0.152  0.677  0.252-   3 1.10
  36  0.657  0.677  0.259-   4 1.10
  37  0.152  0.177  0.752-   5 1.10
  38  0.657  0.177  0.759-   6 1.10
  39  0.157  0.677  0.759-   7 1.10
  40  0.652  0.677  0.752-   8 1.10
  41  0.351  0.318  0.237-   9 1.05
  42  0.845  0.318  0.265-  10 1.05
  43  0.345  0.818  0.265-  11 1.05
  44  0.851  0.818  0.237-  12 1.05
  45  0.345  0.318  0.765-  13 1.05
  46  0.851  0.318  0.737-  14 1.05
  47  0.351  0.818  0.737-  15 1.05
  48  0.845  0.818  0.765-  16 1.05
  49  0.351  0.182  0.237-   9 1.05
  50  0.845  0.182  0.265-  10 1.05
  51  0.345  0.682  0.265-  11 1.05
  52  0.851  0.682  0.237-  12 1.05
  53  0.345  0.182  0.765-  13 1.05
  54  0.851  0.182  0.737-  14 1.05
  55  0.351  0.682  0.737-  15 1.05
  56  0.845  0.682  0.765-  16 1.05
  57  0.317  0.250  0.346-   9 1.05
  58  0.790  0.250  0.365-  10 1.04
  59  0.290  0.750  0.365-  11 1.04
  60  0.817  0.750  0.346-  12 1.05
  61  0.290  0.250  0.865-  13 1.04
  62  0.817  0.250  0.846-  14 1.05
  63  0.317  0.750  0.846-  15 1.05
  64  0.790  0.750  0.865-  16 1.04
  65  0.472  0.499  0.489-  90 3.09  87 3.14  85 3.16  77 3.17  73 3.22  89 3.26
  66  0.972  0.501  0.489-  89 3.09  86 3.14  88 3.16  78 3.17  74 3.22  90 3.26
  67  0.472  0.001  0.489-  92 3.09  87 3.14  85 3.16  79 3.17  75 3.22  91 3.26
  68  0.972  0.999  0.489-  91 3.09  86 3.14  88 3.16  80 3.17  76 3.22  92 3.26
  69  0.472  0.501  0.989-  94 3.09  81 3.14  83 3.16  73 3.17  77 3.22  93 3.26
  70  0.972  0.499  0.989-  93 3.09  84 3.14  82 3.16  74 3.17  78 3.22  94 3.26
  71  0.472  0.999  0.989-  96 3.09  81 3.14  83 3.16  75 3.17  79 3.22  95 3.26
  72  0.972  0.001  0.989-  95 3.09  84 3.14  82 3.16  76 3.17  80 3.22  96 3.26
  73  0.455  0.503  0.238-  69 3.17  65 3.22
  74  0.955  0.497  0.238-  70 3.17  66 3.22
  75  0.455  0.997  0.238-  71 3.17  67 3.22
  76  0.955  0.003  0.238-  72 3.17  68 3.22
  77  0.455  0.497  0.738-  65 3.17  69 3.22
  78  0.955  0.503  0.738-  66 3.17  70 3.22
  79  0.455  0.003  0.738-  67 3.17  71 3.22
  80  0.955  0.997  0.738-  68 3.17  72 3.22
  81  0.470  0.250  0.011-  71 3.14  69 3.14
  82  0.929  0.250  0.013-  72 3.16  70 3.16
  83  0.429  0.750  0.013-  69 3.16  71 3.16
  84  0.970  0.750  0.011-  70 3.14  72 3.14
  85  0.429  0.250  0.513-  67 3.16  65 3.16
  86  0.970  0.250  0.511-  68 3.14  66 3.14
  87  0.470  0.750  0.511-  65 3.14  67 3.14
  88  0.929  0.750  0.513-  66 3.16  68 3.16
  89  0.216  0.523  0.461-  66 3.09  65 3.26
  90  0.716  0.477  0.461-  65 3.09  66 3.26
  91  0.216  0.977  0.461-  68 3.09  67 3.26
  92  0.716  0.023  0.461-  67 3.09  68 3.26
  93  0.216  0.477  0.961-  70 3.09  69 3.26
  94  0.716  0.523  0.961-  69 3.09  70 3.26
  95  0.216  0.023  0.961-  72 3.09  71 3.26
  96  0.716  0.977  0.961-  71 3.09  72 3.26
 
  LATTYP: Found a triclinic cell.
 ALAT       =    17.8238589327
 B/A-ratio  =     0.6989248630
 C/A-ratio  =     1.0156975818
 COS(alpha) =     0.0001355172
 COS(beta)  =     0.5146378593
 COS(gamma) =     0.6988877578
  
  Lattice vectors:
  
 A1 = (  -0.1406063366, -12.4576271275, -12.7466742118)
 A2 = (  -0.0011956322, -12.4575380825,   0.0007464135)
 A3 = ( -12.7162481321,  -0.0020049566, -12.8856194186)


Analysis of symmetry for initial positions (statically):
=====================================================================
 Subroutine PRICEL returns following result:
 
  LATTYP: Found a triclinic cell.
 ALAT       =     8.8524544993
 B/A-ratio  =     1.4072411401
 C/A-ratio  =     1.0225215175
 COS(alpha) =     0.0001355172
 COS(beta)  =     0.5046167836
 COS(gamma) =     0.7037964938
  
  Lattice vectors:
  
 A1 = (   6.2890165300,   6.2297269971,   0.0687261899)
 A2 = (   0.0011956322,  12.4575380825,  -0.0007464135)
 A3 = (   6.3581240661,   0.0010024783,   6.4428097093)
 
   4 primitive cells build up your supercell.
 

 Routine SETGRP: Setting up the symmetry group for a 
 triclinic supercell.


 Subroutine GETGRP returns: Found  1 space group operations
 (whereof  1 operations were pure point group operations)
 out of a pool of  2 trial point group operations.


The static configuration has the point symmetry C_1 .


Analysis of symmetry for dynamics (positions and initial velocities):
=====================================================================
 Subroutine PRICEL returns following result:
 
  LATTYP: Found a triclinic cell.
 ALAT       =     8.8524544993
 B/A-ratio  =     1.4072411401
 C/A-ratio  =     1.0225215175
 COS(alpha) =     0.0001355172
 COS(beta)  =     0.5046167836
 COS(gamma) =     0.7037964938
  
  Lattice vectors:
  
 A1 = (   6.2890165300,   6.2297269971,   0.0687261899)
 A2 = (   0.0011956322,  12.4575380825,  -0.0007464135)
 A3 = (   6.3581240661,   0.0010024783,   6.4428097093)
 
   4 primitive cells build up your supercell.
 

 Routine SETGRP: Setting up the symmetry group for a 
 triclinic supercell.


 Subroutine GETGRP returns: Found  1 space group operations
 (whereof  1 operations were pure point group operations)
 out of a pool of  2 trial point group operations.


The dynamic configuration has the point symmetry C_1 .


 Subroutine INISYM returns: Found  1 space group operations
 (whereof  1 operations are pure point group operations),
 and found     4 'primitive' translations

 
 
 KPOINTS: Automatic 3x3x3                         

Automatic generation of k-mesh.
Space group operators:
 irot       det(A)        alpha          n_x          n_y          n_z        tau_x        tau_y        tau_z
    1     1.000000     0.000000     1.000000     0.000000     0.000000     0.000000     0.000000     0.000000
 
 Subroutine IBZKPT returns following result:
 ===========================================
 
 Found     14 irreducible k-points:
 
 Following reciprocal coordinates:
            Coordinates               Weight
  0.000000  0.000000  0.000000      1.000000
  0.333333 -0.000000 -0.000000      2.000000
  0.000000  0.333333 -0.000000      2.000000
  0.333333  0.333333  0.000000      2.000000
 -0.333333  0.333333  0.000000      2.000000
  0.000000  0.000000  0.333333      2.000000
  0.333333  0.000000  0.333333      2.000000
 -0.333333  0.000000  0.333333      2.000000
  0.000000  0.333333  0.333333      2.000000
  0.333333  0.333333  0.333333      2.000000
 -0.333333  0.333333  0.333333      2.000000
  0.000000 -0.333333  0.333333      2.000000
  0.333333 -0.333333  0.333333      2.000000
 -0.333333 -0.333333  0.333333      2.000000
 
 Following cartesian coordinates:
            Coordinates               Weight
  0.000000  0.000000  0.000000      1.000000
  0.026507 -0.000003 -0.000290      2.000000
 -0.000004  0.026758 -0.000000      2.000000
  0.026503  0.026755 -0.000290      2.000000
 -0.026511  0.026760  0.000290      2.000000
 -0.000287  0.000002  0.026152      2.000000
  0.026220 -0.000001  0.025862      2.000000
 -0.026794  0.000004  0.026442      2.000000
 -0.000291  0.026759  0.026152      2.000000
  0.026215  0.026757  0.025862      2.000000
 -0.026798  0.026762  0.026442      2.000000
 -0.000283 -0.026756  0.026152      2.000000
  0.026224 -0.026759  0.025862      2.000000
 -0.026790 -0.026753  0.026442      2.000000
 
 
 Subroutine IBZKPT_HF returns following result:
 ==============================================
 
 Found     27 k-points in 1st BZ
 the following     27 k-points will be used (e.g. in the exchange kernel)
 Following reciprocal coordinates:   # in IRBZ
  0.000000  0.000000  0.000000    0.03703704   1 t-inv F
  0.333333 -0.000000 -0.000000    0.03703704   2 t-inv F
  0.000000  0.333333 -0.000000    0.03703704   3 t-inv F
  0.333333  0.333333  0.000000    0.03703704   4 t-inv F
 -0.333333  0.333333  0.000000    0.03703704   5 t-inv F
  0.000000  0.000000  0.333333    0.03703704   6 t-inv F
  0.333333  0.000000  0.333333    0.03703704   7 t-inv F
 -0.333333  0.000000  0.333333    0.03703704   8 t-inv F
  0.000000  0.333333  0.333333    0.03703704   9 t-inv F
  0.333333  0.333333  0.333333    0.03703704  10 t-inv F
 -0.333333  0.333333  0.333333    0.03703704  11 t-inv F
  0.000000 -0.333333  0.333333    0.03703704  12 t-inv F
  0.333333 -0.333333  0.333333    0.03703704  13 t-inv F
 -0.333333 -0.333333  0.333333    0.03703704  14 t-inv F
 -0.333333  0.000000  0.000000    0.03703704   2 t-inv T
 -0.000000 -0.333333  0.000000    0.03703704   3 t-inv T
 -0.333333 -0.333333 -0.000000    0.03703704   4 t-inv T
  0.333333 -0.333333 -0.000000    0.03703704   5 t-inv T
 -0.000000  0.000000 -0.333333    0.03703704   6 t-inv T
 -0.333333 -0.000000 -0.333333    0.03703704   7 t-inv T
  0.333333 -0.000000 -0.333333    0.03703704   8 t-inv T
 -0.000000 -0.333333 -0.333333    0.03703704   9 t-inv T
 -0.333333 -0.333333 -0.333333    0.03703704  10 t-inv T
  0.333333 -0.333333 -0.333333    0.03703704  11 t-inv T
 -0.000000  0.333333 -0.333333    0.03703704  12 t-inv T
 -0.333333  0.333333 -0.333333    0.03703704  13 t-inv T
  0.333333  0.333333 -0.333333    0.03703704  14 t-inv T


--------------------------------------------------------------------------------------------------------




 Dimension of arrays:
   k-points           NKPTS =     14   k-points in BZ     NKDIM =     27   number of bands    NBANDS=    256
   number of dos      NEDOS =    301   number of ions     NIONS =     96
   non local maximal  LDIM  =      6   non local SUM 2l+1 LMDIM =     18
   total plane-waves  NPLWV = ******
   max r-space proj   IRMAX =      1   max aug-charges    IRDMAX= 314103
   dimension x,y,z NGX =   112 NGY =  108 NGZ =  112
   dimension x,y,z NGXF=   224 NGYF=  216 NGZF=  224
   support grid    NGXF=   448 NGYF=  432 NGZF=  448
   ions per type =               8   8  48   8  24
 NGX,Y,Z   is equivalent  to a cutoff of  14.80, 14.41, 14.61 a.u.
 NGXF,Y,Z  is equivalent  to a cutoff of  29.61, 28.83, 29.21 a.u.


 I would recommend the setting:
   dimension x,y,z NGX =   109 NGY =  107 NGZ =  110
 SYSTEM =  MAPbI3-Cubic                            
 POSCAR =  C N H Pb I                              

 Startparameter for this run:
   NWRITE =      2    write-flag & timer
   PREC   = accura    normal or accurate (medium, high low for compatibility)
   ISTART =      0    job   : 0-new  1-cont  2-samecut
   ICHARG =      2    charge: 1-file 2-atom 10-const
   ISPIN  =      1    spin polarized calculation?
   LNONCOLLINEAR =      F non collinear calculations
   LSORBIT =      F    spin-orbit coupling
   INIWAV =      1    electr: 0-lowe 1-rand  2-diag
   LASPH  =      F    aspherical Exc in radial PAW
   METAGGA=      F    non-selfconsistent MetaGGA calc.

 Electronic Relaxation 1
   ENCUT  =  700.0 eV  51.45 Ry    7.17 a.u.  27.13 26.87 27.50*2*pi/ulx,y,z
   ENINI  =  700.0     initial cutoff
   ENAUG  =  644.9 eV  augmentation charge cutoff
   NELM   =     60;   NELMIN=  2; NELMDL= -5     # of ELM steps 
   EDIFF  = 0.1E-07   stopping-criterion for ELM
   LREAL  =      F    real-space projection
   NLSPLINE    = F    spline interpolate recip. space projectors
   LCOMPAT=      F    compatible to vasp.4.4
   GGA_COMPAT  = T    GGA compatible to vasp.4.4-vasp.4.6
   LMAXPAW     = -100 max onsite density
   LMAXMIX     =    2 max onsite mixed and CHGCAR
   VOSKOWN=      0    Vosko Wilk Nusair interpolation
   ROPT   =    0.00000   0.00000   0.00000   0.00000
   ROPT   =    0.00000
 Ionic relaxation
   EDIFFG = 0.1E-06   stopping-criterion for IOM
   NSW    =      0    number of steps for IOM
   NBLOCK =      1;   KBLOCK =      1    inner block; outer block 
   IBRION =     -1    ionic relax: 0-MD 1-quasi-New 2-CG
   NFREE  =      0    steps in history (QN), initial steepest desc. (CG)
   ISIF   =      2    stress and relaxation
   IWAVPR =     10    prediction:  0-non 1-charg 2-wave 3-comb
   ISYM   =      3    0-nonsym 1-usesym 2-fastsym
   LCORR  =      T    Harris-Foulkes like correction to forces

   POTIM  = 0.5000    time-step for ionic-motion
   TEIN   =    0.0    initial temperature
   TEBEG  =    0.0;   TEEND  =   0.0 temperature during run
   SMASS  =  -3.00    Nose mass-parameter (am)
   estimated Nose-frequenzy (Omega)   =  0.10E-29 period in steps =****** mass=  -0.362E-26a.u.
   SCALEE = 1.0000    scale energy and forces
   NPACO  =    256;   APACO  = 16.0  distance and # of slots for P.C.
   PSTRESS=    0.0 pullay stress

  Mass of Ions in am
   POMASS =  12.01 14.00  1.00207.20126.90
  Ionic Valenz
   ZVAL   =   4.00  5.00  1.00 14.00  7.00
  Atomic Wigner-Seitz radii
   RWIGS  =  -1.00 -1.00 -1.00 -1.00 -1.00
  virtual crystal weights 
   VCA    =   1.00  1.00  1.00  1.00  1.00
   NELECT =     400.0000    total number of electrons
   NUPDOWN=      -1.0000    fix difference up-down

 DOS related values:
   EMIN   =  10.00;   EMAX   =-10.00  energy-range for DOS
   EFERMI =   0.00
   ISMEAR =     0;   SIGMA  =   0.00  broadening in eV -4-tet -1-fermi 0-gaus

 Electronic relaxation 2 (details)
   IALGO  =     58    algorithm
   LDIAG  =      T    sub-space diagonalisation (order eigenvalues)
   LSUBROT=      F    optimize rotation matrix (better conditioning)
   TURBO    =      0    0=normal 1=particle mesh
   IRESTART =      0    0=no restart 2=restart with 2 vectors
   NREBOOT  =      0    no. of reboots
   NMIN     =      0    reboot dimension
   EREF     =   0.00    reference energy to select bands
   IMIX   =      4    mixing-type and parameters
     AMIX     =   0.40;   BMIX     =  1.00
     AMIX_MAG =   1.60;   BMIX_MAG =  1.00
     AMIN     =   0.10
     WC   =   100.;   INIMIX=   1;  MIXPRE=   1;  MAXMIX= -45

 Intra band minimization:
   WEIMIN = 0.0000     energy-eigenvalue tresh-hold
   EBREAK =  0.98E-11  absolut break condition
   DEPER  =   0.30     relativ break condition  

   TIME   =   0.40     timestep for ELM

  volume/ion in A,a.u.               =      20.80       140.38
  Fermi-wavevector in a.u.,A,eV,Ry     =   0.957863  1.810099 12.483376  0.917502
  Thomas-Fermi vector in A             =   2.086919
 
 Write flags
   LWAVE  =      F    write WAVECAR
   LCHARG =      F    write CHGCAR
   LVTOT  =      F    write LOCPOT, total local potential
   LVHAR  =      F    write LOCPOT, Hartree potential only
   LELF   =      F    write electronic localiz. function (ELF)
   LORBIT =      0    0 simple, 1 ext, 2 COOP (PROOUT)


 Dipole corrections
   LMONO  =      F    monopole corrections only (constant potential shift)
   LDIPOL =      F    correct potential (dipole corrections)
   IDIPOL =      0    1-x, 2-y, 3-z, 4-all directions 
   EPSILON=  1.0000000 bulk dielectric constant

 Core level calculations are selected ICORELEVEL =  1
 Exchange correlation treatment:
   GGA     =    PE    GGA type
   LEXCH   =     8    internal setting for exchange type
   VOSKOWN=      0    Vosko Wilk Nusair interpolation
   EXXOEP  =     0    0=HF, 1=EXX-LHF (local Hartree Fock) 2=EXX OEP
   LHFCALC =     T    Hartree Fock is set to
   LSYMGRAD=     F    symmetrize gradient (conserves proper symmetry)
   PRECFOCK=fast      Normal, Fast or Accurate (Low or Medium for compatibility)
   LRHFCALC=     F    long range Hartree Fock
   LRSCOR  =     F    long range correlation only (use DFT for short range part)
   LTHOMAS =     F    Thomas Fermi screening in HF
   LMODELHF=     F    short range full HF, long range fraction AEXX
   ENCUT4O =  -1.0   cutoff for four orbital integrals eV
   LMAXFOCK=     4    L truncation for augmentation on plane wave grid
   LMAXFOCKAE=  -1    L truncation for all-electron charge restoration on plane wave grid
   NMAXFOCKAE=   1    number of basis functions for all-electron charge restoration
   LFOCKAEDFT=     F  apply the AE augmentation even for DFT
   NKREDX  =     1    reduce k-point grid by
   NKREDY  =     1    reduce k-point grid by
   NKREDZ  =     1    reduce k-point grid by
   SHIFTRED=     F    shift reduced grid of Gamma
   HFKIDENT=     F    idential grid for each k-point
   ODDONLY =     F    use only odd q-grid points
   EVENONLY=     F    use only even q-grid points
   HFALPHA =   -1.0000 decay constant for conv. correction
   MCALPHA =    0.0000 extent of test-charge in conv. correction in multipole expansion
   AEXX    =    0.2500 exact exchange contribution
   HFSCREEN=    0.2070 screening length (either q_TF or 0.3 A-1)
   HFSCREENC=   0.2070 screening length for correlation (either q_TF or 0.3 A-1)
   HFRCUT  =    0.0000 spherical cutoff for potential kernel
   ALDAX   =    0.7500 LDA exchange part
   AGGAX   =    0.7500 GGA exchange part
   ALDAC   =    1.0000 LDA correlation
   AGGAC   =    1.0000 GGA correlation
   NBANDSGWLOW=     1    first orbital included in HF term
   ENCUTFOCK=  -1.0 apply spherical cutoff to Coloumb kernel
 Linear response parameters
   LEPSILON=     F    determine dielectric tensor
   LRPA    =     F    only Hartree local field effects (RPA)
   LNABLA  =     F    use nabla operator in PAW spheres
   LVEL    =     F    velocity operator in full k-point grid
   LINTERFAST=   F  fast interpolation
   KINTER  =     0    interpolate to denser k-point grid
   CSHIFT  =0.1000    complex shift for real part using Kramers Kronig
   OMEGAMAX=  -1.0    maximum frequency
   DEG_THRESHOLD= 0.2000000E-02 threshold for treating states as degnerate
   RTIME   =    0.100 relaxation time in fs

 Orbital magnetization related:
   ORBITALMAG=     F  switch on orbital magnetization
   LCHIMAG   =     F  perturbation theory with respect to B field
   DQ        =  0.001000  dq finite difference perturbation B field



--------------------------------------------------------------------------------------------------------


 Static calculation
 charge density and potential will be updated during run
 non-spin polarized calculation
 Conjugate gradient for all bands (Freysoldt, et al. PRB 79, 241103 (2009))
 preconditioned conjugated gradient                                        
 perform sub-space diagonalisation
    before iterative eigenvector-optimisation
 modified Broyden-mixing scheme, WC =      100.0
 initial mixing is a Kerker type mixing with AMIX =  0.4000 and BMIX =      1.0000
 Hartree-type preconditioning will be used
 using additional bands           56
 reciprocal scheme for non local part
 use partial core corrections
 no Harris-corrections to forces 
 use gradient corrections 
 use of overlap-Matrix (Vanderbilt PP)
 Gauss-broadening in eV      SIGMA  =   0.00


--------------------------------------------------------------------------------------------------------


  energy-cutoff  :      700.00
  volume of cell :     1996.98
      direct lattice vectors                 reciprocal lattice vectors
    12.576837428  0.001915912  0.138198793     0.079520802 -0.000007684 -0.000869670
     0.001195632 12.457538083 -0.000746413    -0.000012224  0.080272684 -0.000000427
     0.139410704  0.000089045 12.747420625    -0.000862111  0.000004784  0.078456671

  length of vectors
    12.577596840 12.457538162 12.748182927     0.079525558  0.080272685  0.078461408


 
 k-points in units of 2pi/SCALE and weight: Automatic 3x3x3                         
   0.00000000  0.00000000  0.00000000       0.037
   0.02650693 -0.00000256 -0.00028989       0.074
  -0.00000407  0.02675756 -0.00000014       0.074
   0.02650286  0.02675500 -0.00029003       0.074
  -0.02651101  0.02676012  0.00028975       0.074
  -0.00028737  0.00000159  0.02615222       0.074
   0.02621956 -0.00000097  0.02586233       0.074
  -0.02679430  0.00000416  0.02644211       0.074
  -0.00029144  0.02675916  0.02615208       0.074
   0.02621549  0.02675659  0.02586219       0.074
  -0.02679838  0.02676172  0.02644197       0.074
  -0.00028330 -0.02675597  0.02615237       0.074
   0.02622364 -0.02675853  0.02586248       0.074
  -0.02679023 -0.02675341  0.02644226       0.074
 
 k-points in reciprocal lattice and weights: Automatic 3x3x3                         
   0.00000000  0.00000000  0.00000000       0.037
   0.33333333 -0.00000000 -0.00000000       0.074
   0.00000000  0.33333333 -0.00000000       0.074
   0.33333333  0.33333333  0.00000000       0.074
  -0.33333333  0.33333333  0.00000000       0.074
   0.00000000  0.00000000  0.33333333       0.074
   0.33333333  0.00000000  0.33333333       0.074
  -0.33333333  0.00000000  0.33333333       0.074
   0.00000000  0.33333333  0.33333333       0.074
   0.33333333  0.33333333  0.33333333       0.074
  -0.33333333  0.33333333  0.33333333       0.074
   0.00000000 -0.33333333  0.33333333       0.074
   0.33333333 -0.33333333  0.33333333       0.074
  -0.33333333 -0.33333333  0.33333333       0.074
 
 position of ions in fractional coordinates (direct lattice) 
   0.19753026  0.24986605  0.22867303
   0.69645800  0.24995050  0.22915768
   0.19645800  0.74995050  0.22915768
   0.69753026  0.74986605  0.22867303
   0.19645800  0.24995050  0.72915768
   0.69753026  0.24986605  0.72867303
   0.19753026  0.74986605  0.72867303
   0.69645800  0.74995050  0.72915768
   0.30949437  0.24997651  0.26370093
   0.79958007  0.25003077  0.28406766
   0.29958007  0.75003077  0.28406766
   0.80949437  0.74997651  0.26370093
   0.29958007  0.25003077  0.78406766
   0.80949437  0.24997651  0.76370093
   0.30949437  0.74997651  0.76370093
   0.79958007  0.75003077  0.78406766
   0.19738504  0.24977908  0.14206154
   0.71276529  0.24986311  0.14371571
   0.21276529  0.74986311  0.14371571
   0.69738504  0.74977908  0.14206154
   0.21276529  0.24986311  0.64371571
   0.69738504  0.24977908  0.64206154
   0.19738504  0.74977908  0.64206154
   0.71276529  0.74986311  0.64371571
   0.15714247  0.32224920  0.25901400
   0.65153315  0.32245517  0.25201664
   0.15153315  0.82245517  0.25201664
   0.65714247  0.82224920  0.25901400
   0.15153315  0.32245517  0.75201664
   0.65714247  0.32224920  0.75901400
   0.15714247  0.82224920  0.75901400
   0.65153315  0.82245517  0.75201664
   0.15728309  0.17748036  0.25914092
   0.65160258  0.17747178  0.25216049
   0.15160258  0.67747178  0.25216049
   0.65728309  0.67748036  0.25914092
   0.15160258  0.17747178  0.75216049
   0.65728309  0.17748036  0.75914092
   0.15728309  0.67748036  0.75914092
   0.65160258  0.67747178  0.75216049
   0.35112941  0.31779428  0.23685491
   0.84513974  0.31795429  0.26465807
   0.34513974  0.81795429  0.26465807
   0.85112941  0.81779428  0.23685491
   0.34513974  0.31795429  0.76465807
   0.85112941  0.31779428  0.73685491
   0.35112941  0.81779428  0.73685491
   0.84513974  0.81795429  0.76465807
   0.35124255  0.18216038  0.23695209
   0.84516805  0.18204940  0.26482971
   0.34516805  0.68204940  0.26482971
   0.85124255  0.68216038  0.23695209
   0.34516805  0.18204940  0.76482971
   0.85124255  0.18216038  0.73695209
   0.35124255  0.68216038  0.73695209
   0.84516805  0.68204940  0.76482971
   0.31658400  0.25003768  0.34573571
   0.78975615  0.25014937  0.36548278
   0.28975615  0.75014937  0.36548278
   0.81658400  0.75003768  0.34573571
   0.28975615  0.25014937  0.86548278
   0.81658400  0.25003768  0.84573571
   0.31658400  0.75003768  0.84573571
   0.78975615  0.75014937  0.86548278
   0.47243920  0.49866510  0.48880792
   0.97244435  0.50131449  0.48881497
   0.47244435  0.00131449  0.48881497
   0.97243920  0.99866510  0.48880792
   0.47244435  0.50131449  0.98881497
   0.97243920  0.49866510  0.98880792
   0.47243920  0.99866510  0.98880792
   0.97244435  0.00131449  0.98881497
   0.45471275  0.50273324  0.23757431
   0.95477460  0.49724886  0.23757117
   0.45477460  0.99724886  0.23757117
   0.95471275  0.00273324  0.23757431
   0.45477460  0.49724886  0.73757117
   0.95471275  0.50273324  0.73757431
   0.45471275  0.00273324  0.73757431
   0.95477460  0.99724886  0.73757117
   0.46996762  0.24997413  0.01092386
   0.92930326  0.24998389  0.01274058
   0.42930326  0.74998389  0.01274058
   0.96996762  0.74997413  0.01092386
   0.42930326  0.24998389  0.51274058
   0.96996762  0.24997413  0.51092386
   0.46996762  0.74997413  0.51092386
   0.92930326  0.74998389  0.51274058
   0.21616640  0.52332060  0.46126405
   0.71617648  0.47667427  0.46121535
   0.21617648  0.97667427  0.46121535
   0.71616640  0.02332060  0.46126405
   0.21617648  0.47667427  0.96121535
   0.71616640  0.52332060  0.96126405
   0.21616640  0.02332060  0.96126405
   0.71617648  0.97667427  0.96121535
 
 position of ions in cartesian coordinates  (Angst):
   2.51648423  3.11311461  2.94210322
   8.79148494  3.11512267  3.01723242
   2.50366404  9.34293375  2.94775982
   8.80550076  9.34284161  3.01082941
   2.57277158  3.11420923  9.32184334
   8.87460830  3.11411709  9.38491293
   2.58678740  9.34192818  9.31544033
   8.86178811  9.34393623  9.39056953
   3.92952200  3.11470839  3.40409182
  10.09608953  3.11632503  3.73144438
   3.80826863  9.34413611  3.66197178
  10.21853853  9.34443538  3.47281801
   3.87737617  3.11541159 10.03605530
  10.28764607  3.11571087  9.84690152
   3.99982517  9.34352195  9.77742892
  10.16639270  9.34513859 10.10478149
   2.50258311  3.11202323  1.83801013
   8.98466748  3.11405762  1.93032145
   2.69684658  9.34186871  1.86084884
   8.79159964  9.34175023  1.90673632
   2.76595412  3.11314419  8.23493236
   8.86070717  3.11302571  8.28081984
   2.57288628  9.34083680  8.21134723
   9.05497065  9.34287119  8.30365855
   2.01284987  4.01475582  3.32323680
   8.22974582  4.01826832  3.30236248
   1.94192492 10.24607941  3.23288988
   8.30186640 10.24448281  3.39196299
   2.01103246  4.01735489  9.60697339
   8.37097394  4.01575829  9.76604651
   2.08315304 10.24356938  9.69657391
   8.30004899 10.24708189  9.67569958
   2.01446309  2.21129279  3.32498217
   8.23046573  2.21213238  3.30431409
   1.94264483  8.43994347  3.23484149
   8.30347962  8.44101978  3.39370836
   2.01175237  2.21121895  9.60892501
   8.37258715  2.21229526  9.76779188
   2.08476625  8.44010635  9.69831928
   8.30076890  8.44094595  9.67765120
   4.44949759  3.95962818  3.06757765
  10.66646149  3.96257040  3.49026770
   4.37864059 10.19038148  3.42079510
  10.73851412 10.18935517  3.13630384
   4.44774813  3.96165696  9.79487862
  10.80762165  3.96063065  9.51038736
   4.51980076 10.18844174  9.44091476
  10.73676466 10.19138396  9.86360481
   4.45077187  2.26996390  3.06893331
  10.66667896  2.26953014  3.49256100
   4.37885807  8.49734123  3.42308840
  10.73978840  8.49969089  3.13765950
   4.44796560  2.26861671  9.79717192
  10.80889594  2.27096637  9.51174302
   4.52107504  8.49877746  9.44227042
  10.73698213  8.49834371  9.86589811
   4.03012370  3.11549120  4.45080344
   9.98388596  3.11779093  4.76791933
   3.69606507  9.34560201  4.69844673
  10.31914023  9.34521819  4.51952963
   3.76517260  3.11687749 11.07253025
  10.38824777  3.11649367 10.89361315
   4.10042687  9.34430476 10.82414054
  10.05418913  9.34660449 11.14125644
   6.01053233  6.21308816  6.29595853
  12.29901990  6.24705098  6.36514648
   6.01000337  0.01732398  6.29642029
  12.29954886 12.44281516  6.36468472
   6.08030654  6.24613755 12.66975740
  12.36865640  6.21409064 12.73876824
   6.08083550 12.44190173 12.66929563
  12.36812744  0.01832646 12.73923000
   5.75256977  6.26371084  3.09092515
  12.04175945  6.19634701  3.15999724
   5.75393855 12.42415809  3.09052464
  12.04039067  0.03589975  3.16039776
   5.82304609  6.19543357  9.46460815
  12.11069383  6.26471331  9.53373486
   5.82167730  0.03498632  9.46500867
  12.11206262 12.42516057  9.53333434
   5.91252809  3.11496359  0.20401339
  11.68977112  3.11596548  0.29065149
   5.40195022  9.34377657  0.22117889
  12.20154462  9.34469059  0.27273958
   5.47105776  3.11505205  6.59526241
  12.27065215  3.11596607  6.64682310
   5.98283125  9.34377715  6.57735050
  11.76007429  9.34477905  6.66398860
   2.78362051  6.51974152  5.90941021
   9.07210341  5.93960112  5.97792501
   2.78428251 12.16741221  5.90845241
   9.07144141  0.29193043  5.97888282
   2.85339005  5.93868769 12.28253593
   9.14174458  6.52074400 12.35221992
   2.85272805  0.29101700 12.28349373
   9.14240658 12.16841468 12.35126212
 


--------------------------------------------------------------------------------------------------------


 k-point  1 :   0.0000 0.0000 0.0000  plane waves:   84007
 k-point  2 :   0.3333-0.0000-0.0000  plane waves:   84003
 k-point  3 :   0.0000 0.3333-0.0000  plane waves:   83995
 k-point  4 :   0.3333 0.3333 0.0000  plane waves:   84018
 k-point  5 :  -0.3333 0.3333 0.0000  plane waves:   84019
 k-point  6 :   0.0000 0.0000 0.3333  plane waves:   83960
 k-point  7 :   0.3333 0.0000 0.3333  plane waves:   83937
 k-point  8 :  -0.3333 0.0000 0.3333  plane waves:   83982
 k-point  9 :   0.0000 0.3333 0.3333  plane waves:   83984
 k-point 10 :   0.3333 0.3333 0.3333  plane waves:   84012
 k-point 11 :  -0.3333 0.3333 0.3333  plane waves:   83970
 k-point 12 :   0.0000-0.3333 0.3333  plane waves:   83977
 k-point 13 :   0.3333-0.3333 0.3333  plane waves:   84013
 k-point 14 :  -0.3333-0.3333 0.3333  plane waves:   83973

 maximum and minimum number of plane-waves per node :      7062     6951

 maximum number of plane-waves:     84019
 maximum index in each direction: 
   IXMAX=   27   IYMAX=   27   IZMAX=   27
   IXMIN=  -27   IYMIN=  -27   IZMIN=  -27

 NGX is ok and might be reduce to 110
 WARNING: aliasing errors must be expected set NGY to 110 to avoid them
 NGZ is ok and might be reduce to 110
 aliasing errors are usually negligible using standard VASP settings
 and one can safely disregard these warnings

 parallel 3D FFT for wavefunctions:
    minimum data exchange during FFTs selected (reduces bandwidth)
 parallel 3D FFT for charge:
    minimum data exchange during FFTs selected (reduces bandwidth)


 FFT grid for exact exchange (Hartree Fock) 
  NGX = 56; NGY = 56; NGZ = 60

 
 Radii for the augmentation spheres in the non-local exchange
 for species   1 augmentation radius   0.944 (default was   0.699)
       energy cutoff for augmentation   2800.0
 for species   2 augmentation radius   0.957 (default was   0.709)
       energy cutoff for augmentation   2800.0
 for species   3 augmentation radius   0.702 (default was   0.520)
       energy cutoff for augmentation   2800.0
 for species   4 augmentation radius   1.558 (default was   1.154)
       energy cutoff for augmentation   2800.0
 for species   5 augmentation radius   1.603 (default was   1.188)
       energy cutoff for augmentation   2800.0

 real space projection operators:
  total allocation   :      10792.53 KBytes
  max/ min on nodes  :       1216.47        486.20

 Maximum index for augmentation-charges in exchange          229
  SETUP_FOCK is finished

 total amount of memory used by VASP on root node   222699. kBytes
========================================================================

   base      :      30000. kBytes
   nonl-proj :      82891. kBytes
   fftplans  :      15020. kBytes
   grid      :      12652. kBytes
   one-center:        124. kBytes
   HF        :        259. kBytes
   nonlr-proj:       4167. kBytes
   wavefun   :      77586. kBytes
 
     INWAV:  cpu time    0.0000: real time    0.0002
 Broyden mixing: mesh for mixing (old mesh)
   NGX = 55   NGY = 53   NGZ = 55
  (NGX  =224   NGY  =216   NGZ  =224)
  gives a total of 160325 points

 initial charge density was supplied:
 charge density of overlapping atoms calculated
 number of electron     400.0000000 magnetization 
 keeping initial charge density in first step


--------------------------------------------------------------------------------------------------------


 Maximum index for augmentation-charges         5400 (set IRDMAX)


--------------------------------------------------------------------------------------------------------


 First call to EWALD:  gamma=   0.141
 Maximum number of real-space cells 3x 3x 3
 Maximum number of reciprocal cells 3x 3x 3

 FEWALD executed in parallel
    FEWALD:  cpu time    0.0240: real time    0.0209


----------------------------------------- Iteration    1(   1)  ---------------------------------------


    POTLOK:  cpu time    0.2560: real time    0.2562
    SETDIJ:  cpu time    0.6000: real time    0.5997
    TRIAL :  cpu time    4.4883: real time    4.4938
    CORREC:  cpu time    0.0000: real time    0.0012
    --------------------------------------------
      LOOP:  cpu time    5.3803: real time    5.4182

 eigenvalue-minimisations  : 11744
 total energy-change (2. order) : 0.3459728E+05  (-0.1141912E+06)
 number of electron     400.0000000 magnetization 
 augmentation part      400.0000000 magnetization 

 Free energy of the ion-electron system (eV)
  ---------------------------------------------------
  alpha Z        PSCENC =       370.05370877
  Ewald energy   TEWEN  =    -15534.46532026
  -Hartree energ DENC   =     -8117.06397647
  -exchange      EXHF   =         0.00000000
  -V(xc)+E(xc)   XCENC  =       254.51756531
  PAW double counting   =     20708.16285019   -20051.16882790
  entropy T*S    EENTRO =        -0.00000000
  eigenvalues    EBANDS =     32286.81851179
  atomic energy  EATOM  =     24680.42500649
  ---------------------------------------------------
  free energy    TOTEN  =     34597.27951792 eV

  energy without entropy =    34597.27951792  energy(sigma->0) =    34597.27951792
  exchange ACFDT corr.  =         0.00000000  see jH, gK, PRB 81, 115126


--------------------------------------------------------------------------------------------------------




----------------------------------------- Iteration    1(   2)  ---------------------------------------


    TRIAL :  cpu time    3.4602: real time    3.4635
    CORREC:  cpu time    0.0040: real time    0.0029
    --------------------------------------------
      LOOP:  cpu time    3.4682: real time    3.5074

 eigenvalue-minimisations  :  8608
 total energy-change (2. order) :-0.2600679E+05  (-0.2527547E+05)
 number of electron     400.0000000 magnetization 
 augmentation part      400.0000000 magnetization 

 Free energy of the ion-electron system (eV)
  ---------------------------------------------------
  alpha Z        PSCENC =       370.05370877
  Ewald energy   TEWEN  =    -15534.46532026
  -Hartree energ DENC   =     -8117.06397647
  -exchange      EXHF   =         0.00000000
  -V(xc)+E(xc)   XCENC  =       254.51756531
  PAW double counting   =     20708.16285019   -20051.16882790
  entropy T*S    EENTRO =        -0.00007382
  eigenvalues    EBANDS =      6280.02719037
  atomic energy  EATOM  =     24680.42500649
  ---------------------------------------------------
  free energy    TOTEN  =      8590.48812268 eV

  energy without entropy =     8590.48819650  energy(sigma->0) =     8590.48815959
  exchange ACFDT corr.  =         0.00000000  see jH, gK, PRB 81, 115126


--------------------------------------------------------------------------------------------------------




----------------------------------------- Iteration    1(   3)  ---------------------------------------


    TRIAL :  cpu time    3.6922: real time    3.6959
    CORREC:  cpu time    0.0000: real time    0.0024
    --------------------------------------------
      LOOP:  cpu time    3.6962: real time    3.7173

 eigenvalue-minimisations  :  8992
 total energy-change (2. order) :-0.6798057E+04  (-0.6693438E+04)
 number of electron     400.0000000 magnetization 
 augmentation part      400.0000000 magnetization 

 Free energy of the ion-electron system (eV)
  ---------------------------------------------------
  alpha Z        PSCENC =       370.05370877
  Ewald energy   TEWEN  =    -15534.46532026
  -Hartree energ DENC   =     -8117.06397647
  -exchange      EXHF   =         0.00000000
  -V(xc)+E(xc)   XCENC  =       254.51756531
  PAW double counting   =     20708.16285019   -20051.16882790
  entropy T*S    EENTRO =        -0.00004179
  eigenvalues    EBANDS =      -518.03030320
  atomic energy  EATOM  =     24680.42500649
  ---------------------------------------------------
  free energy    TOTEN  =      1792.43066114 eV

  energy without entropy =     1792.43070293  energy(sigma->0) =     1792.43068203
  exchange ACFDT corr.  =         0.00000000  see jH, gK, PRB 81, 115126


--------------------------------------------------------------------------------------------------------




----------------------------------------- Iteration    1(   4)  ---------------------------------------


    TRIAL :  cpu time    3.8682: real time    3.8731
    CORREC:  cpu time    0.0040: real time    0.0012
    --------------------------------------------
      LOOP:  cpu time    3.8762: real time    3.8946

 eigenvalue-minimisations  :  9856
 total energy-change (2. order) :-0.1353033E+04  (-0.1297424E+04)
 number of electron     400.0000000 magnetization 
 augmentation part      400.0000000 magnetization 

 Free energy of the ion-electron system (eV)
  ---------------------------------------------------
  alpha Z        PSCENC =       370.05370877
  Ewald energy   TEWEN  =    -15534.46532026
  -Hartree energ DENC   =     -8117.06397647
  -exchange      EXHF   =         0.00000000
  -V(xc)+E(xc)   XCENC  =       254.51756531
  PAW double counting   =     20708.16285019   -20051.16882790
  entropy T*S    EENTRO =         0.00000000
  eigenvalues    EBANDS =     -1871.06320376
  atomic energy  EATOM  =     24680.42500649
  ---------------------------------------------------
  free energy    TOTEN  =       439.39780237 eV

  energy without entropy =      439.39780237  energy(sigma->0) =      439.39780237
  exchange ACFDT corr.  =         0.00000000  see jH, gK, PRB 81, 115126


--------------------------------------------------------------------------------------------------------




----------------------------------------- Iteration    1(   5)  ---------------------------------------


    TRIAL :  cpu time    3.7962: real time    3.7986
    CORREC:  cpu time    0.0000: real time    0.0017
    CHARGE:  cpu time    0.8681: real time    0.8658
    --------------------------------------------
      LOOP:  cpu time    4.6643: real time    4.7334

 eigenvalue-minimisations  :  9584
 total energy-change (2. order) :-0.1649930E+03  (-0.1623217E+03)
 number of electron     400.0000000 magnetization 
 augmentation part       12.9435055 magnetization 

 Free energy of the ion-electron system (eV)
  ---------------------------------------------------
  alpha Z        PSCENC =       370.05370877
  Ewald energy   TEWEN  =    -15534.46532026
  -Hartree energ DENC   =     -8117.06397647
  -exchange      EXHF   =         0.00000000
  -V(xc)+E(xc)   XCENC  =       254.51756531
  PAW double counting   =     20708.16285019   -20051.16882790
  entropy T*S    EENTRO =         0.00000000
  eigenvalues    EBANDS =     -2036.05624922
  atomic energy  EATOM  =     24680.42500649
  ---------------------------------------------------
  free energy    TOTEN  =       274.40475692 eV

  energy without entropy =      274.40475692  energy(sigma->0) =      274.40475692
  exchange ACFDT corr.  =         0.00000000  see jH, gK, PRB 81, 115126


--------------------------------------------------------------------------------------------------------




----------------------------------------- Iteration    1(   6)  ---------------------------------------


    POTLOK:  cpu time    0.2520: real time    0.2521
    SETDIJ:  cpu time    0.6360: real time    0.6353
    TRIAL :  cpu time  285.3978: real time  285.5912
    CORREC:  cpu time  287.0219: real time  287.2036
    CHARGE:  cpu time    0.8761: real time    0.8759
    --------------------------------------------
      LOOP:  cpu time  574.1839: real time  574.5775

 eigenvalue-minimisations  :     0
 total energy-change (2. order) :-0.7232266E+03  (-0.1878190E+02)
 number of electron     400.0000000 magnetization 
 augmentation part       13.3158150 magnetization 

 Free energy of the ion-electron system (eV)
  ---------------------------------------------------
  alpha Z        PSCENC =       370.05370877
  Ewald energy   TEWEN  =    -15534.46532026
  -Hartree energ DENC   =     -8183.39257530
  -exchange      EXHF   =       753.01748316
  -V(xc)+E(xc)   XCENC  =       273.42614944
  PAW double counting   =     55677.85327591   -55009.12291453
  entropy T*S    EENTRO =        -0.00000000
  eigenvalues    EBANDS =     -3476.61669918
  atomic energy  EATOM  =     24680.42500649
  ---------------------------------------------------
  free energy    TOTEN  =      -448.82188551 eV

  energy without entropy =     -448.82188551  energy(sigma->0) =     -448.82188551
  exchange ACFDT corr.  =         0.00000000  see jH, gK, PRB 81, 115126


--------------------------------------------------------------------------------------------------------




----------------------------------------- Iteration    1(   7)  ---------------------------------------


    POTLOK:  cpu time    0.2560: real time    0.2547
    SETDIJ:  cpu time    0.6040: real time    0.6074
    TRIAL :  cpu time  285.2498: real time  285.4507
    CORREC:  cpu time  286.9659: real time  287.1474
    CHARGE:  cpu time    0.8601: real time    0.8615
    --------------------------------------------
      LOOP:  cpu time  573.9359: real time  574.3604

 eigenvalue-minimisations  :     0
 total energy-change (2. order) :-0.1871686E+02  (-0.7722690E+01)
 number of electron     400.0000000 magnetization 
 augmentation part        9.8393530 magnetization 

 Free energy of the ion-electron system (eV)
  ---------------------------------------------------
  alpha Z        PSCENC =       370.05370877
  Ewald energy   TEWEN  =    -15534.46532026
  -Hartree energ DENC   =     -8459.50682652
  -exchange      EXHF   =       762.52788623
  -V(xc)+E(xc)   XCENC  =       280.08448193
  PAW double counting   =     49649.69423494   -48978.26170902
  entropy T*S    EENTRO =        -0.00000000
  eigenvalues    EBANDS =     -3238.09021188
  atomic energy  EATOM  =     24680.42500649
  ---------------------------------------------------
  free energy    TOTEN  =      -467.53874933 eV

  energy without entropy =     -467.53874933  energy(sigma->0) =     -467.53874933
  exchange ACFDT corr.  =         0.00000000  see jH, gK, PRB 81, 115126


--------------------------------------------------------------------------------------------------------




----------------------------------------- Iteration    1(   8)  ---------------------------------------


    POTLOK:  cpu time    0.2560: real time    0.2553
    SETDIJ:  cpu time    0.6120: real time    0.6139
    TRIAL :  cpu time  285.7699: real time  285.9881
    CORREC:  cpu time  288.0940: real time  288.2776
    CHARGE:  cpu time    0.8601: real time    0.8610
    --------------------------------------------
      LOOP:  cpu time  575.5920: real time  576.0426

 eigenvalue-minimisations  :     0
 total energy-change (2. order) :-0.7722381E+01  (-0.2780326E+01)
 number of electron     400.0000000 magnetization 
 augmentation part        9.5123903 magnetization 

 Free energy of the ion-electron system (eV)
  ---------------------------------------------------
  alpha Z        PSCENC =       370.05370877
  Ewald energy   TEWEN  =    -15534.46532026
  -Hartree energ DENC   =     -8384.86559558
  -exchange      EXHF   =       765.65933753
  -V(xc)+E(xc)   XCENC  =       278.22720069
  PAW double counting   =     43543.99584506   -42880.40944471
  entropy T*S    EENTRO =         0.00000000
  eigenvalues    EBANDS =     -3313.88186818
  atomic energy  EATOM  =     24680.42500649
  ---------------------------------------------------
  free energy    TOTEN  =      -475.26113020 eV

  energy without entropy =     -475.26113020  energy(sigma->0) =     -475.26113020
  exchange ACFDT corr.  =         0.00000000  see jH, gK, PRB 81, 115126


--------------------------------------------------------------------------------------------------------




----------------------------------------- Iteration    1(   9)  ---------------------------------------


    POTLOK:  cpu time    0.2520: real time    0.2519
    SETDIJ:  cpu time    0.4720: real time    0.4723
    TRIAL :  cpu time  285.6259: real time  285.8258
    CORREC:  cpu time  286.9139: real time  287.1020
    CHARGE:  cpu time    0.8601: real time    0.8588
    --------------------------------------------
      LOOP:  cpu time  574.1279: real time  574.9307

 eigenvalue-minimisations  :     0
 total energy-change (2. order) :-0.2780573E+01  (-0.8826888E+00)
 number of electron     400.0000000 magnetization 
 augmentation part        9.6049446 magnetization 

 Free energy of the ion-electron system (eV)
  ---------------------------------------------------
  alpha Z        PSCENC =       370.05370877
  Ewald energy   TEWEN  =    -15534.46532026
  -Hartree energ DENC   =     -8431.25055363
  -exchange      EXHF   =       768.77239597
  -V(xc)+E(xc)   XCENC  =       279.74335983
  PAW double counting   =     38276.19601168   -37613.73582261
  entropy T*S    EENTRO =         0.00000000
  eigenvalues    EBANDS =     -3273.78048958
  atomic energy  EATOM  =     24680.42500649
  ---------------------------------------------------
  free energy    TOTEN  =      -478.04170334 eV

  energy without entropy =     -478.04170334  energy(sigma->0) =     -478.04170334
  exchange ACFDT corr.  =         0.00000000  see jH, gK, PRB 81, 115126


--------------------------------------------------------------------------------------------------------




----------------------------------------- Iteration    1(  10)  ---------------------------------------


    POTLOK:  cpu time    0.2560: real time    0.2562
    SETDIJ:  cpu time    0.6000: real time    0.5990
    TRIAL :  cpu time  285.2418: real time  285.4241
    CORREC:  cpu time  287.0499: real time  287.2342
    CHARGE:  cpu time    0.8601: real time    0.8591
    --------------------------------------------
      LOOP:  cpu time  574.0079: real time  574.4326

 eigenvalue-minimisations  :     0
 total energy-change (2. order) :-0.8817607E+00  (-0.2253468E+00)
 number of electron     400.0000000 magnetization 
 augmentation part        9.2453522 magnetization 

 Free energy of the ion-electron system (eV)
  ---------------------------------------------------
  alpha Z        PSCENC =       370.05370877
  Ewald energy   TEWEN  =    -15534.46532026
  -Hartree energ DENC   =     -8434.44407373
  -exchange      EXHF   =       768.27228169
  -V(xc)+E(xc)   XCENC  =       279.08464410
  PAW double counting   =     35773.30068301   -35109.48014756
  entropy T*S    EENTRO =         0.00000000
  eigenvalues    EBANDS =     -3271.67024659
  atomic energy  EATOM  =     24680.42500649
  ---------------------------------------------------
  free energy    TOTEN  =      -478.92346409 eV

  energy without entropy =     -478.92346409  energy(sigma->0) =     -478.92346409
  exchange ACFDT corr.  =         0.00000000  see jH, gK, PRB 81, 115126


--------------------------------------------------------------------------------------------------------




----------------------------------------- Iteration    1(  11)  ---------------------------------------


    POTLOK:  cpu time    0.2640: real time    0.2637
    SETDIJ:  cpu time    0.6360: real time    0.6343
    TRIAL :  cpu time  285.3138: real time  285.5441
    CORREC:  cpu time  286.7379: real time  286.9188
    CHARGE:  cpu time    0.8601: real time    0.8615
    --------------------------------------------
      LOOP:  cpu time  573.8119: real time  574.2383

 eigenvalue-minimisations  :     0
 total energy-change (2. order) :-0.2253290E+00  (-0.1137505E+00)
 number of electron     400.0000000 magnetization 
 augmentation part        9.3434391 magnetization 

 Free energy of the ion-electron system (eV)
  ---------------------------------------------------
  alpha Z        PSCENC =       370.05370877
  Ewald energy   TEWEN  =    -15534.46532026
  -Hartree energ DENC   =     -8406.37127285
  -exchange      EXHF   =       767.67716693
  -V(xc)+E(xc)   XCENC  =       278.13394857
  PAW double counting   =     35164.24655885   -34500.75455746
  entropy T*S    EENTRO =         0.00000000
  eigenvalues    EBANDS =     -3298.09403207
  atomic energy  EATOM  =     24680.42500649
  ---------------------------------------------------
  free energy    TOTEN  =      -479.14879305 eV

  energy without entropy =     -479.14879305  energy(sigma->0) =     -479.14879305
  exchange ACFDT corr.  =         0.00000000  see jH, gK, PRB 81, 115126


--------------------------------------------------------------------------------------------------------




----------------------------------------- Iteration    1(  12)  ---------------------------------------


    POTLOK:  cpu time    0.2520: real time    0.2519
    SETDIJ:  cpu time    0.4720: real time    0.4709
    TRIAL :  cpu time  285.3818: real time  285.5964
    CORREC:  cpu time  286.9179: real time  287.1006
    CHARGE:  cpu time    0.8641: real time    0.8650
    --------------------------------------------
      LOOP:  cpu time  573.8879: real time  576.2761

 eigenvalue-minimisations  :     0
 total energy-change (2. order) :-0.1136351E+00  (-0.3529902E-01)
 number of electron     400.0000000 magnetization 
 augmentation part        9.3550017 magnetization 

 Free energy of the ion-electron system (eV)
  ---------------------------------------------------
  alpha Z        PSCENC =       370.05370877
  Ewald energy   TEWEN  =    -15534.46532026
  -Hartree energ DENC   =     -8424.54520582
  -exchange      EXHF   =       768.21885882
  -V(xc)+E(xc)   XCENC  =       278.60539701
  PAW double counting   =     35049.96574275   -34385.98135199
  entropy T*S    EENTRO =         0.00000000
  eigenvalues    EBANDS =     -3281.53926395
  atomic energy  EATOM  =     24680.42500649
  ---------------------------------------------------
  free energy    TOTEN  =      -479.26242818 eV

  energy without entropy =     -479.26242818  energy(sigma->0) =     -479.26242818
  exchange ACFDT corr.  =         0.00000000  see jH, gK, PRB 81, 115126


--------------------------------------------------------------------------------------------------------




----------------------------------------- Iteration    1(  13)  ---------------------------------------


    POTLOK:  cpu time    0.2560: real time    0.2541
    SETDIJ:  cpu time    0.6080: real time    0.6083
    TRIAL :  cpu time  285.2178: real time  285.4128
    CORREC:  cpu time  286.8939: real time  287.0791
    CHARGE:  cpu time    0.8641: real time    0.8625
    --------------------------------------------
      LOOP:  cpu time  573.8399: real time  574.2611

 eigenvalue-minimisations  :     0
 total energy-change (2. order) :-0.3523584E-01  (-0.1014707E-01)
 number of electron     400.0000000 magnetization 
 augmentation part        9.3319306 magnetization 

 Free energy of the ion-electron system (eV)
  ---------------------------------------------------
  alpha Z        PSCENC =       370.05370877
  Ewald energy   TEWEN  =    -15534.46532026
  -Hartree energ DENC   =     -8424.92678557
  -exchange      EXHF   =       768.31670674
  -V(xc)+E(xc)   XCENC  =       278.67663181
  PAW double counting   =     35248.72985359   -34584.74139164
  entropy T*S    EENTRO =         0.00000000
  eigenvalues    EBANDS =     -3281.36607395
  atomic energy  EATOM  =     24680.42500649
  ---------------------------------------------------
  free energy    TOTEN  =      -479.29766402 eV

  energy without entropy =     -479.29766402  energy(sigma->0) =     -479.29766402
  exchange ACFDT corr.  =         0.00000000  see jH, gK, PRB 81, 115126


--------------------------------------------------------------------------------------------------------




----------------------------------------- Iteration    1(  14)  ---------------------------------------


    POTLOK:  cpu time    0.2640: real time    0.2643
    SETDIJ:  cpu time    0.6280: real time    0.6288
    TRIAL :  cpu time  285.2378: real time  285.4187
    CORREC:  cpu time  286.7779: real time  286.9616
    CHARGE:  cpu time    0.8601: real time    0.8619
    --------------------------------------------
      LOOP:  cpu time  573.7719: real time  574.1507

 eigenvalue-minimisations  :     0
 total energy-change (2. order) :-0.1014249E-01  (-0.2885799E-02)
 number of electron     400.0000000 magnetization 
 augmentation part        9.3643022 magnetization 

 Free energy of the ion-electron system (eV)
  ---------------------------------------------------
  alpha Z        PSCENC =       370.05370877
  Ewald energy   TEWEN  =    -15534.46532026
  -Hartree energ DENC   =     -8421.96264937
  -exchange      EXHF   =       768.24426510
[...]


 FORCES acting on ions:
    Electron-Ion                     Ewald-Force                    Non-Local-Force
 -----------------------------------------------------------------------------------------------
   0.885E+02 0.456E-01 0.261E+02   -.959E+02 -.554E-01 -.287E+02   0.696E+01 0.867E-02 0.233E+01
   0.821E+02 0.667E-01 0.471E+02   -.890E+02 -.743E-01 -.511E+02   0.643E+01 0.665E-02 0.366E+01
   0.821E+02 0.667E-01 0.471E+02   -.890E+02 -.743E-01 -.511E+02   0.643E+01 0.665E-02 0.366E+01
   0.885E+02 0.456E-01 0.261E+02   -.959E+02 -.554E-01 -.287E+02   0.696E+01 0.867E-02 0.233E+01
   0.821E+02 0.667E-01 0.471E+02   -.890E+02 -.743E-01 -.511E+02   0.643E+01 0.665E-02 0.366E+01
   0.885E+02 0.456E-01 0.261E+02   -.959E+02 -.554E-01 -.287E+02   0.696E+01 0.867E-02 0.233E+01
   0.885E+02 0.456E-01 0.261E+02   -.959E+02 -.554E-01 -.287E+02   0.696E+01 0.867E-02 0.233E+01
   0.821E+02 0.667E-01 0.471E+02   -.890E+02 -.743E-01 -.511E+02   0.643E+01 0.665E-02 0.366E+01
   -.367E+02 -.131E+00 -.161E+02   0.356E+02 0.129E+00 0.160E+02   0.148E+01 0.192E-02 0.297E+00
   -.387E+02 -.513E-01 -.176E+02   0.378E+02 0.472E-01 0.168E+02   0.122E+01 0.360E-02 0.983E+00
   -.387E+02 -.513E-01 -.176E+02   0.378E+02 0.472E-01 0.168E+02   0.122E+01 0.360E-02 0.983E+00
   -.367E+02 -.131E+00 -.161E+02   0.356E+02 0.129E+00 0.160E+02   0.148E+01 0.192E-02 0.297E+00
   -.387E+02 -.513E-01 -.176E+02   0.378E+02 0.472E-01 0.168E+02   0.122E+01 0.360E-02 0.983E+00
   -.367E+02 -.131E+00 -.161E+02   0.356E+02 0.129E+00 0.160E+02   0.148E+01 0.192E-02 0.297E+00
   -.367E+02 -.131E+00 -.161E+02   0.356E+02 0.129E+00 0.160E+02   0.148E+01 0.192E-02 0.297E+00
   -.387E+02 -.513E-01 -.176E+02   0.378E+02 0.472E-01 0.168E+02   0.122E+01 0.360E-02 0.983E+00
   0.101E+02 0.403E-01 0.506E+02   -.103E+02 -.458E-01 -.558E+02   0.219E+00 0.576E-02 0.558E+01
   0.128E+01 0.527E-01 0.528E+02   -.500E+00 -.579E-01 -.580E+02   -.833E+00 0.544E-02 0.553E+01
   0.128E+01 0.527E-01 0.528E+02   -.500E+00 -.579E-01 -.580E+02   -.833E+00 0.544E-02 0.553E+01
   0.101E+02 0.403E-01 0.506E+02   -.103E+02 -.458E-01 -.558E+02   0.219E+00 0.576E-02 0.558E+01
   0.128E+01 0.527E-01 0.528E+02   -.500E+00 -.579E-01 -.580E+02   -.833E+00 0.544E-02 0.553E+01
   0.101E+02 0.403E-01 0.506E+02   -.103E+02 -.458E-01 -.558E+02   0.219E+00 0.576E-02 0.558E+01
   0.101E+02 0.403E-01 0.506E+02   -.103E+02 -.458E-01 -.558E+02   0.219E+00 0.576E-02 0.558E+01
   0.128E+01 0.527E-01 0.528E+02   -.500E+00 -.579E-01 -.580E+02   -.833E+00 0.544E-02 0.553E+01
   0.293E+02 -.392E+02 -.138E+02   -.319E+02 0.437E+02 0.156E+02   0.269E+01 -.456E+01 -.187E+01
   0.316E+02 -.395E+02 -.662E+01   -.344E+02 0.439E+02 0.794E+01   0.296E+01 -.457E+01 -.137E+01
   0.316E+02 -.395E+02 -.662E+01   -.344E+02 0.439E+02 0.794E+01   0.296E+01 -.457E+01 -.137E+01
   0.293E+02 -.392E+02 -.138E+02   -.319E+02 0.437E+02 0.156E+02   0.269E+01 -.456E+01 -.187E+01
   0.316E+02 -.395E+02 -.662E+01   -.344E+02 0.439E+02 0.794E+01   0.296E+01 -.457E+01 -.137E+01
   0.293E+02 -.392E+02 -.138E+02   -.319E+02 0.437E+02 0.156E+02   0.269E+01 -.456E+01 -.187E+01
   0.293E+02 -.392E+02 -.138E+02   -.319E+02 0.437E+02 0.156E+02   0.269E+01 -.456E+01 -.187E+01
   0.316E+02 -.395E+02 -.662E+01   -.344E+02 0.439E+02 0.794E+01   0.296E+01 -.457E+01 -.137E+01
   0.293E+02 0.393E+02 -.138E+02   -.318E+02 -.437E+02 0.157E+02   0.268E+01 0.456E+01 -.188E+01
   0.315E+02 0.395E+02 -.671E+01   -.344E+02 -.439E+02 0.803E+01   0.295E+01 0.457E+01 -.138E+01
   0.315E+02 0.395E+02 -.671E+01   -.344E+02 -.439E+02 0.803E+01   0.295E+01 0.457E+01 -.138E+01
   0.293E+02 0.393E+02 -.138E+02   -.318E+02 -.437E+02 0.157E+02   0.268E+01 0.456E+01 -.188E+01
   0.315E+02 0.395E+02 -.671E+01   -.344E+02 -.439E+02 0.803E+01   0.295E+01 0.457E+01 -.138E+01
   0.293E+02 0.393E+02 -.138E+02   -.318E+02 -.437E+02 0.157E+02   0.268E+01 0.456E+01 -.188E+01
   0.293E+02 0.393E+02 -.138E+02   -.318E+02 -.437E+02 0.157E+02   0.268E+01 0.456E+01 -.188E+01
   0.315E+02 0.395E+02 -.671E+01   -.344E+02 -.439E+02 0.803E+01   0.295E+01 0.457E+01 -.138E+01
   -.315E+02 -.486E+02 0.196E+02   0.346E+02 0.537E+02 -.217E+02   -.338E+01 -.545E+01 0.217E+01
   -.356E+02 -.483E+02 0.153E+02   0.391E+02 0.534E+02 -.167E+02   -.367E+01 -.544E+01 0.154E+01
   -.356E+02 -.483E+02 0.153E+02   0.391E+02 0.534E+02 -.167E+02   -.367E+01 -.544E+01 0.154E+01
   -.315E+02 -.486E+02 0.196E+02   0.346E+02 0.537E+02 -.217E+02   -.338E+01 -.545E+01 0.217E+01
   -.356E+02 -.483E+02 0.153E+02   0.391E+02 0.534E+02 -.167E+02   -.367E+01 -.544E+01 0.154E+01
   -.315E+02 -.486E+02 0.196E+02   0.346E+02 0.537E+02 -.217E+02   -.338E+01 -.545E+01 0.217E+01
   -.315E+02 -.486E+02 0.196E+02   0.346E+02 0.537E+02 -.217E+02   -.338E+01 -.545E+01 0.217E+01
   -.356E+02 -.483E+02 0.153E+02   0.391E+02 0.534E+02 -.167E+02   -.367E+01 -.544E+01 0.154E+01
   -.316E+02 0.485E+02 0.195E+02   0.347E+02 -.537E+02 -.216E+02   -.338E+01 0.545E+01 0.216E+01
   -.356E+02 0.483E+02 0.151E+02   0.391E+02 -.534E+02 -.166E+02   -.367E+01 0.544E+01 0.152E+01
   -.356E+02 0.483E+02 0.151E+02   0.391E+02 -.534E+02 -.166E+02   -.367E+01 0.544E+01 0.152E+01
   -.316E+02 0.485E+02 0.195E+02   0.347E+02 -.537E+02 -.216E+02   -.338E+01 0.545E+01 0.216E+01
   -.356E+02 0.483E+02 0.151E+02   0.391E+02 -.534E+02 -.166E+02   -.367E+01 0.544E+01 0.152E+01
   -.316E+02 0.485E+02 0.195E+02   0.347E+02 -.537E+02 -.216E+02   -.338E+01 0.545E+01 0.216E+01
   -.316E+02 0.485E+02 0.195E+02   0.347E+02 -.537E+02 -.216E+02   -.338E+01 0.545E+01 0.216E+01
   -.356E+02 0.483E+02 0.151E+02   0.391E+02 -.534E+02 -.166E+02   -.367E+01 0.544E+01 0.152E+01
   -.222E+01 -.603E-01 -.618E+02   0.278E+01 0.652E-01 0.679E+02   -.684E+00 -.489E-02 -.664E+01
   0.894E+01 -.806E-01 -.653E+02   -.965E+01 0.900E-01 0.718E+02   0.708E+00 -.986E-02 -.692E+01
   0.894E+01 -.806E-01 -.653E+02   -.965E+01 0.900E-01 0.718E+02   0.708E+00 -.986E-02 -.692E+01
   -.222E+01 -.603E-01 -.618E+02   0.278E+01 0.652E-01 0.679E+02   -.684E+00 -.489E-02 -.664E+01
   0.894E+01 -.806E-01 -.653E+02   -.965E+01 0.900E-01 0.718E+02   0.708E+00 -.986E-02 -.692E+01
   -.222E+01 -.603E-01 -.618E+02   0.278E+01 0.652E-01 0.679E+02   -.684E+00 -.489E-02 -.664E+01
   -.222E+01 -.603E-01 -.618E+02   0.278E+01 0.652E-01 0.679E+02   -.684E+00 -.489E-02 -.664E+01
   0.894E+01 -.806E-01 -.653E+02   -.965E+01 0.900E-01 0.718E+02   0.708E+00 -.986E-02 -.692E+01
   -.310E+02 0.583E+01 -.115E+02   0.297E+02 -.579E+01 0.111E+02   0.123E+01 -.427E-01 0.329E+00
   -.310E+02 -.569E+01 -.115E+02   0.297E+02 0.564E+01 0.111E+02   0.123E+01 0.537E-01 0.330E+00
   -.310E+02 -.569E+01 -.115E+02   0.297E+02 0.564E+01 0.111E+02   0.123E+01 0.537E-01 0.330E+00
   -.310E+02 0.583E+01 -.115E+02   0.297E+02 -.579E+01 0.111E+02   0.123E+01 -.427E-01 0.329E+00
   -.310E+02 -.569E+01 -.115E+02   0.297E+02 0.564E+01 0.111E+02   0.123E+01 0.537E-01 0.330E+00
   -.310E+02 0.583E+01 -.115E+02   0.297E+02 -.579E+01 0.111E+02   0.123E+01 -.427E-01 0.329E+00
   -.310E+02 0.583E+01 -.115E+02   0.297E+02 -.579E+01 0.111E+02   0.123E+01 -.427E-01 0.329E+00
   -.310E+02 -.569E+01 -.115E+02   0.297E+02 0.564E+01 0.111E+02   0.123E+01 0.537E-01 0.330E+00
   -.171E+02 -.257E+01 0.550E+01   0.172E+02 0.264E+01 -.543E+01   -.951E-01 -.616E-01 -.748E-01
   -.172E+02 0.265E+01 0.549E+01   0.173E+02 -.272E+01 -.542E+01   -.964E-01 0.625E-01 -.749E-01
   -.172E+02 0.265E+01 0.549E+01   0.173E+02 -.272E+01 -.542E+01   -.964E-01 0.625E-01 -.749E-01
   -.171E+02 -.257E+01 0.550E+01   0.172E+02 0.264E+01 -.543E+01   -.951E-01 -.616E-01 -.748E-01
   -.172E+02 0.265E+01 0.549E+01   0.173E+02 -.272E+01 -.542E+01   -.964E-01 0.625E-01 -.749E-01
   -.171E+02 -.257E+01 0.550E+01   0.172E+02 0.264E+01 -.543E+01   -.951E-01 -.616E-01 -.748E-01
   -.171E+02 -.257E+01 0.550E+01   0.172E+02 0.264E+01 -.543E+01   -.951E-01 -.616E-01 -.748E-01
   -.172E+02 0.265E+01 0.549E+01   0.173E+02 -.272E+01 -.542E+01   -.964E-01 0.625E-01 -.749E-01
   -.318E+02 -.528E-01 -.124E+02   0.319E+02 0.541E-01 0.129E+02   -.771E-01 -.107E-02 -.490E+00
   0.349E+01 -.536E-01 -.178E+02   -.383E+01 0.550E-01 0.186E+02   0.342E+00 -.111E-02 -.770E+00
   0.349E+01 -.536E-01 -.178E+02   -.383E+01 0.550E-01 0.186E+02   0.342E+00 -.111E-02 -.770E+00
   -.318E+02 -.528E-01 -.124E+02   0.319E+02 0.541E-01 0.129E+02   -.771E-01 -.107E-02 -.490E+00
   0.349E+01 -.536E-01 -.178E+02   -.383E+01 0.550E-01 0.186E+02   0.342E+00 -.111E-02 -.770E+00
   -.318E+02 -.528E-01 -.124E+02   0.319E+02 0.541E-01 0.129E+02   -.771E-01 -.107E-02 -.490E+00
   -.318E+02 -.528E-01 -.124E+02   0.319E+02 0.541E-01 0.129E+02   -.771E-01 -.107E-02 -.490E+00
   0.349E+01 -.536E-01 -.178E+02   -.383E+01 0.550E-01 0.186E+02   0.342E+00 -.111E-02 -.770E+00
   0.447E+01 0.120E+01 -.409E+01   -.392E+01 -.106E+01 0.368E+01   -.566E+00 -.126E+00 0.458E+00
   0.447E+01 -.120E+01 -.414E+01   -.392E+01 0.105E+01 0.373E+01   -.566E+00 0.125E+00 0.458E+00
   0.447E+01 -.120E+01 -.414E+01   -.392E+01 0.105E+01 0.373E+01   -.566E+00 0.125E+00 0.458E+00
   0.447E+01 0.120E+01 -.409E+01   -.392E+01 -.106E+01 0.368E+01   -.566E+00 -.126E+00 0.458E+00
   0.447E+01 -.120E+01 -.414E+01   -.392E+01 0.105E+01 0.373E+01   -.566E+00 0.125E+00 0.458E+00
   0.447E+01 0.120E+01 -.409E+01   -.392E+01 -.106E+01 0.368E+01   -.566E+00 -.126E+00 0.458E+00
   0.447E+01 0.120E+01 -.409E+01   -.392E+01 -.106E+01 0.368E+01   -.566E+00 -.126E+00 0.458E+00
   0.447E+01 -.120E+01 -.414E+01   -.392E+01 0.105E+01 0.373E+01   -.566E+00 0.125E+00 0.458E+00
 -----------------------------------------------------------------------------------------------
   -.601E+02 -.112E+00 -.250E+02   -.747E-12 0.786E-13 -.666E-14   0.563E+02 0.104E+00 0.235E+02
 
 
 POSITION                                       TOTAL-FORCE (eV/Angst)
 -----------------------------------------------------------------------------------
      2.51648      3.11311      2.94210        -0.186373     -0.000727     -0.133308
      8.79148      3.11512      3.01723        -0.150883     -0.000660     -0.165490
      2.50366      9.34293      2.94776        -0.150883     -0.000660     -0.165490
      8.80550      9.34284      3.01083        -0.186373     -0.000727     -0.133308
      2.57277      3.11421      9.32184        -0.150883     -0.000660     -0.165490
      8.87461      3.11412      9.38491        -0.186373     -0.000727     -0.133308
      2.58679      9.34193      9.31544        -0.186373     -0.000727     -0.133308
      8.86179      9.34394      9.39057        -0.150883     -0.000660     -0.165490
      3.92952      3.11471      3.40409         0.466849     -0.000210      0.191716
     10.09609      3.11633      3.73144         0.405262     -0.000213      0.221697
      3.80827      9.34414      3.66197         0.405262     -0.000213      0.221697
     10.21854      9.34444      3.47282         0.466849     -0.000210      0.191716
      3.87738      3.11541     10.03606         0.405262     -0.000213      0.221697
     10.28765      3.11571      9.84690         0.466849     -0.000210      0.191716
      3.99983      9.34352      9.77743         0.466849     -0.000210      0.191716
     10.16639      9.34514     10.10478         0.405262     -0.000213      0.221697
      2.50258      3.11202      1.83801         0.032171      0.000556      0.550728
      8.98467      3.11406      1.93032        -0.087067      0.000449      0.562079
      2.69685      9.34187      1.86085        -0.087067      0.000449      0.562079
      8.79160      9.34175      1.90674         0.032171      0.000556      0.550728
      2.76595      3.11314      8.23493        -0.087067      0.000449      0.562079
      8.86071      3.11303      8.28082         0.032171      0.000556      0.550728
      2.57289      9.34084      8.21135         0.032171      0.000556      0.550728
      9.05497      9.34287      8.30366        -0.087067      0.000449      0.562079
      2.01285      4.01476      3.32324         0.240638     -0.344479     -0.142988
      8.22975      4.01827      3.30236         0.261376     -0.354597     -0.107227
      1.94192     10.24608      3.23289         0.261376     -0.354597     -0.107227
      8.30187     10.24448      3.39196         0.240638     -0.344479     -0.142988
      2.01103      4.01735      9.60697         0.261376     -0.354597     -0.107227
      8.37097      4.01576      9.76605         0.240638     -0.344479     -0.142988
      2.08315     10.24357      9.69657         0.240638     -0.344479     -0.142988
      8.30005     10.24708      9.67570         0.261376     -0.354597     -0.107227
      2.01446      2.21129      3.32498         0.239846      0.345199     -0.144070
      8.23047      2.21213      3.30431         0.261002      0.355075     -0.108401
      1.94264      8.43994      3.23484         0.261002      0.355075     -0.108401
      8.30348      8.44102      3.39371         0.239846      0.345199     -0.144070
      2.01175      2.21122      9.60893         0.261002      0.355075     -0.108401
      8.37259      2.21230      9.76779         0.239846      0.345199     -0.144070
      2.08477      8.44011      9.69832         0.239846      0.345199     -0.144070
      8.30077      8.44095      9.67765         0.261002      0.355075     -0.108401
      4.44950      3.95963      3.06758        -0.363926     -0.526587      0.199231
     10.66646      3.96257      3.49027        -0.395357     -0.535130      0.138521
      4.37864     10.19038      3.42080        -0.395357     -0.535130      0.138521
     10.73851     10.18936      3.13630        -0.363926     -0.526587      0.199231
      4.44775      3.96166      9.79488        -0.395357     -0.535130      0.138521
     10.80762      3.96063      9.51039        -0.363926     -0.526587      0.199231
      4.51980     10.18844      9.44091        -0.363926     -0.526587      0.199231
     10.73676     10.19138      9.86360        -0.395357     -0.535130      0.138521
      4.45077      2.26996      3.06893        -0.365114      0.526985      0.197956
     10.66668      2.26953      3.49256        -0.395897      0.535932      0.136584
      4.37886      8.49734      3.42309        -0.395897      0.535932      0.136584
     10.73979      8.49969      3.13766        -0.365114      0.526985      0.197956
      4.44797      2.26862      9.79717        -0.395897      0.535932      0.136584
     10.80890      2.27097      9.51174        -0.365114      0.526985      0.197956
      4.52108      8.49878      9.44227        -0.365114      0.526985      0.197956
     10.73698      8.49834      9.86590        -0.395897      0.535932      0.136584
      4.03012      3.11549      4.45080        -0.150037     -0.000235     -0.747611
      9.98389      3.11779      4.76792         0.025624     -0.000878     -0.728240
      3.69607      9.34560      4.69845         0.025624     -0.000878     -0.728240
     10.31914      9.34522      4.51953        -0.150037     -0.000235     -0.747611
      3.76517      3.11688     11.07253         0.025624     -0.000878     -0.728240
     10.38825      3.11649     10.89361        -0.150037     -0.000235     -0.747611
      4.10043      9.34430     10.82414        -0.150037     -0.000235     -0.747611
     10.05419      9.34660     11.14126         0.025624     -0.000878     -0.728240
      6.01053      6.21309      6.29596         0.012742     -0.009739      0.007103
     12.29902      6.24705      6.36515         0.012743      0.009361      0.007146
      6.01000      0.01732      6.29642         0.012743      0.009361      0.007146
     12.29955     12.44282      6.36468         0.012742     -0.009739      0.007103
      6.08031      6.24614     12.66976         0.012743      0.009361      0.007146
     12.36866      6.21409     12.73877         0.012742     -0.009739      0.007103
      6.08084     12.44190     12.66930         0.012742     -0.009739      0.007103
     12.36813      0.01833     12.73923         0.012743      0.009361      0.007146
      5.75257      6.26371      3.09093         0.047029      0.002845     -0.013116
     12.04176      6.19635      3.16000         0.047187     -0.003351     -0.013085
      5.75394     12.42416      3.09052         0.047187     -0.003351     -0.013085
     12.04039      0.03590      3.16040         0.047029      0.002845     -0.013116
      5.82305      6.19543      9.46461         0.047187     -0.003351     -0.013085
     12.11069      6.26471      9.53373         0.047029      0.002845     -0.013116
      5.82168      0.03499      9.46501         0.047029      0.002845     -0.013116
     12.11206     12.42516      9.53333         0.047187     -0.003351     -0.013085
      5.91253      3.11496      0.20401         0.088240      0.000238     -0.022069
     11.68977      3.11597      0.29065         0.025160      0.000248     -0.019324
      5.40195      9.34378      0.22118         0.025160      0.000248     -0.019324
     12.20154      9.34469      0.27274         0.088240      0.000238     -0.022069
      5.47106      3.11505      6.59526         0.025160      0.000248     -0.019324
     12.27065      3.11597      6.64682         0.088240      0.000238     -0.022069
      5.98283      9.34378      6.57735         0.088240      0.000238     -0.022069
     11.76007      9.34478      6.66399         0.025160      0.000248     -0.019324
      2.78362      6.51974      5.90941        -0.035572      0.006719      0.066001
      9.07210      5.93960      5.97793        -0.035644     -0.006800      0.066167
      2.78428     12.16741      5.90845        -0.035644     -0.006800      0.066167
      9.07144      0.29193      5.97888        -0.035572      0.006719      0.066001
      2.85339      5.93869     12.28254        -0.035644     -0.006800      0.066167
      9.14174      6.52074     12.35222        -0.035572      0.006719      0.066001
      2.85273      0.29102     12.28349        -0.035572      0.006719      0.066001
      9.14241     12.16841     12.35126        -0.035644     -0.006800      0.066167
 -----------------------------------------------------------------------------------
    total drift:                                0.007970      0.000439      0.000072


--------------------------------------------------------------------------------------------------------



  FREE ENERGIE OF THE ION-ELECTRON SYSTEM (eV)
  ---------------------------------------------------
  free  energy   TOTEN  =      -479.31324808 eV

  energy  without entropy=     -479.31324808  energy(sigma->0) =     -479.31324808
 


--------------------------------------------------------------------------------------------------------


    POTLOK:  cpu time    0.9601: real time    0.9580


--------------------------------------------------------------------------------------------------------


     LOOP+:  cpu time15957.7173: real time15971.5808
    4ORBIT:  cpu time    0.0000: real time    0.0000

 total amount of memory used by VASP on root node   247575. kBytes
========================================================================

   base      :      30000. kBytes
   nonl-proj :      82891. kBytes
   fftplans  :      15020. kBytes
   grid      :      12652. kBytes
   one-center:        124. kBytes
   HF        :        259. kBytes
   nonlr-proj:      29043. kBytes
   wavefun   :      77586. kBytes
 
  
  
 General timing and accounting informations for this job:
 ========================================================
  
                  Total CPU time used (sec):    16007.301
                            User time (sec):    15996.340
                          System time (sec):       10.961
                         Elapsed time (sec):    16036.742
  
                   Maximum memory used (kb):      383720.
                   Average memory used (kb):           0.
  
                          Minor page faults:       145849
                          Major page faults:            0
                 Voluntary context switches:          930
