       N       E                     dE             d eps       ncg     rms          ort
DAV:   1     0.485591485543E+04    0.48559E+04   -0.15913E+05 42328   0.709E+03
DAV:   2     0.132669065321E+04   -0.35292E+04   -0.34528E+04 42328   0.210E+03
DAV:   3     0.383845963942E+03   -0.94284E+03   -0.91565E+03 42328   0.502E+02
DAV:   4     0.208804619434E+03   -0.17504E+03   -0.16548E+03 42328   0.206E+02
DAV:   5     0.188948809268E+03   -0.19856E+02   -0.18970E+02 42328   0.650E+01
SDA:   6     0.184041291320E+03   -0.49075E+01   -0.18970E+02 42328   0.491E+04 0.000E+00
CGA:   7     0.757377276130E+01   -0.17647E+03   -0.47522E+03 42328   0.397E+03-0.900E+03
CGA:   8    -0.311141091746E+02   -0.38688E+02   -0.33746E+02 42328   0.238E+02 0.347E+02
CGA:   9    -0.344466505226E+02   -0.33325E+01   -0.32821E+01 42328   0.138E+02-0.440E-01
CGA:  10    -0.370407972140E+02   -0.25941E+01   -0.25923E+01 42328   0.634E+01 0.721E+00
CGA:  11    -0.379295551319E+02   -0.88876E+00   -0.91442E+00 42328   0.152E+01 0.795E-01
CGA:  12    -0.383098963253E+02   -0.38034E+00   -0.38027E+00 42328   0.909E+00-0.507E-03
CGA:  13    -0.384950112638E+02   -0.18511E+00   -0.18513E+00 42328   0.245E+00-0.147E-02
CGA:  14    -0.385454088418E+02   -0.50398E-01   -0.50349E-01 42328   0.112E+00 0.206E-02
CGA:  15    -0.385720966890E+02   -0.26688E-01   -0.26611E-01 42328   0.393E-01 0.162E-02
CGA:  16    -0.385807643798E+02   -0.86677E-02   -0.86459E-02 42328   0.125E-01 0.830E-03
CGA:  17    -0.385843480740E+02   -0.35837E-02   -0.35607E-02 42328   0.483E-02 0.259E-03
CGA:  18    -0.385857124862E+02   -0.13644E-02   -0.13918E-02 42328   0.201E-02-0.327E-03
