 vasp.5.3.5 31Mar14 (build Apr 15 2015 10:45:18) complex                        
  
 executed on             LinuxIFC date 2016.02.23  10:09:43
 running on  256 total cores
 distrk:  each k-point on   16 cores,   16 groups
 distr:  one band on NCORES_PER_BAND=   4 cores,    4 groups


--------------------------------------------------------------------------------------------------------


 INCAR:
 POTCAR:    PAW_PBE Cu_pv 06Sep2000               
 POTCAR:    PAW_PBE Zn 06Sep2000                  
 POTCAR:    PAW_PBE Sn_d 06Sep2000                
 POTCAR:    PAW_PBE S 06Sep2000                   

 ----------------------------------------------------------------------------- 
|                                                                             |
|           W    W    AA    RRRRR   N    N  II  N    N   GGGG   !!!           |
|           W    W   A  A   R    R  NN   N  II  NN   N  G    G  !!!           |
|           W    W  A    A  R    R  N N  N  II  N N  N  G       !!!           |
|           W WW W  AAAAAA  RRRRR   N  N N  II  N  N N  G  GGG   !            |
|           WW  WW  A    A  R   R   N   NN  II  N   NN  G    G                |
|           W    W  A    A  R    R  N    N  II  N    N   GGGG   !!!           |
|                                                                             |
|      For optimal performance we recommend to set                            |
|        NCORE= 4 - approx SQRT( number of cores)                             |
|      NCORE specifies how many cores store one orbital (NPAR=cpu/NCORE).     |
|      This setting can  greatly improve the performance of VASP for DFT.     |
|      The default, NPAR=number of cores might be grossly inefficient         |
|      on modern multi-core architectures or massively parallel machines.     |
|      Do your own testing !!!!                                               |
|      Unfortunately you need to use the default for GW and RPA calculations. |
|      (for HF NCORE is supported but not extensively tested yet)             |
|                                                                             |
 ----------------------------------------------------------------------------- 


 ----------------------------------------------------------------------------- 
|                                                                             |
|           W    W    AA    RRRRR   N    N  II  N    N   GGGG   !!!           |
|           W    W   A  A   R    R  NN   N  II  NN   N  G    G  !!!           |
|           W    W  A    A  R    R  N N  N  II  N N  N  G       !!!           |
|           W WW W  AAAAAA  RRRRR   N  N N  II  N  N N  G  GGG   !            |
|           WW  WW  A    A  R   R   N   NN  II  N   NN  G    G                |
|           W    W  A    A  R    R  N    N  II  N    N   GGGG   !!!           |
|                                                                             |
|      You have enabled k-point parallelism (KPAR>1).                         |
|      This developmental code was originally  written by Paul Kent at ORNL,  |
|      and carefully double checked in Vienna.                                |
|      GW as well as linear response parallelism added by Martijn Marsman     |
|      and Georg Kresse.                                                      |
|      Carefully verify results versus KPAR=1.                                |
|      Report problems to Paul Kent and Vienna.                               |
|                                                                             |
 ----------------------------------------------------------------------------- 


 ----------------------------------------------------------------------------- 
|                                                                             |
|           W    W    AA    RRRRR   N    N  II  N    N   GGGG   !!!           |
|           W    W   A  A   R    R  NN   N  II  NN   N  G    G  !!!           |
|           W    W  A    A  R    R  N N  N  II  N N  N  G       !!!           |
|           W WW W  AAAAAA  RRRRR   N  N N  II  N  N N  G  GGG   !            |
|           WW  WW  A    A  R   R   N   NN  II  N   NN  G    G                |
|           W    W  A    A  R    R  N    N  II  N    N   GGGG   !!!           |
|                                                                             |
|      You have selected ISYM=2 for HF type calculation. This will symmetrize |
|      the charge density but not the exchange potential.                     |
|      I suggest to use ISYM=3 instead. This uses symmetry to obtain          |
|      the orbitals at all k-points in the Brillouine zone, but does not      |
|      apply symmetry to the Hartree potential directly.                      |
|      The resultant charge might have lower symmetry than the crystal,       |
|      but at least, Hartree and exchange are fully compatible.               |
|                                                                             |
 ----------------------------------------------------------------------------- 

 POTCAR:    PAW_PBE Cu_pv 06Sep2000               
   VRHFIN =Cu: d10 p1                                                           
   LEXCH  = PE                                                                  
   EATOM  =  4120.1201 eV,  302.8203 Ry                                         
                                                                                
   TITEL  = PAW_PBE Cu_pv 06Sep2000                                             
   LULTRA =        F    use ultrasoft PP ?                                      
   IUNSCR =        1    unscreen: 0-lin 1-nonlin 2-no                           
   RPACOR =    1.500    partial core radius                                     
   POMASS =   63.546; ZVAL   =   17.000    mass and valenz                      
   RCORE  =    2.000    outmost cutoff radius                                   
   RWIGS  =    2.000; RWIGS  =    1.058    wigner-seitz radius (au A)           
   ENMAX  =  368.648; ENMIN  =  276.486 eV                                      
   RCLOC  =    1.304    cutoff for local pot                                    
   LCOR   =        T    correct aug charges                                     
   LPAW   =        T    paw PP                                                  
   EAUG   =  758.233                                                            
   DEXC   =    0.000                                                            
   RMAX   =    2.046    core radius for proj-oper                               
   RAUG   =    1.300    factor for augmentation sphere                          
   RDEP   =    2.025    radius for radial grids                                 
   RDEPT  =    1.558    core radius for aug-charge                              
                                                                                
   Atomic configuration                                                         
    8 entries                                                                   
     n  l   j            E        occ.                                          
     1  0  0.50     -8850.2467   2.0000                                         
     2  0  0.50     -1062.3498   2.0000                                         
     2  1  1.50      -916.8226   6.0000                                         
     3  0  0.50      -114.6929   2.0000                                         
     3  1  1.50       -72.1325   6.0000                                         
     3  2  2.50        -5.0394  10.0000                                         
     4  0  0.50        -4.6097   1.0000                                         
     4  3  2.50        -1.3606   0.0000                                         
   Description                                                                  
     l       E           TYP  RCUT    TYP  RCUT                                 
     1    -72.1324777     23  1.700                                             
     1     -1.3605826     23  1.700                                             
     2     -5.0393776     23  2.000                                             
     2     -6.3999602     23  2.000                                             
     0     -4.6097062     23  1.800                                             
     0     14.1620818     23  1.800                                             
  local pseudopotential read in
  partial core-charges read in
  partial kinetic energy density read in
  atomic valenz-charges read in
  non local Contribution for L=           1  read in
    real space projection operators read in
  non local Contribution for L=           1  read in
    real space projection operators read in
  non local Contribution for L=           2  read in
    real space projection operators read in
  non local Contribution for L=           2  read in
    real space projection operators read in
  non local Contribution for L=           0  read in
    real space projection operators read in
  non local Contribution for L=           0  read in
    real space projection operators read in
    PAW grid and wavefunctions read in
 
   number of l-projection  operators is LMAX  =           6
   number of lm-projection operators is LMMAX =          18
 
 POTCAR:    PAW_PBE Zn 06Sep2000                  
   VRHFIN =Zn: d10 p2                                                           
   LEXCH  = PE                                                                  
   EATOM  =  1748.8345 eV,  128.5357 Ry                                         
                                                                                
   TITEL  = PAW_PBE Zn 06Sep2000                                                
   LULTRA =        F    use ultrasoft PP ?                                      
   IUNSCR =        1    unscreen: 0-lin 1-nonlin 2-no                           
   RPACOR =    2.000    partial core radius                                     
   POMASS =   65.390; ZVAL   =   12.000    mass and valenz                      
   RCORE  =    2.300    outmost cutoff radius                                   
   RWIGS  =    2.400; RWIGS  =    1.270    wigner-seitz radius (au A)           
   ENMAX  =  276.723; ENMIN  =  207.542 eV                                      
   RCLOC  =    1.828    cutoff for local pot                                    
   LCOR   =        T    correct aug charges                                     
   LPAW   =        T    paw PP                                                  
   EAUG   =  575.892                                                            
   DEXC   =    0.000                                                            
   RMAX   =    2.347    core radius for proj-oper                               
   RAUG   =    1.300    factor for augmentation sphere                          
   RDEP   =    2.324    radius for radial grids                                 
   RDEPT  =    1.788    core radius for aug-charge                              
                                                                                
   Atomic configuration                                                         
    9 entries                                                                   
     n  l   j            E        occ.                                          
     1  0  0.50     -9524.6913   2.0000                                         
     2  0  0.50     -1158.1882   2.0000                                         
     2  1  1.50     -1003.8506   6.0000                                         
     3  0  0.50      -129.2194   2.0000                                         
     3  1  1.50       -83.3890   6.0000                                         
     3  2  2.50       -10.1410  10.0000                                         
     4  0  0.50        -5.9785   2.0000                                         
     4  1  0.50        -4.0817   0.0000                                         
     4  3  2.50        -1.3606   0.0000                                         
   Description                                                                  
     l       E           TYP  RCUT    TYP  RCUT                                 
     2    -10.1410010     23  2.300                                             
     2    -11.5015836     23  2.300                                             
     0     -5.9785163     23  2.300                                             
     0      1.1858015     23  2.300                                             
     1     -2.7211652     23  2.300                                             
     1     13.2444212     23  2.300                                             
  local pseudopotential read in
  partial core-charges read in
  partial kinetic energy density read in
  atomic valenz-charges read in
  non local Contribution for L=           2  read in
    real space projection operators read in
  non local Contribution for L=           2  read in
    real space projection operators read in
  non local Contribution for L=           0  read in
    real space projection operators read in
  non local Contribution for L=           0  read in
    real space projection operators read in
  non local Contribution for L=           1  read in
    real space projection operators read in
  non local Contribution for L=           1  read in
    real space projection operators read in
    PAW grid and wavefunctions read in
 
   number of l-projection  operators is LMAX  =           6
   number of lm-projection operators is LMMAX =          18
 
 POTCAR:    PAW_PBE Sn_d 06Sep2000                
   VRHFIN =Sn: s2p2                                                             
   LEXCH  = PE                                                                  
   EATOM  =  1893.1092 eV,  139.1396 Ry                                         
                                                                                
   TITEL  = PAW_PBE Sn_d 06Sep2000                                              
   LULTRA =        F    use ultrasoft PP ?                                      
   IUNSCR =        1    unscreen: 0-lin 1-nonlin 2-no                           
   RPACOR =    2.300    partial core radius                                     
   POMASS =  118.710; ZVAL   =   14.000    mass and valenz                      
   RCORE  =    2.500    outmost cutoff radius                                   
   RWIGS  =    2.960; RWIGS  =    1.566    wigner-seitz radius (au A)           
   ENMAX  =  241.083; ENMIN  =  180.812 eV                                      
   ICORE  =        3    local potential                                         
   LCOR   =        T    correct aug charges                                     
   LPAW   =        T    paw PP                                                  
   EAUG   =  439.825                                                            
   DEXC   =    0.000                                                            
   RMAX   =    2.560    core radius for proj-oper                               
   RAUG   =    1.300    factor for augmentation sphere                          
   RDEP   =    2.659    radius for radial grids                                 
   RDEPT  =    2.046    core radius for aug-charge                              
                                                                                
   Atomic configuration                                                         
   12 entries                                                                   
     n  l   j            E        occ.                                          
     1  0  0.50    -29007.2859   2.0000                                         
     2  0  0.50     -4378.8056   2.0000                                         
     2  1  1.50     -3930.4293   6.0000                                         
     3  0  0.50      -845.0264   2.0000                                         
     3  1  1.50      -698.5725   6.0000                                         
     3  2  2.50      -473.2839  10.0000                                         
     4  0  0.50      -133.9036   2.0000                                         
     4  1  1.50       -89.6752   6.0000                                         
     4  2  2.50       -25.8375  10.0000                                         
     5  0  0.50       -10.5484   2.0000                                         
     5  1  0.50        -3.6940   2.0000                                         
     4  3  2.50        -2.7416   0.0000                                         
   Description                                                                  
     l       E           TYP  RCUT    TYP  RCUT                                 
     2    -25.8374624     23  2.500                                             
     2     -5.4423304     23  2.500                                             
     0    -10.5483727     23  2.500                                             
     0     13.6058260     23  2.500                                             
     1     -3.6939829     23  2.500                                             
     1      1.9821976     23  2.500                                             
     3     -1.3605826      7  2.500                                             
  local pseudopotential read in
  partial core-charges read in
  partial kinetic energy density read in
  atomic valenz-charges read in
  non local Contribution for L=           2  read in
    real space projection operators read in
  non local Contribution for L=           2  read in
    real space projection operators read in
  non local Contribution for L=           0  read in
    real space projection operators read in
  non local Contribution for L=           0  read in
    real space projection operators read in
  non local Contribution for L=           1  read in
    real space projection operators read in
  non local Contribution for L=           1  read in
    real space projection operators read in
    PAW grid and wavefunctions read in
 
   number of l-projection  operators is LMAX  =           6
   number of lm-projection operators is LMMAX =          18
 
 POTCAR:    PAW_PBE S 06Sep2000                   
   VRHFIN =S : s2p4                                                             
   LEXCH  = PE                                                                  
   EATOM  =   276.8230 eV,   20.3459 Ry                                         
                                                                                
   TITEL  = PAW_PBE S 06Sep2000                                                 
   LULTRA =        F    use ultrasoft PP ?                                      
   IUNSCR =        1    unscreen: 0-lin 1-nonlin 2-no                           
   RPACOR =    1.500    partial core radius                                     
   POMASS =   32.066; ZVAL   =    6.000    mass and valenz                      
   RCORE  =    1.900    outmost cutoff radius                                   
   RWIGS  =    2.200; RWIGS  =    1.164    wigner-seitz radius (au A)           
   ENMAX  =  258.689; ENMIN  =  194.016 eV                                      
   ICORE  =        2    local potential                                         
   LCOR   =        T    correct aug charges                                     
   LPAW   =        T    paw PP                                                  
   EAUG   =  335.092                                                            
   DEXC   =    0.000                                                            
   RMAX   =    1.942    core radius for proj-oper                               
   RAUG   =    1.300    factor for augmentation sphere                          
   RDEP   =    1.954    radius for radial grids                                 
   RDEPT  =    1.744    core radius for aug-charge                              
                                                                                
   Atomic configuration                                                         
    6 entries                                                                   
     n  l   j            E        occ.                                          
     1  0  0.50     -2405.8406   2.0000                                         
     2  0  0.50      -211.7007   2.0000                                         
     2  1  1.50      -156.4958   6.0000                                         
     3  0  0.50       -17.2562   2.0000                                         
     3  1  0.50        -7.0085   4.0000                                         
     3  2  1.50        -6.8029   0.0000                                         
   Description                                                                  
     l       E           TYP  RCUT    TYP  RCUT                                 
     0    -17.2561641     23  1.900                                             
     0    -15.8743224     23  1.900                                             
     1     -7.0085400     23  1.900                                             
     1     -2.7779785     23  1.900                                             
     2     -6.8029130     23  1.900                                             
  local pseudopotential read in
  partial core-charges read in
  partial kinetic energy density read in
  atomic valenz-charges read in
  non local Contribution for L=           0  read in
    real space projection operators read in
  non local Contribution for L=           0  read in
    real space projection operators read in
  non local Contribution for L=           1  read in
    real space projection operators read in
  non local Contribution for L=           1  read in
    real space projection operators read in
    PAW grid and wavefunctions read in
 
   number of l-projection  operators is LMAX  =           4
   number of lm-projection operators is LMMAX =           8
 
  PAW_PBE Cu_pv 06Sep2000               :
 energy of atom  1       EATOM=-4120.1201
 kinetic energy error for atom=    0.0655 (will be added to EATOM!!)
  PAW_PBE Zn 06Sep2000                  :
 energy of atom  2       EATOM=-1748.8345
 kinetic energy error for atom=    0.0029 (will be added to EATOM!!)
  PAW_PBE Sn_d 06Sep2000                :
 energy of atom  3       EATOM=-1893.1092
 kinetic energy error for atom=    0.0032 (will be added to EATOM!!)
  PAW_PBE S 06Sep2000                   :
 energy of atom  4       EATOM= -276.8230
 kinetic energy error for atom=    0.0020 (will be added to EATOM!!)
 
 
 POSCAR: Cu2ZnSnS4 (LaFond 2014, 293 K)          
  positions in direct lattice
  velocities in cartesian coordinates
 exchange correlation table for  LEXCH =        8
   RHO(1)=    0.500       N(1)  =     2000
   RHO(2)=  100.500       N(2)  =     4000
 


--------------------------------------------------------------------------------------------------------


 ion  position               nearest neighbor table
   1  0.000  0.000  0.000-   5 2.32   6 2.32   7 2.32   8 2.32
   2  0.750  0.250  0.500-   8 2.32   6 2.32   7 2.32   5 2.32
   3  0.500  0.500  0.000-   8 2.35   6 2.35   7 2.35   5 2.35
   4  0.250  0.750  0.500-   8 2.42   6 2.42   7 2.42   5 2.42
   5  0.118  0.134  0.244-   1 2.32   2 2.32   3 2.35   4 2.42
   6  0.639  0.623  0.244-   1 2.32   2 2.32   3 2.35   4 2.42
   7  0.866  0.361  0.756-   1 2.32   2 2.32   3 2.35   4 2.42
   8  0.377  0.882  0.756-   1 2.32   2 2.32   3 2.35   4 2.42
 
  LATTYP: Found a body centered tetragonal cell.
 ALAT       =     5.4353000000
 C/A-ratio  =     1.9955400000
  
  Lattice vectors:
  
 A1 = (   2.7176500000,  -2.7176500000,   5.4231792810)
 A2 = (  -2.7176500000,   2.7176500000,   5.4231792810)
 A3 = (  -2.7176500000,  -2.7176500000,  -5.4231792810)


Analysis of symmetry for initial positions (statically):
=====================================================================
 Subroutine PRICEL returns:
 Original cell was already a primitive cell.
 

 Routine SETGRP: Setting up the symmetry group for a 
 body centered tetragonal supercell.


 Subroutine GETGRP returns: Found  4 space group operations
 (whereof  4 operations were pure point group operations)
 out of a pool of 16 trial point group operations.


The static configuration has the point symmetry S_4 .


Analysis of symmetry for dynamics (positions and initial velocities):
=====================================================================
 Subroutine PRICEL returns:
 Original cell was already a primitive cell.
 

 Routine SETGRP: Setting up the symmetry group for a 
 body centered tetragonal supercell.


 Subroutine GETGRP returns: Found  4 space group operations
 (whereof  4 operations were pure point group operations)
 out of a pool of 16 trial point group operations.


The dynamic configuration has the point symmetry S_4 .
 
 
 KPOINTS: Automatically generated mesh            
  k-points in reciprocal lattice
Space group operators:
 irot       det(A)        alpha          n_x          n_y          n_z        tau_x        tau_y        tau_z
    1     1.000000     0.000000     1.000000     0.000000     0.000000     0.000000     0.000000     0.000000
    2    -1.000000    90.000000     0.000000     0.000000    -1.000000     0.000000     0.000000     0.000000
    3     1.000000   180.000000     0.000000     0.000000     1.000000     0.000000     0.000000     0.000000
    4    -1.000000    90.000000     0.000000     0.000000     1.000000     0.000000     0.000000     0.000000

 ----------------------------------------------------------------------------- 
|                                                                             |
|           W    W    AA    RRRRR   N    N  II  N    N   GGGG   !!!           |
|           W    W   A  A   R    R  NN   N  II  NN   N  G    G  !!!           |
|           W    W  A    A  R    R  N N  N  II  N N  N  G       !!!           |
|           W WW W  AAAAAA  RRRRR   N  N N  II  N  N N  G  GGG   !            |
|           WW  WW  A    A  R   R   N   NN  II  N   NN  G    G                |
|           W    W  A    A  R    R  N    N  II  N    N   GGGG   !!!           |
|                                                                             |
|      Your generating k-point grid is not commensurate to the symmetry       |
|      of the lattice.  This can cause   slow convergence with respect        |
|      to k-points for HF type calculations                                   |
|      suggested SOLUTIONS:                                                   |
|       ) if not already the case, use automatic k-point generation           |
|       ) shift your grid to Gamma (G) (e.g. required for hex or fcc lattice) |
|                                                                             |
 ----------------------------------------------------------------------------- 

 
 Subroutine IBZKPT_HF returns following result:
 ==============================================
 
 Found   1099 k-points in 1st BZ
 the following   1099 k-points will be used (e.g. in the exchange kernel)
 Following reciprocal coordinates:   # in IRBZ
  0.000000  0.000000  0.000000       1 t-inv F
  0.166667  0.000000  0.000000       2 t-inv F
  0.333333  0.000000  0.000000       3 t-inv F
  0.500000  0.000000  0.000000       4 t-inv F
  0.166667  0.166667  0.000000       5 t-inv F
  0.333333  0.166667  0.000000       6 t-inv F
  0.500000  0.166667  0.000000       7 t-inv F
 -0.333333  0.166667  0.000000       8 t-inv F
 -0.166667  0.166667  0.000000       9 t-inv F
  0.166667  0.333333  0.000000      10 t-inv F
  0.333333  0.333333  0.000000      11 t-inv F
  0.500000  0.333333  0.000000      12 t-inv F
 -0.333333  0.333333  0.000000      13 t-inv F
 -0.166667  0.333333  0.000000      14 t-inv F
  0.166667  0.500000  0.000000      15 t-inv F
  0.333333  0.500000  0.000000      16 t-inv F
  0.500000  0.500000  0.000000      17 t-inv F
  0.000000  0.000000  0.250000      18 t-inv F
  0.166667  0.000000  0.250000      19 t-inv F
  0.333333  0.000000  0.250000      20 t-inv F
  0.500000  0.000000  0.250000      21 t-inv F
 -0.333333  0.000000  0.250000      22 t-inv F
 -0.166667  0.000000  0.250000      23 t-inv F
  0.166667  0.166667  0.250000      24 t-inv F
  0.333333  0.166667  0.250000      25 t-inv F
  0.500000  0.166667  0.250000      26 t-inv F
 -0.333333  0.166667  0.250000      27 t-inv F
 -0.166667  0.166667  0.250000      28 t-inv F
  0.166667  0.333333  0.250000      29 t-inv F
  0.333333  0.333333  0.250000      30 t-inv F
  0.500000  0.333333  0.250000      31 t-inv F
 -0.333333  0.333333  0.250000      32 t-inv F
 -0.166667  0.333333  0.250000      33 t-inv F
  0.166667  0.500000  0.250000      34 t-inv F
  0.333333  0.500000  0.250000      35 t-inv F
  0.500000  0.500000  0.250000      36 t-inv F
  0.166667 -0.333333  0.250000      37 t-inv F
 -0.333333 -0.333333  0.250000      38 t-inv F
 -0.166667 -0.333333  0.250000      39 t-inv F
  0.333333 -0.166667  0.250000      40 t-inv F
 -0.333333 -0.166667  0.250000      41 t-inv F
 -0.166667 -0.166667  0.250000      42 t-inv F
  0.000000  0.000000  0.500000      43 t-inv F
  0.166667  0.000000  0.500000      44 t-inv F
  0.333333  0.000000  0.500000      45 t-inv F
  0.166667  0.166667  0.500000      46 t-inv F
 -0.333333  0.166667  0.500000      47 t-inv F
 -0.166667  0.166667  0.500000      48 t-inv F
  0.333333  0.333333  0.500000      49 t-inv F
 -0.333333  0.333333  0.500000      50 t-inv F
 -0.166667  0.333333  0.500000      51 t-inv F
  0.000000  0.000000  0.000000      52 t-inv F
  0.000000  0.005000  0.000000      53 t-inv F
  0.000000  0.010000  0.000000      54 t-inv F
  0.000000  0.015000  0.000000      55 t-inv F
  0.000000  0.020000  0.000000      56 t-inv F
  0.000000  0.025000  0.000000      57 t-inv F
  0.000000  0.030000  0.000000      58 t-inv F
  0.000000  0.035000  0.000000      59 t-inv F
  0.000000  0.040000  0.000000      60 t-inv F
  0.000000  0.045000  0.000000      61 t-inv F
  0.000000  0.050000  0.000000      62 t-inv F
  0.000000  0.055000  0.000000      63 t-inv F
  0.000000  0.060000  0.000000      64 t-inv F
  0.000000  0.065000  0.000000      65 t-inv F
  0.000000  0.070000  0.000000      66 t-inv F
  0.000000  0.075000  0.000000      67 t-inv F
  0.000000  0.080000  0.000000      68 t-inv F
  0.000000  0.085000  0.000000      69 t-inv F
  0.000000  0.090000  0.000000      70 t-inv F
  0.000000  0.095000  0.000000      71 t-inv F
  0.000000  0.100000  0.000000      72 t-inv F
  0.000000  0.105000  0.000000      73 t-inv F
  0.000000  0.110000  0.000000      74 t-inv F
  0.000000  0.115000  0.000000      75 t-inv F
  0.000000  0.120000  0.000000      76 t-inv F
  0.000000  0.125000  0.000000      77 t-inv F
  0.000000  0.130000  0.000000      78 t-inv F
  0.000000  0.135000  0.000000      79 t-inv F
  0.000000  0.140000  0.000000      80 t-inv F
  0.000000  0.145000  0.000000      81 t-inv F
  0.000000  0.150000  0.000000      82 t-inv F
  0.000000  0.155000  0.000000      83 t-inv F
  0.000000  0.160000  0.000000      84 t-inv F
  0.000000  0.165000  0.000000      85 t-inv F
  0.000000  0.170000  0.000000      86 t-inv F
  0.000000  0.175000  0.000000      87 t-inv F
  0.000000  0.180000  0.000000      88 t-inv F
  0.000000  0.185000  0.000000      89 t-inv F
  0.000000  0.190000  0.000000      90 t-inv F
  0.000000  0.195000  0.000000      91 t-inv F
  0.000000  0.200000  0.000000      92 t-inv F
  0.000000  0.205000  0.000000      93 t-inv F
  0.000000  0.210000  0.000000      94 t-inv F
  0.000000  0.215000  0.000000      95 t-inv F
  0.000000  0.220000  0.000000      96 t-inv F
  0.000000  0.225000  0.000000      97 t-inv F
  0.000000  0.230000  0.000000      98 t-inv F
  0.000000  0.235000  0.000000      99 t-inv F
  0.000000  0.240000  0.000000     100 t-inv F
  0.000000  0.245000  0.000000     101 t-inv F
  0.000000  0.250000  0.000000     102 t-inv F
  0.000000  0.255000  0.000000     103 t-inv F
  0.000000  0.260000  0.000000     104 t-inv F
  0.000000  0.265000  0.000000     105 t-inv F
  0.000000  0.270000  0.000000     106 t-inv F
  0.000000  0.275000  0.000000     107 t-inv F
  0.000000  0.280000  0.000000     108 t-inv F
  0.000000  0.285000  0.000000     109 t-inv F
  0.000000  0.290000  0.000000     110 t-inv F
  0.000000  0.295000  0.000000     111 t-inv F
  0.000000  0.300000  0.000000     112 t-inv F
  0.000000  0.305000  0.000000     113 t-inv F
  0.000000  0.310000  0.000000     114 t-inv F
  0.000000  0.315000  0.000000     115 t-inv F
  0.000000  0.320000  0.000000     116 t-inv F
  0.000000  0.325000  0.000000     117 t-inv F
  0.000000  0.330000  0.000000     118 t-inv F
  0.000000  0.335000  0.000000     119 t-inv F
  0.000000  0.340000  0.000000     120 t-inv F
  0.000000  0.345000  0.000000     121 t-inv F
  0.000000  0.350000  0.000000     122 t-inv F
  0.000000  0.355000  0.000000     123 t-inv F
  0.000000  0.360000  0.000000     124 t-inv F
  0.000000  0.365000  0.000000     125 t-inv F
  0.000000  0.370000  0.000000     126 t-inv F
  0.000000  0.375000  0.000000     127 t-inv F
  0.000000  0.380000  0.000000     128 t-inv F
  0.000000  0.385000  0.000000     129 t-inv F
  0.000000  0.390000  0.000000     130 t-inv F
  0.000000  0.395000  0.000000     131 t-inv F
  0.000000  0.400000  0.000000     132 t-inv F
  0.000000  0.405000  0.000000     133 t-inv F
  0.000000  0.410000  0.000000     134 t-inv F
  0.000000  0.415000  0.000000     135 t-inv F
  0.000000  0.420000  0.000000     136 t-inv F
  0.000000  0.425000  0.000000     137 t-inv F
  0.000000  0.430000  0.000000     138 t-inv F
  0.000000  0.435000  0.000000     139 t-inv F
  0.000000  0.440000  0.000000     140 t-inv F
  0.000000  0.445000  0.000000     141 t-inv F
  0.000000  0.450000  0.000000     142 t-inv F
  0.000000  0.455000  0.000000     143 t-inv F
  0.000000  0.460000  0.000000     144 t-inv F
  0.000000  0.465000  0.000000     145 t-inv F
  0.000000  0.470000  0.000000     146 t-inv F
  0.000000  0.475000  0.000000     147 t-inv F
  0.000000  0.480000  0.000000     148 t-inv F
  0.000000  0.485000  0.000000     149 t-inv F
  0.000000  0.490000  0.000000     150 t-inv F
  0.000000  0.495000  0.000000     151 t-inv F
  0.000000  0.500000  0.000000     152 t-inv F
  0.005000  0.500000  0.000000     153 t-inv F
  0.010000  0.500000  0.000000     154 t-inv F
  0.015000  0.500000  0.000000     155 t-inv F
  0.020000  0.500000  0.000000     156 t-inv F
  0.025000  0.500000  0.000000     157 t-inv F
  0.030000  0.500000  0.000000     158 t-inv F
  0.035000  0.500000  0.000000     159 t-inv F
  0.040000  0.500000  0.000000     160 t-inv F
  0.045000  0.500000  0.000000     161 t-inv F
  0.050000  0.500000  0.000000     162 t-inv F
  0.055000  0.500000  0.000000     163 t-inv F
  0.060000  0.500000  0.000000     164 t-inv F
  0.065000  0.500000  0.000000     165 t-inv F
  0.070000  0.500000  0.000000     166 t-inv F
  0.075000  0.500000  0.000000     167 t-inv F
  0.080000  0.500000  0.000000     168 t-inv F
  0.085000  0.500000  0.000000     169 t-inv F
  0.090000  0.500000  0.000000     170 t-inv F
  0.095000  0.500000  0.000000     171 t-inv F
  0.100000  0.500000  0.000000     172 t-inv F
  0.105000  0.500000  0.000000     173 t-inv F
  0.110000  0.500000  0.000000     174 t-inv F
  0.115000  0.500000  0.000000     175 t-inv F
  0.120000  0.500000  0.000000     176 t-inv F
  0.125000  0.500000  0.000000     177 t-inv F
  0.130000  0.500000  0.000000     178 t-inv F
  0.135000  0.500000  0.000000     179 t-inv F
  0.140000  0.500000  0.000000     180 t-inv F
  0.145000  0.500000  0.000000     181 t-inv F
  0.150000  0.500000  0.000000     182 t-inv F
  0.155000  0.500000  0.000000     183 t-inv F
  0.160000  0.500000  0.000000     184 t-inv F
  0.165000  0.500000  0.000000     185 t-inv F
  0.170000  0.500000  0.000000     186 t-inv F
  0.175000  0.500000  0.000000     187 t-inv F
  0.180000  0.500000  0.000000     188 t-inv F
  0.185000  0.500000  0.000000     189 t-inv F
  0.190000  0.500000  0.000000     190 t-inv F
  0.195000  0.500000  0.000000     191 t-inv F
  0.200000  0.500000  0.000000     192 t-inv F
  0.205000  0.500000  0.000000     193 t-inv F
  0.210000  0.500000  0.000000     194 t-inv F
  0.215000  0.500000  0.000000     195 t-inv F
  0.220000  0.500000  0.000000     196 t-inv F
  0.225000  0.500000  0.000000     197 t-inv F
  0.230000  0.500000  0.000000     198 t-inv F
  0.235000  0.500000  0.000000     199 t-inv F
  0.240000  0.500000  0.000000     200 t-inv F
  0.245000  0.500000  0.000000     201 t-inv F
  0.250000  0.500000  0.000000     202 t-inv F
  0.255000  0.500000  0.000000     203 t-inv F
  0.260000  0.500000  0.000000     204 t-inv F
  0.265000  0.500000  0.000000     205 t-inv F
  0.270000  0.500000  0.000000     206 t-inv F
  0.275000  0.500000  0.000000     207 t-inv F
  0.280000  0.500000  0.000000     208 t-inv F
  0.285000  0.500000  0.000000     209 t-inv F
  0.290000  0.500000  0.000000     210 t-inv F
  0.295000  0.500000  0.000000     211 t-inv F
  0.300000  0.500000  0.000000     212 t-inv F
  0.305000  0.500000  0.000000     213 t-inv F
  0.310000  0.500000  0.000000     214 t-inv F
  0.315000  0.500000  0.000000     215 t-inv F
  0.320000  0.500000  0.000000     216 t-inv F
  0.325000  0.500000  0.000000     217 t-inv F
  0.330000  0.500000  0.000000     218 t-inv F
  0.335000  0.500000  0.000000     219 t-inv F
  0.340000  0.500000  0.000000     220 t-inv F
  0.345000  0.500000  0.000000     221 t-inv F
  0.350000  0.500000  0.000000     222 t-inv F
  0.355000  0.500000  0.000000     223 t-inv F
  0.360000  0.500000  0.000000     224 t-inv F
  0.365000  0.500000  0.000000     225 t-inv F
  0.370000  0.500000  0.000000     226 t-inv F
  0.375000  0.500000  0.000000     227 t-inv F
  0.380000  0.500000  0.000000     228 t-inv F
  0.385000  0.500000  0.000000     229 t-inv F
  0.390000  0.500000  0.000000     230 t-inv F
  0.395000  0.500000  0.000000     231 t-inv F
  0.400000  0.500000  0.000000     232 t-inv F
  0.405000  0.500000  0.000000     233 t-inv F
  0.410000  0.500000  0.000000     234 t-inv F
  0.415000  0.500000  0.000000     235 t-inv F
  0.420000  0.500000  0.000000     236 t-inv F
  0.425000  0.500000  0.000000     237 t-inv F
  0.430000  0.500000  0.000000     238 t-inv F
  0.435000  0.500000  0.000000     239 t-inv F
  0.440000  0.500000  0.000000     240 t-inv F
  0.445000  0.500000  0.000000     241 t-inv F
  0.450000  0.500000  0.000000     242 t-inv F
  0.455000  0.500000  0.000000     243 t-inv F
  0.460000  0.500000  0.000000     244 t-inv F
  0.465000  0.500000  0.000000     245 t-inv F
  0.470000  0.500000  0.000000     246 t-inv F
  0.475000  0.500000  0.000000     247 t-inv F
  0.480000  0.500000  0.000000     248 t-inv F
  0.485000  0.500000  0.000000     249 t-inv F
  0.490000  0.500000  0.000000     250 t-inv F
  0.495000  0.500000  0.000000     251 t-inv F
  0.500000  0.500000  0.000000     252 t-inv F
  0.496454  0.496454  0.000000     253 t-inv F
  0.492908  0.492908  0.000000     254 t-inv F
  0.489362  0.489362  0.000000     255 t-inv F
  0.485816  0.485816  0.000000     256 t-inv F
  0.482270  0.482270  0.000000     257 t-inv F
  0.478723  0.478723  0.000000     258 t-inv F
  0.475177  0.475177  0.000000     259 t-inv F
  0.471631  0.471631  0.000000     260 t-inv F
  0.468085  0.468085  0.000000     261 t-inv F
  0.464539  0.464539  0.000000     262 t-inv F
  0.460993  0.460993  0.000000     263 t-inv F
  0.457447  0.457447  0.000000     264 t-inv F
  0.453901  0.453901  0.000000     265 t-inv F
  0.450355  0.450355  0.000000     266 t-inv F
  0.446809  0.446809  0.000000     267 t-inv F
  0.443262  0.443262  0.000000     268 t-inv F
  0.439716  0.439716  0.000000     269 t-inv F
  0.436170  0.436170  0.000000     270 t-inv F
  0.432624  0.432624  0.000000     271 t-inv F
  0.429078  0.429078  0.000000     272 t-inv F
  0.425532  0.425532  0.000000     273 t-inv F
  0.421986  0.421986  0.000000     274 t-inv F
  0.418440  0.418440  0.000000     275 t-inv F
  0.414894  0.414894  0.000000     276 t-inv F
  0.411348  0.411348  0.000000     277 t-inv F
  0.407801  0.407801  0.000000     278 t-inv F
  0.404255  0.404255  0.000000     279 t-inv F
  0.400709  0.400709  0.000000     280 t-inv F
  0.397163  0.397163  0.000000     281 t-inv F
  0.393617  0.393617  0.000000     282 t-inv F
  0.390071  0.390071  0.000000     283 t-inv F
  0.386525  0.386525  0.000000     284 t-inv F
  0.382979  0.382979  0.000000     285 t-inv F
  0.379433  0.379433  0.000000     286 t-inv F
  0.375887  0.375887  0.000000     287 t-inv F
  0.372340  0.372340  0.000000     288 t-inv F
  0.368794  0.368794  0.000000     289 t-inv F
  0.365248  0.365248  0.000000     290 t-inv F
  0.361702  0.361702  0.000000     291 t-inv F
  0.358156  0.358156  0.000000     292 t-inv F
  0.354610  0.354610  0.000000     293 t-inv F
  0.351064  0.351064  0.000000     294 t-inv F
  0.347518  0.347518  0.000000     295 t-inv F
  0.343972  0.343972  0.000000     296 t-inv F
  0.340426  0.340426  0.000000     297 t-inv F
  0.336879  0.336879  0.000000     298 t-inv F
  0.333333  0.333333  0.000000     299 t-inv F
  0.329787  0.329787  0.000000     300 t-inv F
  0.326241  0.326241  0.000000     301 t-inv F
  0.322695  0.322695  0.000000     302 t-inv F
  0.319149  0.319149  0.000000     303 t-inv F
  0.315603  0.315603  0.000000     304 t-inv F
  0.312057  0.312057  0.000000     305 t-inv F
  0.308511  0.308511  0.000000     306 t-inv F
  0.304965  0.304965  0.000000     307 t-inv F
  0.301418  0.301418  0.000000     308 t-inv F
  0.297872  0.297872  0.000000     309 t-inv F
  0.294326  0.294326  0.000000     310 t-inv F
  0.290780  0.290780  0.000000     311 t-inv F
  0.287234  0.287234  0.000000     312 t-inv F
  0.283688  0.283688  0.000000     313 t-inv F
  0.280142  0.280142  0.000000     314 t-inv F
  0.276596  0.276596  0.000000     315 t-inv F
  0.273050  0.273050  0.000000     316 t-inv F
  0.269504  0.269504  0.000000     317 t-inv F
  0.265957  0.265957  0.000000     318 t-inv F
  0.262411  0.262411  0.000000     319 t-inv F
  0.258865  0.258865  0.000000     320 t-inv F
  0.255319  0.255319  0.000000     321 t-inv F
  0.251773  0.251773  0.000000     322 t-inv F
  0.248227  0.248227  0.000000     323 t-inv F
  0.244681  0.244681  0.000000     324 t-inv F
  0.241135  0.241135  0.000000     325 t-inv F
  0.237589  0.237589  0.000000     326 t-inv F
  0.234043  0.234043  0.000000     327 t-inv F
  0.230496  0.230496  0.000000     328 t-inv F
  0.226950  0.226950  0.000000     329 t-inv F
  0.223404  0.223404  0.000000     330 t-inv F
  0.219858  0.219858  0.000000     331 t-inv F
  0.216312  0.216312  0.000000     332 t-inv F
  0.212766  0.212766  0.000000     333 t-inv F
  0.209220  0.209220  0.000000     334 t-inv F
  0.205674  0.205674  0.000000     335 t-inv F
  0.202128  0.202128  0.000000     336 t-inv F
  0.198582  0.198582  0.000000     337 t-inv F
  0.195035  0.195035  0.000000     338 t-inv F
  0.191489  0.191489  0.000000     339 t-inv F
  0.187943  0.187943  0.000000     340 t-inv F
  0.184397  0.184397  0.000000     341 t-inv F
  0.180851  0.180851  0.000000     342 t-inv F
  0.177305  0.177305  0.000000     343 t-inv F
  0.173759  0.173759  0.000000     344 t-inv F
  0.170213  0.170213  0.000000     345 t-inv F
  0.166667  0.166667  0.000000     346 t-inv F
  0.163121  0.163121  0.000000     347 t-inv F
  0.159574  0.159574  0.000000     348 t-inv F
  0.156028  0.156028  0.000000     349 t-inv F
  0.152482  0.152482  0.000000     350 t-inv F
  0.148936  0.148936  0.000000     351 t-inv F
  0.145390  0.145390  0.000000     352 t-inv F
  0.141844  0.141844  0.000000     353 t-inv F
  0.138298  0.138298  0.000000     354 t-inv F
  0.134752  0.134752  0.000000     355 t-inv F
  0.131206  0.131206  0.000000     356 t-inv F
  0.127660  0.127660  0.000000     357 t-inv F
  0.124114  0.124114  0.000000     358 t-inv F
  0.120567  0.120567  0.000000     359 t-inv F
  0.117021  0.117021  0.000000     360 t-inv F
  0.113475  0.113475  0.000000     361 t-inv F
  0.109929  0.109929  0.000000     362 t-inv F
  0.106383  0.106383  0.000000     363 t-inv F
  0.102837  0.102837  0.000000     364 t-inv F
  0.099291  0.099291  0.000000     365 t-inv F
  0.095745  0.095745  0.000000     366 t-inv F
  0.092199  0.092199  0.000000     367 t-inv F
  0.088652  0.088652  0.000000     368 t-inv F
  0.085106  0.085106  0.000000     369 t-inv F
  0.081560  0.081560  0.000000     370 t-inv F
  0.078014  0.078014  0.000000     371 t-inv F
  0.074468  0.074468  0.000000     372 t-inv F
  0.070922  0.070922  0.000000     373 t-inv F
  0.067376  0.067376  0.000000     374 t-inv F
  0.063830  0.063830  0.000000     375 t-inv F
  0.060284  0.060284  0.000000     376 t-inv F
  0.056738  0.056738  0.000000     377 t-inv F
  0.053192  0.053192  0.000000     378 t-inv F
  0.049645  0.049645  0.000000     379 t-inv F
  0.046099  0.046099  0.000000     380 t-inv F
  0.042553  0.042553  0.000000     381 t-inv F
  0.039007  0.039007  0.000000     382 t-inv F
  0.035461  0.035461  0.000000     383 t-inv F
  0.031915  0.031915  0.000000     384 t-inv F
  0.028369  0.028369  0.000000     385 t-inv F
  0.024823  0.024823  0.000000     386 t-inv F
  0.021277  0.021277  0.000000     387 t-inv F
  0.017730  0.017730  0.000000     388 t-inv F
  0.014184  0.014184  0.000000     389 t-inv F
  0.010638  0.010638  0.000000     390 t-inv F
  0.007092  0.007092  0.000000     391 t-inv F
  0.003546  0.003546  0.000000     392 t-inv F
  0.000000  0.000000  0.000000     393 t-inv F
  0.000000  0.000000  0.006173     394 t-inv F
  0.000000  0.000000  0.012346     395 t-inv F
  0.000000  0.000000  0.018519     396 t-inv F
  0.000000  0.000000  0.024691     397 t-inv F
  0.000000  0.000000  0.030864     398 t-inv F
  0.000000  0.000000  0.037037     399 t-inv F
  0.000000  0.000000  0.043210     400 t-inv F
  0.000000  0.000000  0.049383     401 t-inv F
  0.000000  0.000000  0.055556     402 t-inv F
  0.000000  0.000000  0.061728     403 t-inv F
  0.000000  0.000000  0.067901     404 t-inv F
  0.000000  0.000000  0.074074     405 t-inv F
  0.000000  0.000000  0.080247     406 t-inv F
  0.000000  0.000000  0.086420     407 t-inv F
  0.000000  0.000000  0.092593     408 t-inv F
  0.000000  0.000000  0.098765     409 t-inv F
  0.000000  0.000000  0.104938     410 t-inv F
  0.000000  0.000000  0.111111     411 t-inv F
  0.000000  0.000000  0.117284     412 t-inv F
  0.000000  0.000000  0.123457     413 t-inv F
  0.000000  0.000000  0.129630     414 t-inv F
  0.000000  0.000000  0.135802     415 t-inv F
  0.000000  0.000000  0.141975     416 t-inv F
  0.000000  0.000000  0.148148     417 t-inv F
  0.000000  0.000000  0.154321     418 t-inv F
  0.000000  0.000000  0.160494     419 t-inv F
  0.000000  0.000000  0.166667     420 t-inv F
  0.000000  0.000000  0.172840     421 t-inv F
  0.000000  0.000000  0.179012     422 t-inv F
  0.000000  0.000000  0.185185     423 t-inv F
  0.000000  0.000000  0.191358     424 t-inv F
  0.000000  0.000000  0.197531     425 t-inv F
  0.000000  0.000000  0.203704     426 t-inv F
  0.000000  0.000000  0.209877     427 t-inv F
  0.000000  0.000000  0.216049     428 t-inv F
  0.000000  0.000000  0.222222     429 t-inv F
  0.000000  0.000000  0.228395     430 t-inv F
  0.000000  0.000000  0.234568     431 t-inv F
  0.000000  0.000000  0.240741     432 t-inv F
  0.000000  0.000000  0.246914     433 t-inv F
  0.000000  0.000000  0.253086     434 t-inv F
  0.000000  0.000000  0.259259     435 t-inv F
  0.000000  0.000000  0.265432     436 t-inv F
  0.000000  0.000000  0.271605     437 t-inv F
  0.000000  0.000000  0.277778     438 t-inv F
  0.000000  0.000000  0.283951     439 t-inv F
  0.000000  0.000000  0.290123     440 t-inv F
  0.000000  0.000000  0.296296     441 t-inv F
  0.000000  0.000000  0.302469     442 t-inv F
  0.000000  0.000000  0.308642     443 t-inv F
  0.000000  0.000000  0.314815     444 t-inv F
  0.000000  0.000000  0.320988     445 t-inv F
  0.000000  0.000000  0.327161     446 t-inv F
  0.000000  0.000000  0.333333     447 t-inv F
  0.000000  0.000000  0.339506     448 t-inv F
  0.000000  0.000000  0.345679     449 t-inv F
  0.000000  0.000000  0.351852     450 t-inv F
  0.000000  0.000000  0.358025     451 t-inv F
  0.000000  0.000000  0.364198     452 t-inv F
  0.000000  0.000000  0.370370     453 t-inv F
  0.000000  0.000000  0.376543     454 t-inv F
  0.000000  0.000000  0.382716     455 t-inv F
  0.000000  0.000000  0.388889     456 t-inv F
  0.000000  0.000000  0.395062     457 t-inv F
  0.000000  0.000000  0.401235     458 t-inv F
  0.000000  0.000000  0.407407     459 t-inv F
  0.000000  0.000000  0.413580     460 t-inv F
  0.000000  0.000000  0.419753     461 t-inv F
  0.000000  0.000000  0.425926     462 t-inv F
  0.000000  0.000000  0.432099     463 t-inv F
  0.000000  0.000000  0.438272     464 t-inv F
  0.000000  0.000000  0.444444     465 t-inv F
  0.000000  0.000000  0.450617     466 t-inv F
  0.000000  0.000000  0.456790     467 t-inv F
  0.000000  0.000000  0.462963     468 t-inv F
  0.000000  0.000000  0.469136     469 t-inv F
  0.000000  0.000000  0.475309     470 t-inv F
  0.000000  0.000000  0.481481     471 t-inv F
  0.000000  0.000000  0.487654     472 t-inv F
  0.000000  0.000000  0.493827     473 t-inv F
  0.000000  0.000000  0.500000     474 t-inv F
  0.000000  0.005000  0.500000     475 t-inv F
  0.000000  0.010000  0.500000     476 t-inv F
  0.000000  0.015000  0.500000     477 t-inv F
  0.000000  0.020000  0.500000     478 t-inv F
  0.000000  0.025000  0.500000     479 t-inv F
  0.000000  0.030000  0.500000     480 t-inv F
  0.000000  0.035000  0.500000     481 t-inv F
  0.000000  0.040000  0.500000     482 t-inv F
  0.000000  0.045000  0.500000     483 t-inv F
  0.000000  0.050000  0.500000     484 t-inv F
  0.000000  0.055000  0.500000     485 t-inv F
  0.000000  0.060000  0.500000     486 t-inv F
  0.000000  0.065000  0.500000     487 t-inv F
  0.000000  0.070000  0.500000     488 t-inv F
  0.000000  0.075000  0.500000     489 t-inv F
  0.000000  0.080000  0.500000     490 t-inv F
  0.000000  0.085000  0.500000     491 t-inv F
  0.000000  0.090000  0.500000     492 t-inv F
  0.000000  0.095000  0.500000     493 t-inv F
  0.000000  0.100000  0.500000     494 t-inv F
  0.000000  0.105000  0.500000     495 t-inv F
  0.000000  0.110000  0.500000     496 t-inv F
  0.000000  0.115000  0.500000     497 t-inv F
  0.000000  0.120000  0.500000     498 t-inv F
  0.000000  0.125000  0.500000     499 t-inv F
  0.000000  0.130000  0.500000     500 t-inv F
  0.000000  0.135000  0.500000     501 t-inv F
  0.000000  0.140000  0.500000     502 t-inv F
  0.000000  0.145000  0.500000     503 t-inv F
  0.000000  0.150000  0.500000     504 t-inv F
  0.000000  0.155000  0.500000     505 t-inv F
  0.000000  0.160000  0.500000     506 t-inv F
  0.000000  0.165000  0.500000     507 t-inv F
  0.000000  0.170000  0.500000     508 t-inv F
  0.000000  0.175000  0.500000     509 t-inv F
  0.000000  0.180000  0.500000     510 t-inv F
  0.000000  0.185000  0.500000     511 t-inv F
  0.000000  0.190000  0.500000     512 t-inv F
  0.000000  0.195000  0.500000     513 t-inv F
  0.000000  0.200000  0.500000     514 t-inv F
  0.000000  0.205000  0.500000     515 t-inv F
  0.000000  0.210000  0.500000     516 t-inv F
  0.000000  0.215000  0.500000     517 t-inv F
  0.000000  0.220000  0.500000     518 t-inv F
  0.000000  0.225000  0.500000     519 t-inv F
  0.000000  0.230000  0.500000     520 t-inv F
  0.000000  0.235000  0.500000     521 t-inv F
  0.000000  0.240000  0.500000     522 t-inv F
  0.000000  0.245000  0.500000     523 t-inv F
  0.000000  0.250000  0.500000     524 t-inv F
  0.000000  0.255000  0.500000     525 t-inv F
  0.000000  0.260000  0.500000     526 t-inv F
  0.000000  0.265000  0.500000     527 t-inv F
  0.000000  0.270000  0.500000     528 t-inv F
  0.000000  0.275000  0.500000     529 t-inv F
  0.000000  0.280000  0.500000     530 t-inv F
  0.000000  0.285000  0.500000     531 t-inv F
  0.000000  0.290000  0.500000     532 t-inv F
  0.000000  0.295000  0.500000     533 t-inv F
  0.000000  0.300000  0.500000     534 t-inv F
  0.000000  0.305000  0.500000     535 t-inv F
  0.000000  0.310000  0.500000     536 t-inv F
  0.000000  0.315000  0.500000     537 t-inv F
  0.000000  0.320000  0.500000     538 t-inv F
  0.000000  0.325000  0.500000     539 t-inv F
  0.000000  0.330000  0.500000     540 t-inv F
  0.000000  0.335000  0.500000     541 t-inv F
  0.000000  0.340000  0.500000     542 t-inv F
  0.000000  0.345000  0.500000     543 t-inv F
  0.000000  0.350000  0.500000     544 t-inv F
  0.000000  0.355000  0.500000     545 t-inv F
  0.000000  0.360000  0.500000     546 t-inv F
  0.000000  0.365000  0.500000     547 t-inv F
  0.000000  0.370000  0.500000     548 t-inv F
  0.000000  0.375000  0.500000     549 t-inv F
  0.000000  0.380000  0.500000     550 t-inv F
  0.000000  0.385000  0.500000     551 t-inv F
  0.000000  0.390000  0.500000     552 t-inv F
  0.000000  0.395000  0.500000     553 t-inv F
  0.000000  0.400000  0.500000     554 t-inv F
  0.000000  0.405000  0.500000     555 t-inv F
  0.000000  0.410000  0.500000     556 t-inv F
  0.000000  0.415000  0.500000     557 t-inv F
  0.000000  0.420000  0.500000     558 t-inv F
  0.000000  0.425000  0.500000     559 t-inv F
  0.000000  0.430000  0.500000     560 t-inv F
  0.000000  0.435000  0.500000     561 t-inv F
  0.000000  0.440000  0.500000     562 t-inv F
  0.000000  0.445000  0.500000     563 t-inv F
  0.000000  0.450000  0.500000     564 t-inv F
  0.000000  0.455000  0.500000     565 t-inv F
  0.000000  0.460000  0.500000     566 t-inv F
  0.000000  0.465000  0.500000     567 t-inv F
  0.000000  0.470000  0.500000     568 t-inv F
  0.000000  0.475000  0.500000     569 t-inv F
  0.000000  0.480000  0.500000     570 t-inv F
  0.000000  0.485000  0.500000     571 t-inv F
  0.000000  0.490000  0.500000     572 t-inv F
  0.000000  0.495000  0.500000     573 t-inv F
  0.000000  0.500000  0.500000     574 t-inv F
  0.005000  0.500000  0.500000     575 t-inv F
  0.010000  0.500000  0.500000     576 t-inv F
  0.015000  0.500000  0.500000     577 t-inv F
  0.020000  0.500000  0.500000     578 t-inv F
  0.025000  0.500000  0.500000     579 t-inv F
  0.030000  0.500000  0.500000     580 t-inv F
  0.035000  0.500000  0.500000     581 t-inv F
  0.040000  0.500000  0.500000     582 t-inv F
  0.045000  0.500000  0.500000     583 t-inv F
  0.050000  0.500000  0.500000     584 t-inv F
  0.055000  0.500000  0.500000     585 t-inv F
  0.060000  0.500000  0.500000     586 t-inv F
  0.065000  0.500000  0.500000     587 t-inv F
  0.070000  0.500000  0.500000     588 t-inv F
  0.075000  0.500000  0.500000     589 t-inv F
  0.080000  0.500000  0.500000     590 t-inv F
  0.085000  0.500000  0.500000     591 t-inv F
  0.090000  0.500000  0.500000     592 t-inv F
  0.095000  0.500000  0.500000     593 t-inv F
  0.100000  0.500000  0.500000     594 t-inv F
  0.105000  0.500000  0.500000     595 t-inv F
  0.110000  0.500000  0.500000     596 t-inv F
  0.115000  0.500000  0.500000     597 t-inv F
  0.120000  0.500000  0.500000     598 t-inv F
  0.125000  0.500000  0.500000     599 t-inv F
  0.130000  0.500000  0.500000     600 t-inv F
  0.135000  0.500000  0.500000     601 t-inv F
  0.140000  0.500000  0.500000     602 t-inv F
  0.145000  0.500000  0.500000     603 t-inv F
  0.150000  0.500000  0.500000     604 t-inv F
  0.155000  0.500000  0.500000     605 t-inv F
  0.160000  0.500000  0.500000     606 t-inv F
  0.165000  0.500000  0.500000     607 t-inv F
  0.170000  0.500000  0.500000     608 t-inv F
  0.175000  0.500000  0.500000     609 t-inv F
  0.180000  0.500000  0.500000     610 t-inv F
  0.185000  0.500000  0.500000     611 t-inv F
  0.190000  0.500000  0.500000     612 t-inv F
  0.195000  0.500000  0.500000     613 t-inv F
  0.200000  0.500000  0.500000     614 t-inv F
  0.205000  0.500000  0.500000     615 t-inv F
  0.210000  0.500000  0.500000     616 t-inv F
  0.215000  0.500000  0.500000     617 t-inv F
  0.220000  0.500000  0.500000     618 t-inv F
  0.225000  0.500000  0.500000     619 t-inv F
  0.230000  0.500000  0.500000     620 t-inv F
  0.235000  0.500000  0.500000     621 t-inv F
  0.240000  0.500000  0.500000     622 t-inv F
  0.245000  0.500000  0.500000     623 t-inv F
  0.250000  0.500000  0.500000     624 t-inv F
  0.255000  0.500000  0.500000     625 t-inv F
  0.260000  0.500000  0.500000     626 t-inv F
  0.265000  0.500000  0.500000     627 t-inv F
  0.270000  0.500000  0.500000     628 t-inv F
  0.275000  0.500000  0.500000     629 t-inv F
  0.280000  0.500000  0.500000     630 t-inv F
  0.285000  0.500000  0.500000     631 t-inv F
  0.290000  0.500000  0.500000     632 t-inv F
  0.295000  0.500000  0.500000     633 t-inv F
  0.300000  0.500000  0.500000     634 t-inv F
  0.305000  0.500000  0.500000     635 t-inv F
  0.310000  0.500000  0.500000     636 t-inv F
  0.315000  0.500000  0.500000     637 t-inv F
  0.320000  0.500000  0.500000     638 t-inv F
  0.325000  0.500000  0.500000     639 t-inv F
  0.330000  0.500000  0.500000     640 t-inv F
  0.335000  0.500000  0.500000     641 t-inv F
  0.340000  0.500000  0.500000     642 t-inv F
  0.345000  0.500000  0.500000     643 t-inv F
  0.350000  0.500000  0.500000     644 t-inv F
  0.355000  0.500000  0.500000     645 t-inv F
  0.360000  0.500000  0.500000     646 t-inv F
  0.365000  0.500000  0.500000     647 t-inv F
  0.370000  0.500000  0.500000     648 t-inv F
  0.375000  0.500000  0.500000     649 t-inv F
  0.380000  0.500000  0.500000     650 t-inv F
  0.385000  0.500000  0.500000     651 t-inv F
  0.390000  0.500000  0.500000     652 t-inv F
  0.395000  0.500000  0.500000     653 t-inv F
  0.400000  0.500000  0.500000     654 t-inv F
  0.405000  0.500000  0.500000     655 t-inv F
  0.410000  0.500000  0.500000     656 t-inv F
  0.415000  0.500000  0.500000     657 t-inv F
  0.420000  0.500000  0.500000     658 t-inv F
  0.425000  0.500000  0.500000     659 t-inv F
  0.430000  0.500000  0.500000     660 t-inv F
  0.435000  0.500000  0.500000     661 t-inv F
  0.440000  0.500000  0.500000     662 t-inv F
  0.445000  0.500000  0.500000     663 t-inv F
  0.450000  0.500000  0.500000     664 t-inv F
  0.455000  0.500000  0.500000     665 t-inv F
  0.460000  0.500000  0.500000     666 t-inv F
  0.465000  0.500000  0.500000     667 t-inv F
  0.470000  0.500000  0.500000     668 t-inv F
  0.475000  0.500000  0.500000     669 t-inv F
  0.480000  0.500000  0.500000     670 t-inv F
  0.485000  0.500000  0.500000     671 t-inv F
  0.490000  0.500000  0.500000     672 t-inv F
  0.495000  0.500000  0.500000     673 t-inv F
  0.500000  0.500000  0.500000     674 t-inv F
  0.496454  0.496454  0.500000     675 t-inv F
  0.492908  0.492908  0.500000     676 t-inv F
  0.489362  0.489362  0.500000     677 t-inv F
  0.485816  0.485816  0.500000     678 t-inv F
  0.482270  0.482270  0.500000     679 t-inv F
  0.478723  0.478723  0.500000     680 t-inv F
  0.475177  0.475177  0.500000     681 t-inv F
  0.471631  0.471631  0.500000     682 t-inv F
  0.468085  0.468085  0.500000     683 t-inv F
  0.464539  0.464539  0.500000     684 t-inv F
  0.460993  0.460993  0.500000     685 t-inv F
  0.457447  0.457447  0.500000     686 t-inv F
  0.453901  0.453901  0.500000     687 t-inv F
  0.450355  0.450355  0.500000     688 t-inv F
  0.446809  0.446809  0.500000     689 t-inv F
  0.443262  0.443262  0.500000     690 t-inv F
  0.439716  0.439716  0.500000     691 t-inv F
  0.436170  0.436170  0.500000     692 t-inv F
  0.432624  0.432624  0.500000     693 t-inv F
  0.429078  0.429078  0.500000     694 t-inv F
  0.425532  0.425532  0.500000     695 t-inv F
  0.421986  0.421986  0.500000     696 t-inv F
  0.418440  0.418440  0.500000     697 t-inv F
  0.414894  0.414894  0.500000     698 t-inv F
  0.411348  0.411348  0.500000     699 t-inv F
  0.407801  0.407801  0.500000     700 t-inv F
  0.404255  0.404255  0.500000     701 t-inv F
  0.400709  0.400709  0.500000     702 t-inv F
  0.397163  0.397163  0.500000     703 t-inv F
  0.393617  0.393617  0.500000     704 t-inv F
  0.390071  0.390071  0.500000     705 t-inv F
  0.386525  0.386525  0.500000     706 t-inv F
  0.382979  0.382979  0.500000     707 t-inv F
  0.379433  0.379433  0.500000     708 t-inv F
  0.375887  0.375887  0.500000     709 t-inv F
  0.372340  0.372340  0.500000     710 t-inv F
  0.368794  0.368794  0.500000     711 t-inv F
  0.365248  0.365248  0.500000     712 t-inv F
  0.361702  0.361702  0.500000     713 t-inv F
  0.358156  0.358156  0.500000     714 t-inv F
  0.354610  0.354610  0.500000     715 t-inv F
  0.351064  0.351064  0.500000     716 t-inv F
  0.347518  0.347518  0.500000     717 t-inv F
  0.343972  0.343972  0.500000     718 t-inv F
  0.340426  0.340426  0.500000     719 t-inv F
  0.336879  0.336879  0.500000     720 t-inv F
  0.333333  0.333333  0.500000     721 t-inv F
  0.329787  0.329787  0.500000     722 t-inv F
  0.326241  0.326241  0.500000     723 t-inv F
  0.322695  0.322695  0.500000     724 t-inv F
  0.319149  0.319149  0.500000     725 t-inv F
  0.315603  0.315603  0.500000     726 t-inv F
  0.312057  0.312057  0.500000     727 t-inv F
  0.308511  0.308511  0.500000     728 t-inv F
  0.304965  0.304965  0.500000     729 t-inv F
  0.301418  0.301418  0.500000     730 t-inv F
  0.297872  0.297872  0.500000     731 t-inv F
  0.294326  0.294326  0.500000     732 t-inv F
  0.290780  0.290780  0.500000     733 t-inv F
  0.287234  0.287234  0.500000     734 t-inv F
  0.283688  0.283688  0.500000     735 t-inv F
  0.280142  0.280142  0.500000     736 t-inv F
  0.276596  0.276596  0.500000     737 t-inv F
  0.273050  0.273050  0.500000     738 t-inv F
  0.269504  0.269504  0.500000     739 t-inv F
  0.265957  0.265957  0.500000     740 t-inv F
  0.262411  0.262411  0.500000     741 t-inv F
  0.258865  0.258865  0.500000     742 t-inv F
  0.255319  0.255319  0.500000     743 t-inv F
  0.251773  0.251773  0.500000     744 t-inv F
  0.248227  0.248227  0.500000     745 t-inv F
  0.244681  0.244681  0.500000     746 t-inv F
  0.241135  0.241135  0.500000     747 t-inv F
  0.237589  0.237589  0.500000     748 t-inv F
  0.234043  0.234043  0.500000     749 t-inv F
  0.230496  0.230496  0.500000     750 t-inv F
  0.226950  0.226950  0.500000     751 t-inv F
  0.223404  0.223404  0.500000     752 t-inv F
  0.219858  0.219858  0.500000     753 t-inv F
  0.216312  0.216312  0.500000     754 t-inv F
  0.212766  0.212766  0.500000     755 t-inv F
  0.209220  0.209220  0.500000     756 t-inv F
  0.205674  0.205674  0.500000     757 t-inv F
  0.202128  0.202128  0.500000     758 t-inv F
  0.198582  0.198582  0.500000     759 t-inv F
  0.195035  0.195035  0.500000     760 t-inv F
  0.191489  0.191489  0.500000     761 t-inv F
  0.187943  0.187943  0.500000     762 t-inv F
  0.184397  0.184397  0.500000     763 t-inv F
  0.180851  0.180851  0.500000     764 t-inv F
  0.177305  0.177305  0.500000     765 t-inv F
  0.173759  0.173759  0.500000     766 t-inv F
  0.170213  0.170213  0.500000     767 t-inv F
  0.166667  0.166667  0.500000     768 t-inv F
  0.163121  0.163121  0.500000     769 t-inv F
  0.159574  0.159574  0.500000     770 t-inv F
  0.156028  0.156028  0.500000     771 t-inv F
  0.152482  0.152482  0.500000     772 t-inv F
  0.148936  0.148936  0.500000     773 t-inv F
  0.145390  0.145390  0.500000     774 t-inv F
  0.141844  0.141844  0.500000     775 t-inv F
  0.138298  0.138298  0.500000     776 t-inv F
  0.134752  0.134752  0.500000     777 t-inv F
  0.131206  0.131206  0.500000     778 t-inv F
  0.127660  0.127660  0.500000     779 t-inv F
  0.124114  0.124114  0.500000     780 t-inv F
  0.120567  0.120567  0.500000     781 t-inv F
  0.117021  0.117021  0.500000     782 t-inv F
  0.113475  0.113475  0.500000     783 t-inv F
  0.109929  0.109929  0.500000     784 t-inv F
  0.106383  0.106383  0.500000     785 t-inv F
  0.102837  0.102837  0.500000     786 t-inv F
  0.099291  0.099291  0.500000     787 t-inv F
  0.095745  0.095745  0.500000     788 t-inv F
  0.092199  0.092199  0.500000     789 t-inv F
  0.088652  0.088652  0.500000     790 t-inv F
  0.085106  0.085106  0.500000     791 t-inv F
  0.081560  0.081560  0.500000     792 t-inv F
  0.078014  0.078014  0.500000     793 t-inv F
  0.074468  0.074468  0.500000     794 t-inv F
  0.070922  0.070922  0.500000     795 t-inv F
  0.067376  0.067376  0.500000     796 t-inv F
  0.063830  0.063830  0.500000     797 t-inv F
  0.060284  0.060284  0.500000     798 t-inv F
  0.056738  0.056738  0.500000     799 t-inv F
  0.053192  0.053192  0.500000     800 t-inv F
  0.049645  0.049645  0.500000     801 t-inv F
  0.046099  0.046099  0.500000     802 t-inv F
  0.042553  0.042553  0.500000     803 t-inv F
  0.039007  0.039007  0.500000     804 t-inv F
  0.035461  0.035461  0.500000     805 t-inv F
  0.031915  0.031915  0.500000     806 t-inv F
  0.028369  0.028369  0.500000     807 t-inv F
  0.024823  0.024823  0.500000     808 t-inv F
  0.021277  0.021277  0.500000     809 t-inv F
  0.017730  0.017730  0.500000     810 t-inv F
  0.014184  0.014184  0.500000     811 t-inv F
  0.010638  0.010638  0.500000     812 t-inv F
  0.007092  0.007092  0.500000     813 t-inv F
  0.003546  0.003546  0.500000     814 t-inv F
  0.000000 -0.166667  0.000000       2 t-inv F
 -0.166667  0.000000 -0.166667       2 t-inv F
  0.000000  0.166667  0.166667       2 t-inv F
  0.000000 -0.333333  0.000000       3 t-inv F
 -0.333333  0.000000 -0.333333       3 t-inv F
  0.000000  0.333333  0.333333       3 t-inv F
  0.000000 -0.500000  0.000000       4 t-inv F
 -0.500000  0.000000 -0.500000       4 t-inv F
  0.000000  0.500000  0.500000       4 t-inv F
  0.166667 -0.166667  0.166667       5 t-inv F
 -0.166667 -0.166667 -0.333333       5 t-inv F
 -0.166667  0.166667  0.166667       5 t-inv F
  0.166667 -0.333333  0.166667       6 t-inv F
 -0.333333 -0.166667 -0.500000       6 t-inv F
 -0.166667  0.333333  0.333333       6 t-inv F
  0.166667 -0.500000  0.166667       7 t-inv F
 -0.500000 -0.166667 -0.666667       7 t-inv F
 -0.166667  0.500000  0.500000       7 t-inv F
  0.166667  0.333333  0.166667       8 t-inv F
  0.333333 -0.166667  0.166667       8 t-inv F
 -0.166667 -0.333333 -0.333333       8 t-inv F
  0.166667  0.166667  0.166667       9 t-inv F
  0.166667 -0.166667  0.000000       9 t-inv F
 -0.166667 -0.166667 -0.166667       9 t-inv F
  0.333333 -0.166667  0.333333      10 t-inv F
 -0.166667 -0.333333 -0.500000      10 t-inv F
 -0.333333  0.166667  0.166667      10 t-inv F
  0.333333 -0.333333  0.333333      11 t-inv F
 -0.333333 -0.333333 -0.666667      11 t-inv F
 -0.333333  0.333333  0.333333      11 t-inv F
  0.333333 -0.500000  0.333333      12 t-inv F
 -0.500000 -0.333333 -0.833333      12 t-inv F
 -0.333333  0.500000  0.500000      12 t-inv F
  0.333333  0.333333  0.333333      13 t-inv F
  0.333333 -0.333333  0.000000      13 t-inv F
 -0.333333 -0.333333 -0.333333      13 t-inv F
  0.333333  0.166667  0.333333      14 t-inv F
  0.166667 -0.333333 -0.166667      14 t-inv F
 -0.333333 -0.166667 -0.166667      14 t-inv F
  0.500000 -0.166667  0.500000      15 t-inv F
 -0.166667 -0.500000 -0.666667      15 t-inv F
 -0.500000  0.166667  0.166667      15 t-inv F
  0.500000 -0.333333  0.500000      16 t-inv F
 -0.333333 -0.500000 -0.833333      16 t-inv F
 -0.500000  0.333333  0.333333      16 t-inv F
  0.500000 -0.500000  0.500000      17 t-inv F
  0.000000  0.000000 -0.250000      18 t-inv F
  0.000000 -0.166667 -0.250000      19 t-inv F
 -0.166667  0.000000  0.083333      19 t-inv F
  0.000000  0.166667 -0.083333      19 t-inv F
  0.000000 -0.333333 -0.250000      20 t-inv F
 -0.333333  0.000000 -0.083333      20 t-inv F
  0.000000  0.333333  0.083333      20 t-inv F
  0.000000 -0.500000 -0.250000      21 t-inv F
 -0.500000  0.000000 -0.250000      21 t-inv F
  0.000000  0.500000  0.250000      21 t-inv F
  0.000000  0.333333 -0.250000      22 t-inv F
  0.333333  0.000000  0.583333      22 t-inv F
  0.000000 -0.333333 -0.583333      22 t-inv F
  0.000000  0.166667 -0.250000      23 t-inv F
  0.166667  0.000000  0.416667      23 t-inv F
  0.000000 -0.166667 -0.416667      23 t-inv F
  0.166667 -0.166667 -0.083333      24 t-inv F
 -0.166667 -0.166667 -0.083333      24 t-inv F
 -0.166667  0.166667 -0.083333      24 t-inv F
  0.166667 -0.333333 -0.083333      25 t-inv F
 -0.333333 -0.166667 -0.250000      25 t-inv F
 -0.166667  0.333333  0.083333      25 t-inv F
  0.166667 -0.500000 -0.083333      26 t-inv F
 -0.500000 -0.166667 -0.416667      26 t-inv F
 -0.166667  0.500000  0.250000      26 t-inv F
  0.166667  0.333333 -0.083333      27 t-inv F
  0.333333 -0.166667  0.416667      27 t-inv F
 -0.166667 -0.333333 -0.583333      27 t-inv F
  0.166667  0.166667 -0.083333      28 t-inv F
  0.166667 -0.166667  0.250000      28 t-inv F
 -0.166667 -0.166667 -0.416667      28 t-inv F
  0.333333 -0.166667  0.083333      29 t-inv F
 -0.166667 -0.333333 -0.250000      29 t-inv F
 -0.333333  0.166667 -0.083333      29 t-inv F
  0.333333 -0.333333  0.083333      30 t-inv F
 -0.333333 -0.333333 -0.416667      30 t-inv F
 -0.333333  0.333333  0.083333      30 t-inv F
  0.333333 -0.500000  0.083333      31 t-inv F
 -0.500000 -0.333333 -0.583333      31 t-inv F
 -0.333333  0.500000  0.250000      31 t-inv F
  0.333333  0.333333  0.083333      32 t-inv F
  0.333333 -0.333333  0.250000      32 t-inv F
 -0.333333 -0.333333 -0.583333      32 t-inv F
  0.333333  0.166667  0.083333      33 t-inv F
  0.166667 -0.333333  0.083333      33 t-inv F
 -0.333333 -0.166667 -0.416667      33 t-inv F
  0.500000 -0.166667  0.250000      34 t-inv F
 -0.166667 -0.500000 -0.416667      34 t-inv F
 -0.500000  0.166667 -0.083333      34 t-inv F
  0.500000 -0.333333  0.250000      35 t-inv F
 -0.333333 -0.500000 -0.583333      35 t-inv F
 -0.500000  0.333333  0.083333      35 t-inv F
 -0.333333 -0.166667 -0.583333      37 t-inv F
 -0.166667  0.333333  0.416667      37 t-inv F
  0.333333  0.166667 -0.083333      37 t-inv F
 -0.333333  0.333333 -0.583333      38 t-inv F
  0.333333  0.333333  0.916667      38 t-inv F
  0.333333 -0.333333 -0.583333      38 t-inv F
 -0.333333  0.166667 -0.583333      39 t-inv F
  0.166667  0.333333  0.750000      39 t-inv F
  0.333333 -0.166667 -0.416667      39 t-inv F
 -0.166667 -0.333333 -0.416667      40 t-inv F
 -0.333333  0.166667  0.083333      40 t-inv F
  0.166667  0.333333  0.083333      40 t-inv F
 -0.166667  0.333333 -0.416667      41 t-inv F
  0.333333  0.166667  0.750000      41 t-inv F
  0.166667 -0.333333 -0.583333      41 t-inv F
 -0.166667  0.166667 -0.416667      42 t-inv F
  0.166667  0.166667  0.583333      42 t-inv F
  0.166667 -0.166667 -0.416667      42 t-inv F
  0.000000 -0.166667 -0.500000      44 t-inv F
 -0.166667  0.000000  0.333333      44 t-inv F
  0.000000  0.166667 -0.333333      44 t-inv F
  0.000000 -0.333333 -0.500000      45 t-inv F
 -0.333333  0.000000  0.166667      45 t-inv F
  0.000000  0.333333 -0.166667      45 t-inv F
  0.166667 -0.166667 -0.333333      46 t-inv F
 -0.166667 -0.166667  0.166667      46 t-inv F
 -0.166667  0.166667 -0.333333      46 t-inv F
  0.166667  0.333333 -0.333333      47 t-inv F
  0.333333 -0.166667  0.666667      47 t-inv F
 -0.166667 -0.333333 -0.833333      47 t-inv F
  0.166667  0.166667 -0.333333      48 t-inv F
  0.166667 -0.166667  0.500000      48 t-inv F
 -0.166667 -0.166667 -0.666667      48 t-inv F
  0.333333 -0.333333 -0.166667      49 t-inv F
 -0.333333 -0.333333 -0.166667      49 t-inv F
 -0.333333  0.333333 -0.166667      49 t-inv F
  0.333333  0.333333 -0.166667      50 t-inv F
  0.333333 -0.333333  0.500000      50 t-inv F
 -0.333333 -0.333333 -0.833333      50 t-inv F
  0.333333  0.166667 -0.166667      51 t-inv F
  0.166667 -0.333333  0.333333      51 t-inv F
 -0.333333 -0.166667 -0.666667      51 t-inv F
 -0.166667  0.000000  0.000000       2 t-inv T
  0.000000  0.166667  0.000000       2 t-inv T
  0.166667  0.000000  0.166667       2 t-inv T
  0.000000 -0.166667 -0.166667       2 t-inv T
 -0.333333  0.000000  0.000000       3 t-inv T
  0.000000  0.333333  0.000000       3 t-inv T
  0.333333  0.000000  0.333333       3 t-inv T
  0.000000 -0.333333 -0.333333       3 t-inv T
 -0.166667 -0.166667  0.000000       5 t-inv T
 -0.166667  0.166667 -0.166667       5 t-inv T
  0.166667  0.166667  0.333333       5 t-inv T
  0.166667 -0.166667 -0.166667       5 t-inv T
 -0.333333 -0.166667  0.000000       6 t-inv T
 -0.166667  0.333333 -0.166667       6 t-inv T
  0.333333  0.166667  0.500000       6 t-inv T
  0.166667 -0.333333 -0.333333       6 t-inv T
 -0.500000 -0.166667  0.000000       7 t-inv T
 -0.166667  0.500000 -0.166667       7 t-inv T
  0.500000  0.166667  0.666667       7 t-inv T
  0.166667 -0.500000 -0.500000       7 t-inv T
  0.333333 -0.166667  0.000000       8 t-inv T
 -0.166667 -0.333333 -0.166667       8 t-inv T
 -0.333333  0.166667 -0.166667       8 t-inv T
  0.166667  0.333333  0.333333       8 t-inv T
 -0.166667 -0.333333  0.000000      10 t-inv T
 -0.333333  0.166667 -0.333333      10 t-inv T
  0.166667  0.333333  0.500000      10 t-inv T
  0.333333 -0.166667 -0.166667      10 t-inv T
 -0.333333 -0.333333  0.000000      11 t-inv T
 -0.333333  0.333333 -0.333333      11 t-inv T
  0.333333  0.333333  0.666667      11 t-inv T
  0.333333 -0.333333 -0.333333      11 t-inv T
 -0.500000 -0.333333  0.000000      12 t-inv T
 -0.333333  0.500000 -0.333333      12 t-inv T
  0.500000  0.333333  0.833333      12 t-inv T
  0.333333 -0.500000 -0.500000      12 t-inv T
  0.166667 -0.333333  0.000000      14 t-inv T
 -0.333333 -0.166667 -0.333333      14 t-inv T
 -0.166667  0.333333  0.166667      14 t-inv T
  0.333333  0.166667  0.166667      14 t-inv T
 -0.166667 -0.500000  0.000000      15 t-inv T
 -0.500000  0.166667 -0.500000      15 t-inv T
  0.166667  0.500000  0.666667      15 t-inv T
  0.500000 -0.166667 -0.166667      15 t-inv T
 -0.333333 -0.500000  0.000000      16 t-inv T
 -0.500000  0.333333 -0.500000      16 t-inv T
  0.333333  0.500000  0.833333      16 t-inv T
  0.500000 -0.333333 -0.333333      16 t-inv T
 -0.166667  0.000000 -0.250000      19 t-inv T
  0.000000  0.166667  0.250000      19 t-inv T
  0.166667  0.000000 -0.083333      19 t-inv T
  0.000000 -0.166667  0.083333      19 t-inv T
 -0.333333  0.000000 -0.250000      20 t-inv T
  0.000000  0.333333  0.250000      20 t-inv T
  0.333333  0.000000  0.083333      20 t-inv T
  0.000000 -0.333333 -0.083333      20 t-inv T
  0.333333  0.000000 -0.250000      22 t-inv T
  0.000000 -0.333333  0.250000      22 t-inv T
 -0.333333  0.000000 -0.583333      22 t-inv T
  0.000000  0.333333  0.583333      22 t-inv T
  0.166667  0.000000 -0.250000      23 t-inv T
  0.000000 -0.166667  0.250000      23 t-inv T
 -0.166667  0.000000 -0.416667      23 t-inv T
  0.000000  0.166667  0.416667      23 t-inv T
 -0.166667 -0.166667 -0.250000      24 t-inv T
 -0.166667  0.166667  0.083333      24 t-inv T
  0.166667  0.166667  0.083333      24 t-inv T
  0.166667 -0.166667  0.083333      24 t-inv T
 -0.500000 -0.166667 -0.250000      26 t-inv T
 -0.166667  0.500000  0.083333      26 t-inv T
  0.500000  0.166667  0.416667      26 t-inv T
  0.166667 -0.500000 -0.250000      26 t-inv T
  0.333333 -0.166667 -0.250000      27 t-inv T
 -0.166667 -0.333333  0.083333      27 t-inv T
 -0.333333  0.166667 -0.416667      27 t-inv T
  0.166667  0.333333  0.583333      27 t-inv T
  0.166667 -0.166667 -0.250000      28 t-inv T
 -0.166667 -0.166667  0.083333      28 t-inv T
 -0.166667  0.166667 -0.250000      28 t-inv T
  0.166667  0.166667  0.416667      28 t-inv T
 -0.333333 -0.333333 -0.250000      30 t-inv T
 -0.333333  0.333333 -0.083333      30 t-inv T
  0.333333  0.333333  0.416667      30 t-inv T
  0.333333 -0.333333 -0.083333      30 t-inv T
 -0.500000 -0.333333 -0.250000      31 t-inv T
 -0.333333  0.500000 -0.083333      31 t-inv T
  0.500000  0.333333  0.583333      31 t-inv T
  0.333333 -0.500000 -0.250000      31 t-inv T
  0.333333 -0.333333 -0.250000      32 t-inv T
 -0.333333 -0.333333 -0.083333      32 t-inv T
 -0.333333  0.333333 -0.250000      32 t-inv T
  0.333333  0.333333  0.583333      32 t-inv T
  0.166667 -0.333333 -0.250000      33 t-inv T
 -0.333333 -0.166667 -0.083333      33 t-inv T
 -0.166667  0.333333 -0.083333      33 t-inv T
  0.333333  0.166667  0.416667      33 t-inv T
 -0.166667 -0.500000 -0.250000      34 t-inv T
 -0.500000  0.166667 -0.250000      34 t-inv T
  0.166667  0.500000  0.416667      34 t-inv T
  0.500000 -0.166667  0.083333      34 t-inv T
 -0.333333 -0.500000 -0.250000      35 t-inv T
 -0.500000  0.333333 -0.250000      35 t-inv T
  0.333333  0.500000  0.583333      35 t-inv T
  0.500000 -0.333333 -0.083333      35 t-inv T
 -0.500000 -0.500000 -0.250000      36 t-inv T
 -0.166667  0.333333 -0.250000      37 t-inv T
  0.333333  0.166667  0.583333      37 t-inv T
  0.166667 -0.333333 -0.416667      37 t-inv T
 -0.333333 -0.166667  0.083333      37 t-inv T
  0.333333  0.333333 -0.250000      38 t-inv T
  0.333333 -0.333333  0.583333      38 t-inv T
 -0.333333 -0.333333 -0.916667      38 t-inv T
 -0.333333  0.333333  0.583333      38 t-inv T
 -0.333333  0.166667 -0.250000      40 t-inv T
  0.166667  0.333333  0.416667      40 t-inv T
  0.333333 -0.166667 -0.083333      40 t-inv T
 -0.166667 -0.333333 -0.083333      40 t-inv T
  0.166667  0.166667 -0.250000      42 t-inv T
  0.166667 -0.166667  0.416667      42 t-inv T
 -0.166667 -0.166667 -0.583333      42 t-inv T
 -0.166667  0.166667  0.416667      42 t-inv T
 -0.166667  0.000000 -0.500000      44 t-inv T
  0.000000  0.166667  0.500000      44 t-inv T
  0.166667  0.000000 -0.333333      44 t-inv T
  0.000000 -0.166667  0.333333      44 t-inv T
 -0.333333  0.000000 -0.500000      45 t-inv T
  0.000000  0.333333  0.500000      45 t-inv T
  0.333333  0.000000 -0.166667      45 t-inv T
  0.000000 -0.333333  0.166667      45 t-inv T
 -0.166667 -0.166667 -0.500000      46 t-inv T
 -0.166667  0.166667  0.333333      46 t-inv T
  0.166667  0.166667 -0.166667      46 t-inv T
  0.166667 -0.166667  0.333333      46 t-inv T
  0.333333 -0.166667 -0.500000      47 t-inv T
 -0.166667 -0.333333  0.333333      47 t-inv T
 -0.333333  0.166667 -0.666667      47 t-inv T
  0.166667  0.333333  0.833333      47 t-inv T
 -0.333333 -0.333333 -0.500000      49 t-inv T
 -0.333333  0.333333  0.166667      49 t-inv T
  0.333333  0.333333  0.166667      49 t-inv T
  0.333333 -0.333333  0.166667      49 t-inv T
  0.166667 -0.333333 -0.500000      51 t-inv T
 -0.333333 -0.166667  0.166667      51 t-inv T
 -0.166667  0.333333 -0.333333      51 t-inv T
  0.333333  0.166667  0.666667      51 t-inv T


--------------------------------------------------------------------------------------------------------




 Dimension of arrays:
   k-points           NKPTS =    814   k-points in BZ     NKDIM =   1099   number of bands    NBANDS=     52
   number of dos      NEDOS =    301   number of ions     NIONS =      8
   non local maximal  LDIM  =      6   non local SUM 2l+1 LMDIM =     18
   total plane-waves  NPLWV =  76800
   max r-space proj   IRMAX =      1   max aug-charges    IRDMAX=  21604
   dimension x,y,z NGX =    40 NGY =   40 NGZ =   48
   dimension x,y,z NGXF=    80 NGYF=   80 NGZF=   96
   support grid    NGXF=    80 NGYF=   80 NGZF=   96
   ions per type =               2   1   1   4
 NGX,Y,Z   is equivalent  to a cutoff of  12.23, 12.23, 12.01 a.u.
 NGXF,Y,Z  is equivalent  to a cutoff of  24.47, 24.47, 24.01 a.u.


 I would recommend the setting:
   dimension x,y,z NGX =    40 NGY =   40 NGZ =   48
 SYSTEM =  Name                                    
[...]
  -Hartree energ DENC   =     -5111.05795514
  -exchange      EXHF   =         0.00000000
  -V(xc)+E(xc)   XCENC  =       287.92794054
  PAW double counting   =     10942.69525278   -11381.18114668
  entropy T*S    EENTRO =        -0.00043097
  eigenvalues    EBANDS =      -644.28793004
  atomic energy  EATOM  =     12975.31123126
  ---------------------------------------------------
  free energy    TOTEN  =       188.94880927 eV

  energy without entropy =      188.94924024  energy(sigma->0) =      188.94902475


--------------------------------------------------------------------------------------------------------




----------------------------------------- Iteration    1(   6)  ---------------------------------------


    POTLOK:  cpu time    0.14: real time    0.14
    SETDIJ:  cpu time    0.22: real time    0.22
    TRIAL :  cpu time 4029.12: real time 4057.51
    CORREC:  cpu time 4030.87: real time 4057.45
    CHARGE:  cpu time    0.03: real time    0.03
    --------------------------------------------
      LOOP:  cpu time 8060.38: real time 8115.36

 eigenvalue-minimisations  :     0
 total energy-change (2. order) :-0.4907518E+01  (-0.4752154E+03)
 number of electron      83.9999889 magnetization 
 augmentation part       36.0946231 magnetization 

 Free energy of the ion-electron system (eV)
  ---------------------------------------------------
  alpha Z        PSCENC =       275.46753454
  Ewald energy   TEWEN  =     -7155.92568703
  -Hartree energ DENC   =     -3542.62573211
  -exchange      EXHF   =       211.19912805
  -V(xc)+E(xc)   XCENC  =       253.31923303
  PAW double counting   =     14356.89249713   -14707.96248965
  entropy T*S    EENTRO =        -0.00000000
  eigenvalues    EBANDS =     -2481.63399292
  atomic energy  EATOM  =     12975.31123126
  ---------------------------------------------------
  free energy    TOTEN  =       184.04129132 eV

  energy without entropy =      184.04129132  energy(sigma->0) =      184.04129132


--------------------------------------------------------------------------------------------------------




----------------------------------------- Iteration    1(   7)  ---------------------------------------


    POTLOK:  cpu time    0.14: real time    0.14
    SETDIJ:  cpu time    0.23: real time    0.23
    TRIAL :  cpu time 4045.54: real time 4072.42
    CORREC:  cpu time 4033.74: real time 4061.37
    CHARGE:  cpu time    0.03: real time    0.03
    --------------------------------------------
      LOOP:  cpu time 8079.69: real time 8134.20

 eigenvalue-minimisations  :     0
 total energy-change (2. order) :-0.1764675E+03  (-0.3374603E+02)
 number of electron      83.9999896 magnetization 
 augmentation part       34.4699968 magnetization 

 Free energy of the ion-electron system (eV)
  ---------------------------------------------------
  alpha Z        PSCENC =       275.46753454
  Ewald energy   TEWEN  =     -7155.92568703
  -Hartree energ DENC   =     -5455.20039218
  -exchange      EXHF   =       243.84759372
  -V(xc)+E(xc)   XCENC  =       296.56258398
  PAW double counting   =     16932.86047497   -17484.45677792
  entropy T*S    EENTRO =        -0.00000000
  eigenvalues    EBANDS =      -620.89278856
  atomic energy  EATOM  =     12975.31123126
  ---------------------------------------------------
  free energy    TOTEN  =         7.57377276 eV

  energy without entropy =        7.57377276  energy(sigma->0) =        7.57377276


--------------------------------------------------------------------------------------------------------




----------------------------------------- Iteration    1(   8)  ---------------------------------------


    POTLOK:  cpu time    0.14: real time    0.14
    SETDIJ:  cpu time    0.22: real time    0.22
    TRIAL :  cpu time 4038.77: real time 4067.41
    CORREC:  cpu time 4031.21: real time 4059.88
    CHARGE:  cpu time    0.03: real time    0.03
    --------------------------------------------
      LOOP:  cpu time 8070.37: real time 8127.70

 eigenvalue-minimisations  :     0
 total energy-change (2. order) :-0.3868788E+02  (-0.3282055E+01)
 number of electron      83.9999898 magnetization 
 augmentation part       33.9443355 magnetization 

 Free energy of the ion-electron system (eV)
  ---------------------------------------------------
  alpha Z        PSCENC =       275.46753454
  Ewald energy   TEWEN  =     -7155.92568703
  -Hartree energ DENC   =     -5058.77483209
  -exchange      EXHF   =       238.66707522
  -V(xc)+E(xc)   XCENC  =       287.60159592
  PAW double counting   =     15233.45916393   -15711.61460798
  entropy T*S    EENTRO =        -0.00000000
  eigenvalues    EBANDS =     -1115.30558295
  atomic energy  EATOM  =     12975.31123126
  ---------------------------------------------------
  free energy    TOTEN  =       -31.11410917 eV

  energy without entropy =      -31.11410917  energy(sigma->0) =      -31.11410917


--------------------------------------------------------------------------------------------------------




----------------------------------------- Iteration    1(   9)  ---------------------------------------


    POTLOK:  cpu time    0.14: real time    0.14
    SETDIJ:  cpu time    0.22: real time    0.22
    TRIAL :  cpu time 4039.20: real time 4067.94
    CORREC:  cpu time 4034.45: real time 4062.79
    CHARGE:  cpu time    0.03: real time    0.03
    --------------------------------------------
      LOOP:  cpu time 8074.03: real time 8131.14

 eigenvalue-minimisations  :     0
 total energy-change (2. order) :-0.3332541E+01  (-0.2592296E+01)
 number of electron      83.9999897 magnetization 
 augmentation part       34.0289150 magnetization 

 Free energy of the ion-electron system (eV)
  ---------------------------------------------------
  alpha Z        PSCENC =       275.46753454
  Ewald energy   TEWEN  =     -7155.92568703
  -Hartree energ DENC   =     -4954.70613417
  -exchange      EXHF   =       237.68582405
  -V(xc)+E(xc)   XCENC  =       285.17141100
  PAW double counting   =     14675.37647928   -15128.09865228
  entropy T*S    EENTRO =        -0.00000000
  eigenvalues    EBANDS =     -1244.72865718
  atomic energy  EATOM  =     12975.31123126
  ---------------------------------------------------
  free energy    TOTEN  =       -34.44665052 eV

  energy without entropy =      -34.44665052  energy(sigma->0) =      -34.44665052


--------------------------------------------------------------------------------------------------------




----------------------------------------- Iteration    1(  10)  ---------------------------------------


    POTLOK:  cpu time    0.14: real time    0.14
    SETDIJ:  cpu time    0.22: real time    0.22
    TRIAL :  cpu time 4040.44: real time 4068.93
    CORREC:  cpu time 4033.62: real time 4061.35
    CHARGE:  cpu time    0.03: real time    0.03
    --------------------------------------------
      LOOP:  cpu time 8074.46: real time 8130.68

 eigenvalue-minimisations  :     0
 total energy-change (2. order) :-0.2594147E+01  (-0.9144164E+00)
 number of electron      83.9999897 magnetization 
 augmentation part       34.2577369 magnetization 

 Free energy of the ion-electron system (eV)
  ---------------------------------------------------
  alpha Z        PSCENC =       275.46753454
  Ewald energy   TEWEN  =     -7155.92568703
  -Hartree energ DENC   =     -5020.99560982
  -exchange      EXHF   =       239.98856209
  -V(xc)+E(xc)   XCENC  =       286.65206280
  PAW double counting   =     14368.45966218   -14813.08963530
  entropy T*S    EENTRO =        -0.00000000
  eigenvalues    EBANDS =     -1192.90891793
  atomic energy  EATOM  =     12975.31123126
  ---------------------------------------------------
  free energy    TOTEN  =       -37.04079721 eV

  energy without entropy =      -37.04079721  energy(sigma->0) =      -37.04079721


--------------------------------------------------------------------------------------------------------




----------------------------------------- Iteration    1(  11)  ---------------------------------------


    POTLOK:  cpu time    0.14: real time    0.14
    SETDIJ:  cpu time    0.22: real time    0.22
    TRIAL :  cpu time 4038.12: real time 4066.79
    CORREC:  cpu time 4033.59: real time 4062.02
    CHARGE:  cpu time    0.03: real time    0.03
    --------------------------------------------
      LOOP:  cpu time 8072.10: real time 8129.22

 eigenvalue-minimisations  :     0
 total energy-change (2. order) :-0.8887579E+00  (-0.3802694E+00)
 number of electron      83.9999897 magnetization 
 augmentation part       34.2932332 magnetization 

 Free energy of the ion-electron system (eV)
  ---------------------------------------------------
  alpha Z        PSCENC =       275.46753454
  Ewald energy   TEWEN  =     -7155.92568703
  -Hartree energ DENC   =     -5088.47043097
  -exchange      EXHF   =       241.63667976
  -V(xc)+E(xc)   XCENC  =       288.24784984
  PAW double counting   =     14316.49629210   -14765.65065028
  entropy T*S    EENTRO =        -0.00000000
  eigenvalues    EBANDS =     -1125.04237435
  atomic energy  EATOM  =     12975.31123126
  ---------------------------------------------------
  free energy    TOTEN  =       -37.92955513 eV

  energy without entropy =      -37.92955513  energy(sigma->0) =      -37.92955513


--------------------------------------------------------------------------------------------------------




----------------------------------------- Iteration    1(  12)  ---------------------------------------


    POTLOK:  cpu time    0.14: real time    0.14
    SETDIJ:  cpu time    0.23: real time    0.23
    TRIAL :  cpu time 4039.44: real time 4068.96
    CORREC:  cpu time 4034.94: real time 4063.47
    CHARGE:  cpu time    0.03: real time    0.03
    --------------------------------------------
      LOOP:  cpu time 8074.78: real time 8132.84

 eigenvalue-minimisations  :     0
 total energy-change (2. order) :-0.3803412E+00  (-0.1851266E+00)
 number of electron      83.9999897 magnetization 
 augmentation part       34.2780288 magnetization 

 Free energy of the ion-electron system (eV)
  ---------------------------------------------------
  alpha Z        PSCENC =       275.46753454
  Ewald energy   TEWEN  =     -7155.92568703
  -Hartree energ DENC   =     -5091.21075942
  -exchange      EXHF   =       241.88330018
  -V(xc)+E(xc)   XCENC  =       288.34725960
  PAW double counting   =     14153.16080092   -14601.95059141
  entropy T*S    EENTRO =        -0.00000000
  eigenvalues    EBANDS =     -1123.39298497
  atomic energy  EATOM  =     12975.31123126
  ---------------------------------------------------
  free energy    TOTEN  =       -38.30989633 eV

  energy without entropy =      -38.30989633  energy(sigma->0) =      -38.30989633


--------------------------------------------------------------------------------------------------------




----------------------------------------- Iteration    1(  13)  ---------------------------------------


    POTLOK:  cpu time    0.14: real time    0.14
    SETDIJ:  cpu time    0.23: real time    0.23
    TRIAL :  cpu time 4035.41: real time 4063.98
    CORREC:  cpu time 4032.63: real time 4061.16
    CHARGE:  cpu time    0.04: real time    0.05
    --------------------------------------------
      LOOP:  cpu time 8068.46: real time 8125.58

 eigenvalue-minimisations  :     0
 total energy-change (2. order) :-0.1851149E+00  (-0.5034873E-01)
 number of electron      83.9999897 magnetization 
 augmentation part       34.2973459 magnetization 

 Free energy of the ion-electron system (eV)
  ---------------------------------------------------
  alpha Z        PSCENC =       275.46753454
  Ewald energy   TEWEN  =     -7155.92568703
  -Hartree energ DENC   =     -5085.75992667
  -exchange      EXHF   =       241.83235625
  -V(xc)+E(xc)   XCENC  =       288.21877239
  PAW double counting   =     14026.11680823   -14473.54897967
  entropy T*S    EENTRO =        -0.00000000
  eigenvalues    EBANDS =     -1130.20712057
  atomic energy  EATOM  =     12975.31123126
  ---------------------------------------------------
  free energy    TOTEN  =       -38.49501126 eV

  energy without entropy =      -38.49501126  energy(sigma->0) =      -38.49501126


--------------------------------------------------------------------------------------------------------




----------------------------------------- Iteration    1(  14)  ---------------------------------------


    POTLOK:  cpu time    0.14: real time    0.15
    SETDIJ:  cpu time    0.21: real time    0.21
    TRIAL :  cpu time 4039.54: real time 4069.43
    CORREC:  cpu time 4029.50: real time 4059.79
    CHARGE:  cpu time    0.03: real time    0.03
    --------------------------------------------
      LOOP:  cpu time 8069.43: real time 8129.65

 eigenvalue-minimisations  :     0
 total energy-change (2. order) :-0.5039758E-01  (-0.2661077E-01)
 number of electron      83.9999897 magnetization 
 augmentation part       34.2810550 magnetization 

 Free energy of the ion-electron system (eV)
  ---------------------------------------------------
  alpha Z        PSCENC =       275.46753454
  Ewald energy   TEWEN  =     -7155.92568703
  -Hartree energ DENC   =     -5092.93371231
  -exchange      EXHF   =       241.99353599
  -V(xc)+E(xc)   XCENC  =       288.38561443
  PAW double counting   =     13993.68434641   -14441.61477385
  entropy T*S    EENTRO =        -0.00000000
  eigenvalues    EBANDS =     -1122.91349827
  atomic energy  EATOM  =     12975.31123126
  ---------------------------------------------------
  free energy    TOTEN  =       -38.54540884 eV

  energy without entropy =      -38.54540884  energy(sigma->0) =      -38.54540884


--------------------------------------------------------------------------------------------------------




----------------------------------------- Iteration    1(  15)  ---------------------------------------


    POTLOK:  cpu time    0.14: real time    0.14
    SETDIJ:  cpu time    0.23: real time    0.23
    TRIAL :  cpu time 4037.05: real time 4066.42
    CORREC:  cpu time 4031.84: real time 4060.37
    CHARGE:  cpu time    0.03: real time    0.03
    --------------------------------------------
      LOOP:  cpu time 8069.29: real time 8127.20

 eigenvalue-minimisations  :     0
 total energy-change (2. order) :-0.2668785E-01  (-0.8645873E-02)
 number of electron      83.9999897 magnetization 
 augmentation part       34.2893980 magnetization 

 Free energy of the ion-electron system (eV)
  ---------------------------------------------------
  alpha Z        PSCENC =       275.46753454
  Ewald energy   TEWEN  =     -7155.92568703
  -Hartree energ DENC   =     -5090.09741325
  -exchange      EXHF   =       242.00501797
  -V(xc)+E(xc)   XCENC  =       288.33420878
  PAW double counting   =     13961.56358235   -14409.04960244
  entropy T*S    EENTRO =        -0.00000000
  eigenvalues    EBANDS =     -1126.18096888
  atomic energy  EATOM  =     12975.31123126
  ---------------------------------------------------
  free energy    TOTEN  =       -38.57209669 eV

  energy without entropy =      -38.57209669  energy(sigma->0) =      -38.57209669


--------------------------------------------------------------------------------------------------------




----------------------------------------- Iteration    1(  16)  ---------------------------------------


    POTLOK:  cpu time    0.14: real time    0.14
    SETDIJ:  cpu time    0.23: real time    0.23
    TRIAL :  cpu time 4038.64: real time 4067.56
    CORREC:  cpu time 4033.31: real time 4061.81
    CHARGE:  cpu time    0.03: real time    0.03
    --------------------------------------------
      LOOP:  cpu time 8072.34: real time 8129.79

 eigenvalue-minimisations  :     0
 total energy-change (2. order) :-0.8667691E-02  (-0.3560660E-02)
 number of electron      83.9999897 magnetization 
 augmentation part       34.2866064 magnetization 

 Free energy of the ion-electron system (eV)
  ---------------------------------------------------
  alpha Z        PSCENC =       275.46753454
  Ewald energy   TEWEN  =     -7155.92568703
  -Hartree energ DENC   =     -5092.39304331
  -exchange      EXHF   =       242.06598733
  -V(xc)+E(xc)   XCENC  =       288.39763486
  PAW double counting   =     13964.04399898   -14412.00481872
  entropy T*S    EENTRO =        -0.00000000
  eigenvalues    EBANDS =     -1123.54360230
  atomic energy  EATOM  =     12975.31123126
  ---------------------------------------------------
  free energy    TOTEN  =       -38.58076438 eV

  energy without entropy =      -38.58076438  energy(sigma->0) =      -38.58076438


--------------------------------------------------------------------------------------------------------




----------------------------------------- Iteration    1(  17)  ---------------------------------------


    POTLOK:  cpu time    0.14: real time    0.14
    SETDIJ:  cpu time    0.23: real time    0.23
    TRIAL :  cpu time 4038.80: real time 4067.37
    CORREC:  cpu time 4033.64: real time 4062.78
    CHARGE:  cpu time    0.03: real time    0.03
    --------------------------------------------
      LOOP:  cpu time 8072.83: real time 8130.57

 eigenvalue-minimisations  :     0
 total energy-change (2. order) :-0.3583694E-02  (-0.1391773E-02)
 number of electron      83.9999897 magnetization 
 augmentation part       34.2850116 magnetization 

 Free energy of the ion-electron system (eV)
  ---------------------------------------------------
  alpha Z        PSCENC =       275.46753454
  Ewald energy   TEWEN  =     -7155.92568703
  -Hartree energ DENC   =     -5091.88236868
  -exchange      EXHF   =       242.05752552
  -V(xc)+E(xc)   XCENC  =       288.38560180
  PAW double counting   =     13967.70415731   -14415.50328390
  entropy T*S    EENTRO =        -0.00000000
  eigenvalues    EBANDS =     -1124.19905890
  atomic energy  EATOM  =     12975.31123126
  ---------------------------------------------------
  free energy    TOTEN  =       -38.58434807 eV

  energy without entropy =      -38.58434807  energy(sigma->0) =      -38.58434807


--------------------------------------------------------------------------------------------------------




----------------------------------------- Iteration    1(  18)  ---------------------------------------


    POTLOK:  cpu time    0.14: real time    0.14
    SETDIJ:  cpu time    0.23: real time    0.23
    TRIAL :  cpu time 4037.98: real time 4066.56
    CORREC:  cpu time 4032.26: real time 4060.96
    CHARGE:  cpu time    0.03: real time    0.03
    --------------------------------------------
      LOOP:  cpu time 8070.64: real time 8127.96

 eigenvalue-minimisations  :     0
 total energy-change (2. order) :-0.1364412E-02  (-0.4168638E-03)
 number of electron      83.9999897 magnetization 
 augmentation part       34.2891358 magnetization 

 Free energy of the ion-electron system (eV)
  ---------------------------------------------------
  alpha Z        PSCENC =       275.46753454
  Ewald energy   TEWEN  =     -7155.92568703
  -Hartree energ DENC   =     -5091.06986019
  -exchange      EXHF   =       242.04623588
  -V(xc)+E(xc)   XCENC  =       288.37051424
  PAW double counting   =     13964.37783384   -14412.04589092
  entropy T*S    EENTRO =        -0.00000000
  eigenvalues    EBANDS =     -1125.11762410
  atomic energy  EATOM  =     12975.31123126
  ---------------------------------------------------
  free energy    TOTEN  =       -38.58571249 eV

  energy without entropy =      -38.58571249  energy(sigma->0) =      -38.58571249


--------------------------------------------------------------------------------------------------------




----------------------------------------- Iteration    1(  19)  ---------------------------------------


    POTLOK:  cpu time    0.14: real time    0.14
    SETDIJ:  cpu time    0.23: real time    0.23
