  96  96   0   0
  0.2080188E+02  0.1257760E-08  0.1245754E-08  0.1274818E-08  0.5000000E-15
  1.000000000000000E-004
  CAR 
 MAPbI3-Cubic                            
      9.91340771    -22.24445311  301      1.15039064      1.00000000
    -22.244  0.0000E+00  0.0000E+00
    -22.137  0.0000E+00  0.0000E+00
    -22.030  0.0000E+00  0.0000E+00
    -21.923  0.0000E+00  0.0000E+00
    -21.816  0.0000E+00  0.0000E+00
    -21.708  0.0000E+00  0.0000E+00
    -21.601  0.0000E+00  0.0000E+00
    -21.494  0.0000E+00  0.0000E+00
    -21.387  0.0000E+00  0.0000E+00
    -21.280  0.0000E+00  0.0000E+00
    -21.173  0.0000E+00  0.0000E+00
    -21.065  0.0000E+00  0.0000E+00
    -20.958  0.0000E+00  0.0000E+00
    -20.851  0.0000E+00  0.0000E+00
    -20.744  0.0000E+00  0.1600E+02
    -20.637  0.0000E+00  0.1600E+02
    -20.529  0.0000E+00  0.1600E+02
    -20.422  0.0000E+00  0.1600E+02
    -20.315  0.0000E+00  0.1600E+02
    -20.208  0.0000E+00  0.1600E+02
    -20.101  0.0000E+00  0.1600E+02
    -19.993  0.0000E+00  0.1600E+02
    -19.886  0.0000E+00  0.1600E+02
    -19.779  0.0000E+00  0.1600E+02
    -19.672  0.0000E+00  0.1600E+02
    -19.565  0.0000E+00  0.1600E+02
    -19.457  0.0000E+00  0.1600E+02
    -19.350  0.0000E+00  0.1600E+02
    -19.243  0.0000E+00  0.1600E+02
    -19.136  0.0000E+00  0.1600E+02
    -19.029  0.0000E+00  0.1600E+02
    -18.921  0.0000E+00  0.1600E+02
    -18.814  0.0000E+00  0.1600E+02
    -18.707  0.0000E+00  0.1600E+02
    -18.600  0.0000E+00  0.1600E+02
    -18.493  0.0000E+00  0.1600E+02
    -18.386  0.0000E+00  0.1600E+02
    -18.278  0.0000E+00  0.1600E+02
    -18.171  0.0000E+00  0.1600E+02
    -18.064  0.0000E+00  0.1600E+02
    -17.957  0.0000E+00  0.1600E+02
    -17.850  0.0000E+00  0.1600E+02
    -17.742  0.0000E+00  0.1600E+02
    -17.635  0.0000E+00  0.1600E+02
    -17.528  0.0000E+00  0.1600E+02
    -17.421  0.0000E+00  0.1600E+02
    -17.314  0.0000E+00  0.1600E+02
    -17.206  0.4987E+02  0.3735E+02
    -17.099  0.0000E+00  0.9600E+02
    -16.992  0.0000E+00  0.9600E+02
    -16.885  0.0000E+00  0.9600E+02
    -16.778  0.0000E+00  0.9600E+02
    -16.670  0.0000E+00  0.9600E+02
    -16.563  0.0000E+00  0.9600E+02
    -16.456  0.0000E+00  0.9600E+02
    -16.349  0.0000E+00  0.9600E+02
    -16.242  0.0000E+00  0.9600E+02
    -16.134  0.0000E+00  0.9600E+02
    -16.027  0.0000E+00  0.9600E+02
    -15.920  0.0000E+00  0.9600E+02
    -15.813  0.0000E+00  0.9600E+02
    -15.706  0.0000E+00  0.9600E+02
    -15.598  0.0000E+00  0.9600E+02
    -15.491  0.0000E+00  0.9600E+02
    -15.384  0.0000E+00  0.9600E+02
    -15.277  0.0000E+00  0.9600E+02
    -15.170  0.0000E+00  0.9600E+02
    -15.063  0.0000E+00  0.9600E+02
    -14.955  0.0000E+00  0.9600E+02
    -14.848  0.0000E+00  0.9600E+02
    -14.741  0.0000E+00  0.9600E+02
    -14.634  0.0000E+00  0.9600E+02
    -14.527  0.0000E+00  0.9600E+02
    -14.419  0.0000E+00  0.9600E+02
    -14.312  0.0000E+00  0.9600E+02
    -14.205  0.0000E+00  0.9600E+02
    -14.098  0.0000E+00  0.9600E+02
    -13.991  0.0000E+00  0.9600E+02
    -13.883  0.0000E+00  0.9600E+02
    -13.776  0.0000E+00  0.9600E+02
    -13.669  0.0000E+00  0.9600E+02
    -13.562  0.0000E+00  0.9600E+02
    -13.455  0.0000E+00  0.9600E+02
    -13.347  0.0000E+00  0.9600E+02
    -13.240  0.1057E-05  0.1040E+03
    -13.133  0.0000E+00  0.1120E+03
    -13.026  0.0000E+00  0.1120E+03
    -12.919  0.0000E+00  0.1120E+03
    -12.811  0.0000E+00  0.1120E+03
    -12.704  0.0000E+00  0.1120E+03
    -12.597  0.0000E+00  0.1120E+03
    -12.490  0.0000E+00  0.1120E+03
    -12.383  0.0000E+00  0.1120E+03
    -12.276  0.6615E+01  0.1132E+03
    -12.168  0.1553E+01  0.1156E+03
    -12.061  0.2853E+01  0.1213E+03
    -11.954  0.5564E+01  0.1276E+03
    -11.847  0.1381E+01  0.1296E+03
    -11.740  0.0000E+00  0.1369E+03
    -11.632  0.3495E+00  0.1418E+03
    -11.525  0.7355E+01  0.1475E+03
    -11.418  0.5421E+01  0.1558E+03
    -11.311  0.0000E+00  0.1600E+03
    -11.204  0.0000E+00  0.1600E+03
    -11.096  0.0000E+00  0.1600E+03
    -10.989  0.0000E+00  0.1600E+03
    -10.882  0.0000E+00  0.1600E+03
    -10.775  0.0000E+00  0.1600E+03
    -10.668  0.0000E+00  0.1600E+03
    -10.560  0.0000E+00  0.1600E+03
    -10.453  0.0000E+00  0.1600E+03
    -10.346  0.0000E+00  0.1600E+03
    -10.239  0.0000E+00  0.1600E+03
    -10.132  0.0000E+00  0.1600E+03
    -10.024  0.0000E+00  0.1600E+03
     -9.917  0.0000E+00  0.1600E+03
     -9.810  0.0000E+00  0.1600E+03
     -9.703  0.0000E+00  0.1600E+03
     -9.596  0.0000E+00  0.1600E+03
     -9.489  0.0000E+00  0.1600E+03
     -9.381  0.0000E+00  0.1600E+03
     -9.274  0.0000E+00  0.1600E+03
     -9.167  0.4561E+02  0.1680E+03
     -9.060  0.0000E+00  0.1840E+03
     -8.953  0.0000E+00  0.1920E+03
     -8.845  0.0000E+00  0.1920E+03
     -8.738  0.0000E+00  0.1920E+03
     -8.631  0.0000E+00  0.1920E+03
     -8.524  0.0000E+00  0.1920E+03
     -8.417  0.0000E+00  0.1920E+03
     -8.309  0.0000E+00  0.1920E+03
     -8.202  0.0000E+00  0.1920E+03
     -8.095  0.0000E+00  0.1920E+03
     -7.988  0.0000E+00  0.1921E+03
     -7.881  0.1382E+01  0.1922E+03
     -7.773  0.0000E+00  0.1925E+03
     -7.666  0.0000E+00  0.1934E+03
     -7.559  0.1382E+01  0.1943E+03
     -7.452  0.1224E+01  0.1946E+03
     -7.345  0.1422E-10  0.1964E+03
     -7.237  0.0000E+00  0.1988E+03
     -7.130  0.3482E-02  0.2000E+03
     -7.023  0.0000E+00  0.2089E+03
     -6.916  0.1106E+02  0.2193E+03
     -6.809  0.6910E+00  0.2202E+03
     -6.701  0.0000E+00  0.2216E+03
     -6.594  0.0000E+00  0.2226E+03
     -6.487  0.0000E+00  0.2233E+03
     -6.380  0.0000E+00  0.2235E+03
     -6.273  0.0000E+00  0.2239E+03
     -6.166  0.0000E+00  0.2239E+03
     -6.058  0.0000E+00  0.2240E+03
     -5.951  0.0000E+00  0.2240E+03
     -5.844  0.0000E+00  0.2240E+03
     -5.737  0.0000E+00  0.2240E+03
     -5.630  0.0000E+00  0.2240E+03
     -5.522  0.0000E+00  0.2240E+03
     -5.415  0.0000E+00  0.2240E+03
     -5.308  0.0000E+00  0.2240E+03
     -5.201  0.0000E+00  0.2240E+03
     -5.094  0.0000E+00  0.2240E+03
     -4.986  0.0000E+00  0.2240E+03
     -4.879  0.0000E+00  0.2240E+03
     -4.772  0.2723E+02  0.2354E+03
     -4.665  0.0000E+00  0.2560E+03
     -4.558  0.0000E+00  0.2560E+03
     -4.450  0.0000E+00  0.2560E+03
     -4.343  0.0000E+00  0.2560E+03
     -4.236  0.0000E+00  0.2560E+03
     -4.129  0.0000E+00  0.2560E+03
     -4.022  0.0000E+00  0.2560E+03
     -3.914  0.0000E+00  0.2560E+03
     -3.807  0.0000E+00  0.2560E+03
     -3.700  0.0000E+00  0.2560E+03
     -3.593  0.0000E+00  0.2560E+03
     -3.486  0.0000E+00  0.2560E+03
     -3.379  0.0000E+00  0.2560E+03
     -3.271  0.0000E+00  0.2560E+03
     -3.164  0.0000E+00  0.2560E+03
     -3.057  0.0000E+00  0.2560E+03
     -2.950  0.0000E+00  0.2560E+03
     -2.843  0.0000E+00  0.2560E+03
     -2.735  0.2764E+01  0.2573E+03
     -2.628  0.2639E+01  0.2605E+03
     -2.521  0.8952E+00  0.2629E+03
     -2.414  0.0000E+00  0.2653E+03
     -2.307  0.1441E+01  0.2674E+03
     -2.199  0.1359E+01  0.2713E+03
     -2.092  0.2560E+01  0.2745E+03
     -1.985  0.9674E+01  0.2785E+03
     -1.878  0.0000E+00  0.2796E+03
     -1.771  0.0000E+00  0.2800E+03
     -1.663  0.1250E-03  0.2802E+03
     -1.556  0.1315E+01  0.2837E+03
     -1.449  0.1410E+02  0.2893E+03
     -1.342  0.7646E+01  0.2960E+03
     -1.235  0.2757E+01  0.3018E+03
     -1.127  0.2792E+01  0.3063E+03
     -1.020  0.2828E+01  0.3106E+03
     -0.913  0.6906E+01  0.3161E+03
     -0.806  0.1417E+02  0.3231E+03
     -0.699  0.3283E+01  0.3302E+03
     -0.591  0.8198E+01  0.3366E+03
     -0.484  0.1417E+02  0.3448E+03
     -0.377  0.1693E+02  0.3537E+03
     -0.270  0.9721E+01  0.3626E+03
     -0.163  0.5860E+01  0.3709E+03
     -0.056  0.1274E+01  0.3790E+03
      0.052  0.9720E+01  0.3867E+03
      0.159  0.4113E+01  0.3901E+03
      0.266  0.3527E+01  0.3933E+03
      0.373  0.2764E+01  0.3953E+03
      0.480  0.3089E+01  0.3971E+03
      0.588  0.2764E+01  0.3984E+03
      0.695  0.0000E+00  0.3993E+03
      0.802  0.0000E+00  0.3993E+03
      0.909  0.0000E+00  0.3998E+03
      1.016  0.0000E+00  0.3999E+03
      1.124  0.0000E+00  0.4000E+03
      1.231  0.0000E+00  0.4000E+03
      1.338  0.0000E+00  0.4000E+03
      1.445  0.0000E+00  0.4000E+03
      1.552  0.0000E+00  0.4000E+03
      1.660  0.0000E+00  0.4000E+03
      1.767  0.0000E+00  0.4000E+03
      1.874  0.0000E+00  0.4000E+03
      1.981  0.0000E+00  0.4000E+03
      2.088  0.0000E+00  0.4000E+03
      2.196  0.0000E+00  0.4000E+03
      2.303  0.0000E+00  0.4000E+03
      2.410  0.0000E+00  0.4000E+03
      2.517  0.0000E+00  0.4000E+03
      2.624  0.0000E+00  0.4000E+03
      2.731  0.0000E+00  0.4000E+03
      2.839  0.0000E+00  0.4000E+03
      2.946  0.0000E+00  0.4000E+03
      3.053  0.0000E+00  0.4000E+03
      3.160  0.0000E+00  0.4000E+03
      3.267  0.3057E-02  0.4000E+03
      3.375  0.0000E+00  0.4007E+03
      3.482  0.3071E-02  0.4010E+03
      3.589  0.0000E+00  0.4029E+03
      3.696  0.0000E+00  0.4036E+03
      3.803  0.2764E+01  0.4059E+03
      3.911  0.0000E+00  0.4067E+03
      4.018  0.0000E+00  0.4077E+03
      4.125  0.6910E+00  0.4084E+03
      4.232  0.0000E+00  0.4093E+03
      4.339  0.0000E+00  0.4107E+03
      4.447  0.2764E+01  0.4124E+03
      4.554  0.0000E+00  0.4145E+03
      4.661  0.4146E+01  0.4169E+03
      4.768  0.4126E-05  0.4193E+03
      4.875  0.0000E+00  0.4227E+03
      4.983  0.2764E+01  0.4239E+03
      5.090  0.1289E-13  0.4239E+03
      5.197  0.0000E+00  0.4240E+03
      5.304  0.0000E+00  0.4240E+03
      5.411  0.0000E+00  0.4240E+03
      5.519  0.6910E+00  0.4241E+03
      5.626  0.1241E+01  0.4242E+03
      5.733  0.2764E+01  0.4256E+03
      5.840  0.4657E-07  0.4281E+03
      5.947  0.1069E+01  0.4318E+03
      6.054  0.1223E+00  0.4354E+03
      6.162  0.0000E+00  0.4388E+03
      6.269  0.1200E-01  0.4412E+03
      6.376  0.6537E+01  0.4435E+03
      6.483  0.3521E+01  0.4459E+03
      6.590  0.2762E+01  0.4491E+03
      6.698  0.6910E+00  0.4535E+03
      6.805  0.3259E+01  0.4578E+03
      6.912  0.1344E+01  0.4621E+03
      7.019  0.1382E+01  0.4650E+03
      7.126  0.1382E+01  0.4708E+03
      7.234  0.1073E+01  0.4750E+03
      7.341  0.1386E+01  0.4790E+03
      7.448  0.7126E+00  0.4821E+03
      7.555  0.2679E+01  0.4858E+03
      7.662  0.1382E+01  0.4887E+03
      7.770  0.3902E+01  0.4925E+03
      7.877  0.2823E+01  0.4952E+03
      7.984  0.3890E+01  0.4980E+03
      8.091  0.4490E+01  0.5005E+03
      8.198  0.6125E-03  0.5019E+03
      8.306  0.0000E+00  0.5036E+03
      8.413  0.0000E+00  0.5039E+03
      8.520  0.0000E+00  0.5040E+03
      8.627  0.0000E+00  0.5040E+03
      8.734  0.0000E+00  0.5040E+03
      8.841  0.0000E+00  0.5040E+03
      8.949  0.0000E+00  0.5040E+03
      9.056  0.0000E+00  0.5040E+03
      9.163  0.0000E+00  0.5040E+03
      9.270  0.0000E+00  0.5040E+03
      9.377  0.0000E+00  0.5040E+03
      9.485  0.0000E+00  0.5040E+03
      9.592  0.0000E+00  0.5040E+03
      9.699  0.0000E+00  0.5040E+03
      9.806  0.0000E+00  0.5040E+03
      9.913  0.0000E+00  0.5040E+03
