       N       E                     dE             d eps       ncg     rms          ort
DAV:   1     0.394114909951E+05    0.39411E+05   -0.10844E+06  3528   0.494E+03
DAV:   2     0.962774972665E+04   -0.29784E+05   -0.29168E+05  3528   0.168E+03
DAV:   3     0.216162505929E+04   -0.74661E+04   -0.72926E+04  3528   0.532E+02
DAV:   4     0.497163860821E+03   -0.16645E+04   -0.15905E+04  3528   0.223E+02
DAV:   5     0.276786768772E+03   -0.22038E+03   -0.21654E+03  3528   0.866E+01
SDA:   6    -0.444178261582E+03   -0.72097E+03   -0.21654E+03  3528   0.126E+03 0.000E+00
CGA:   7    -0.466039016787E+03   -0.21861E+02   -0.21926E+02  3528   0.452E+02 0.824E+00
CGA:   8    -0.474763614968E+03   -0.87246E+01   -0.87249E+01  3528   0.953E+01-0.236E-01
CGA:   9    -0.477891752752E+03   -0.31281E+01   -0.31284E+01  3528   0.308E+01-0.143E-01
CGA:  10    -0.478856243436E+03   -0.96449E+00   -0.96558E+00  3528   0.114E+01-0.106E-01
CGA:  11    -0.479105852355E+03   -0.24961E+00   -0.24964E+00  3528   0.462E+00-0.213E-02
CGA:  12    -0.479235142865E+03   -0.12929E+00   -0.12943E+00  3528   0.117E+00-0.195E-02
CGA:  13    -0.479275577884E+03   -0.40435E-01   -0.40509E-01  3528   0.363E-01-0.519E-03
CGA:  14    -0.479286947197E+03   -0.11369E-01   -0.11371E-01  3528   0.156E-01-0.671E-05
CGA:  15    -0.479290377647E+03   -0.34305E-02   -0.34287E-02  3528   0.679E-02-0.269E-03
CGA:  16    -0.479292197451E+03   -0.18198E-02   -0.18183E-02  3528   0.212E-02 0.329E-04
CGA:  17    -0.479292983814E+03   -0.78636E-03   -0.79441E-03  3528   0.811E-03-0.552E-04
CGA:  18    -0.479293247313E+03   -0.26350E-03   -0.26220E-03  3528   0.303E-03 0.135E-04
CGA:  19    -0.479293344838E+03   -0.97525E-04   -0.98432E-04  3528   0.146E-03-0.114E-04
CGA:  20    -0.479293373899E+03   -0.29061E-04   -0.29610E-04  3528   0.549E-04 0.166E-04
CGA:  21    -0.479293394123E+03   -0.20224E-04   -0.20818E-04  3528   0.277E-04-0.604E-05
CGA:  22    -0.479293402003E+03   -0.78803E-05   -0.78827E-05  3528   0.104E-04-0.295E-07
CGA:  23    -0.479293404528E+03   -0.25247E-05   -0.25364E-05  3528   0.386E-05 0.165E-05
CGA:  24    -0.479293405435E+03   -0.90687E-06   -0.24538E-05  3528   0.136E-04-0.518E-05
CGA:  25    -0.479293406243E+03   -0.80818E-06   -0.13319E-05  3528   0.196E-05 0.313E-05
CGA:  26    -0.479293406626E+03   -0.38340E-06   -0.41432E-06  3528   0.737E-06 0.362E-06
CGA:  27    -0.479293407208E+03   -0.58175E-06    0.34483E-06  3528   0.516E-06-0.290E-06
CGA:  28    -0.479293407247E+03   -0.39272E-07   -0.47076E-07  3528   0.332E-06 0.763E-07
CGA:  29    -0.479293407225E+03    0.22203E-07   -0.22334E-07  3528   0.203E-06 0.236E-06
CGA:  30    -0.479293407234E+03   -0.92623E-08   -0.24147E-07  3528   0.893E-07 0.125E-06
CGA:  31    -0.479293407278E+03   -0.43332E-07    0.22006E-06  3528   0.295E-07 0.385E-07
CGA:  32    -0.479293407285E+03   -0.70795E-08   -0.81678E-08  3528   0.185E-07 0.259E-07
   1 F= -.47929341E+03 E0= -.47929341E+03  d E =0.000000E+00
