   12   12    1    1
  0.2070820E+02  0.6290120E-09  0.6273890E-09  0.6297040E-09  0.5000000E-15
  1.000000000000000E-004
  CAR 
 Name                                    
     50    764     32
 
  0.0000000E+00  0.0000000E+00  0.0000000E+00  0.4629630E-02
    1      -18.235134
    2      -15.370443
    3      -15.348043
    4      -15.306015
    5      -15.289329
    6      -15.285445
    7      -11.411854
    8      -10.959231
    9      -10.275871
   10       -9.995122
   11       -7.949707
   12       -7.784609
   13       -5.964972
   14       -5.416227
   15       -3.640830
   16       -3.626746
   17       -2.171346
   18       -2.171025
   19       -2.016139
   20       -0.079096
   21       -0.043887
   22        0.039326
   23        0.169058
   24        0.433350
   25        0.444986
   26        4.969259
   27        5.914361
   28        6.067667
   29        6.322181
   30        6.425826
   31        6.473055
   32        7.159667
 
  0.1666667E+00  0.0000000E+00  0.0000000E+00  0.9259259E-02
    1      -18.234841
    2      -15.370432
    3      -15.345198
    4      -15.306013
    5      -15.289478
    6      -15.285576
    7      -11.433169
    8      -10.908790
    9      -10.275336
   10      -10.028801
   11       -7.947510
   12       -7.782211
   13       -5.971041
   14       -5.579707
   15       -3.661892
   16       -3.646071
   17       -2.144868
   18       -2.134427
   19       -1.610290
   20       -0.055033
   21       -0.047171
   22        0.038966
   23        0.183513
   24        0.370686
   25        0.391038
   26        5.089117
   27        5.901941
   28        6.002091
   29        6.236585
   30        6.457645
   31        6.546492
   32        6.607577
 
  0.3333333E+00  0.0000000E+00  0.0000000E+00  0.9259259E-02
    1      -18.234257
    2      -15.370418
    3      -15.339497
    4      -15.306017
    5      -15.289783
    6      -15.285850
    7      -11.468796
    8      -10.801355
    9      -10.274051
   10      -10.111038
   11       -7.943086
   12       -7.777427
   13       -5.998762
   14       -5.825743
   15       -3.702459
   16       -3.683649
   17       -2.077002
   18       -2.058281
   19       -0.864857
   20       -0.093173
   21       -0.008805
   22        0.075868
   23        0.245872
   24        0.267654
   25        0.395143
   26        4.589764
   27        5.289286
   28        5.924130
   29        6.204330
   30        6.385636
   31        6.868196
   32        7.075741
 
  0.5000000E+00  0.0000000E+00  0.0000000E+00  0.4629630E-02
    1      -18.233991
    2      -15.370412
    3      -15.336635
    4      -15.306025
    5      -15.289953
    6      -15.285998
    7      -11.484303
    8      -10.739017
    9      -10.272959
   10      -10.164162
   11       -7.940909
   12       -7.775030
   13       -6.040315
   14       -5.899215
   15       -3.722025
   16       -3.701906
   17       -2.040886
   18       -2.018578
   19       -0.586005
   20       -0.122598
   21        0.011285
   22        0.100752
   23        0.185412
   24        0.218059
   25        0.755569
   26        3.730974
   27        5.231465
   28        5.952721
   29        6.409762
   30        6.463150
   31        7.032584
   32        7.408842
 
  0.0000000E+00  0.1666667E+00  0.0000000E+00  0.9259259E-02
    1      -18.234838
    2      -15.368279
    3      -15.347013
    4      -15.306167
    5      -15.289331
    6      -15.285615
    7      -11.408585
    8      -10.926365
    9      -10.313453
   10      -10.011867
   11       -7.927293
   12       -7.785838
   13       -5.976455
   14       -5.584713
   15       -3.653305
   16       -3.625138
   17       -2.153965
   18       -2.028883
   19       -1.696236
   20       -0.169505
   21       -0.046983
   22        0.034560
   23        0.135093
   24        0.406774
   25        0.447012
   26        5.176672
   27        5.733209
   28        6.009124
   29        6.351040
   30        6.531600
   31        6.674660
   32        7.052174
 
  0.1666667E+00  0.1666667E+00  0.0000000E+00  0.9259259E-02
    1      -18.234531
    2      -15.368242
    3      -15.344181
    4      -15.306166
    5      -15.289477
    6      -15.285751
    7      -11.426890
    8      -10.880347
    9      -10.312449
   10      -10.042298
   11       -7.926399
   12       -7.783758
   13       -5.986245
   14       -5.737236
   15       -3.668240
   16       -3.638584
   17       -2.135855
   18       -1.795895
   19       -1.489303
   20       -0.160214
   21       -0.085315
   22        0.012797
   23        0.147669
   24        0.378675
   25        0.441921
   26        5.251244
   27        5.647218
   28        5.975517
   29        6.324673
   30        6.460406
   31        6.546580
   32        6.774782
 
  0.3333333E+00  0.1666667E+00  0.0000000E+00  0.9259259E-02
    1      -18.233969
    2      -15.368198
    3      -15.338490
    4      -15.306166
    5      -15.289781
    6      -15.286025
    7      -11.458588
    8      -10.780713
    9      -10.310434
   10      -10.116799
   11       -7.924537
   12       -7.779616
   13       -6.078913
   14       -5.910458
   15       -3.696967
   16       -3.667754
   17       -2.073136
   18       -1.662593
   19       -0.831217
   20       -0.206834
   21       -0.094410
   22        0.037088
   23        0.195972
   24        0.357763
   25        0.489629
   26        4.514659
   27        5.382370
   28        5.727991
   29        6.294571
   30        6.352964
   31        6.766533
   32        7.121219
 
  0.5000000E+00  0.1666667E+00  0.0000000E+00  0.9259259E-02
    1      -18.233694
    2      -15.368182
    3      -15.335625
    4      -15.306163
    5      -15.289938
    6      -15.286160
    7      -11.472649
    8      -10.722599
    9      -10.309364
   10      -10.164725
   11       -7.923558
   12       -7.777498
   13       -6.171321
   14       -5.930904
   15       -3.709541
   16       -3.684095
   17       -2.038886
   18       -1.613309
   19       -0.618867
   20       -0.238287
   21       -0.075353
   22        0.076824
   23        0.155792
   24        0.414353
   25        0.784561
   26        3.649989
   27        5.363910
   28        5.675051
   29        6.344746
   30        6.528626
   31        6.908945
   32        7.207828
 
 -0.3333333E+00  0.1666667E+00  0.0000000E+00  0.9259259E-02
    1      -18.233969
    2      -15.368198
    3      -15.338490
    4      -15.306166
    5      -15.289781
    6      -15.286025
    7      -11.458611
    8      -10.780683
    9      -10.310453
   10      -10.116779
   11       -7.924527
   12       -7.779588
   13       -6.078914
   14       -5.910526
   15       -3.696911
   16       -3.667949
   17       -2.073183
   18       -1.662364
   19       -0.831343
   20       -0.206741
   21       -0.094267
   22        0.037316
   23        0.196032
   24        0.357927
   25        0.489233
   26        4.514915
   27        5.382132
   28        5.727654
   29        6.295389
   30        6.352155
   31        6.766882
   32        7.120543
 
 -0.1666667E+00  0.1666667E+00  0.0000000E+00  0.9259259E-02
    1      -18.234531
    2      -15.368242
    3      -15.344181
    4      -15.306166
    5      -15.289477
    6      -15.285751
    7      -11.426917
    8      -10.880315
    9      -10.312464
   10      -10.042281
   11       -7.926391
   12       -7.783728
   13       -5.986263
   14       -5.737292
   15       -3.668202
   16       -3.638766
   17       -2.135890
   18       -1.795331
   19       -1.489788
   20       -0.159990
   21       -0.085553
   22        0.013326
   23        0.147694
   24        0.378644
   25        0.441757
   26        5.250866
   27        5.648705
   28        5.974121
   29        6.324893
   30        6.460359
   31        6.546172
   32        6.774324
 
  0.0000000E+00  0.3333333E+00  0.0000000E+00  0.9259259E-02
    1      -18.234228
    2      -15.364605
    3      -15.344275
    4      -15.306487
    5      -15.289334
    6      -15.285980
    7      -11.402081
    8      -10.840135
    9      -10.412580
   10      -10.041278
   11       -7.882916
   12       -7.790252
   13       -5.998201
   14       -5.853126
   15       -3.671752
   16       -3.628055
   17       -2.091713
   18       -1.929133
   19       -0.918875
   20       -0.296210
   21       -0.145880
   22        0.062764
   23        0.153966
   24        0.386225
   25        0.449051
   26        4.533680
   27        5.711426
   28        5.985579
   29        6.526781
   30        6.735960
   31        6.979364
   32        7.104409
 
  0.1666667E+00  0.3333333E+00  0.0000000E+00  0.9259259E-02
    1      -18.233925
    2      -15.364449
    3      -15.341545
    4      -15.306490
    5      -15.289471
    6      -15.286116
    7      -11.414496
    8      -10.804681
    9      -10.407926
   10      -10.066145
   11       -7.884834
   12       -7.788710
   13       -6.064980
   14       -5.940856
   15       -3.669811
   16       -3.638041
   17       -2.077494
   18       -1.545593
   19       -0.887462
   20       -0.349566
   21       -0.189217
   22        0.048719
   23        0.208032
   24        0.370246
   25        0.488486
   26        4.447012
   27        5.648436
   28        5.986148
   29        6.324331
   30        6.660948
   31        6.682948
   32        7.236712
 
  0.3333333E+00  0.3333333E+00  0.0000000E+00  0.9259259E-02
    1      -18.233369
    2      -15.364223
    3      -15.335991
    4      -15.306482
    5      -15.289773
    6      -15.286384
    7      -11.437575
    8      -10.724954
    9      -10.398797
   10      -10.126969
   11       -7.888277
   12       -7.785560
   13       -6.315168
   14       -5.948960
   15       -3.681053
   16       -3.646740
   17       -2.019663
   18       -0.966372
   19       -0.751499
   20       -0.409810
   21       -0.166396
   22       -0.006763
   23        0.209599
   24        0.488754
   25        0.627332
   26        4.188512
   27        4.526710
   28        6.027276
   29        6.173279
   30        6.581898
   31        7.030925
   32        7.325996
 
  0.5000000E+00  0.3333333E+00  0.0000000E+00  0.9259259E-02
    1      -18.233111
    2      -15.364142
    3      -15.333168
    4      -15.306483
    5      -15.289928
    6      -15.286518
    7      -11.448394
    8      -10.677640
    9      -10.394320
   10      -10.165852
   11       -7.889759
   12       -7.783945
   13       -6.430975
   14       -5.944504
   15       -3.690893
   16       -3.647694
   17       -1.987245
   18       -0.862639
   19       -0.709947
   20       -0.310435
   21       -0.170663
   22        0.003326
   23        0.147499
   24        0.656834
   25        0.924327
   26        3.463530
   27        4.273152
   28        6.017783
   29        6.178076
   30        6.650691
   31        7.175615
   32        7.261720
 
 -0.3333333E+00  0.3333333E+00  0.0000000E+00  0.9259259E-02
    1      -18.233370
    2      -15.364223
    3      -15.335991
    4      -15.306482
    5      -15.289773
    6      -15.286384
    7      -11.437600
    8      -10.724913
    9      -10.398825
   10      -10.126951
   11       -7.888272
   12       -7.785525
   13       -6.315178
   14       -5.949014
   15       -3.680953
   16       -3.646978
   17       -2.019727
   18       -0.965734
   19       -0.751873
   20       -0.409917
   21       -0.166306
   22       -0.006247
   23        0.209552
   24        0.488939
   25        0.626760
   26        4.190195
   27        4.524848
   28        6.027324
   29        6.173377
   30        6.582080
   31        7.031600
   32        7.299862
 
 -0.1666667E+00  0.3333333E+00  0.0000000E+00  0.9259259E-02
    1      -18.233925
    2      -15.364449
    3      -15.341545
    4      -15.306490
    5      -15.289471
    6      -15.286116
    7      -11.414524
    8      -10.804639
    9      -10.407951
   10      -10.066127
   11       -7.884834
   12       -7.788672
   13       -6.064972
   14       -5.940934
   15       -3.669793
   16       -3.638196
   17       -2.077558
   18       -1.545322
   19       -0.887554
   20       -0.349445
   21       -0.189424
   22        0.049373
   23        0.207935
   24        0.370223
   25        0.488270
   26        4.447281
   27        5.647689
   28        5.986189
   29        6.324350
   30        6.661444
   31        6.682973
   32        7.230550
 
  0.0000000E+00  0.5000000E+00  0.0000000E+00  0.4629630E-02
    1      -18.233952
    2      -15.363144
    3      -15.342525
    4      -15.306672
    5      -15.289341
    6      -15.286186
    7      -11.398896
    8      -10.773643
    9      -10.486959
   10      -10.054249
   11       -7.859782
   12       -7.794814
   13       -5.988609
   14       -5.984549
   15       -3.679767
   16       -3.630623
   17       -2.057739
   18       -1.877602
   19       -0.632981
   20       -0.353629
   21       -0.185708
   22        0.146016
   23        0.172334
   24        0.417742
   25        0.556395
   26        3.742265
   27        5.979486
   28        6.205634
   29        6.456119
   30        6.793186
   31        6.914878
   32        7.467772
 
  0.1666667E+00  0.5000000E+00  0.0000000E+00  0.9259259E-02
    1      -18.233624
    2      -15.362875
    3      -15.339887
    4      -15.306658
    5      -15.289464
    6      -15.286305
    7      -11.408319
    8      -10.745723
    9      -10.477697
   10      -10.076836
   11       -7.863452
   12       -7.793192
   13       -6.150198
   14       -5.975203
   15       -3.665611
   16       -3.643545
   17       -2.045293
   18       -1.471642
   19       -0.655791
   20       -0.449319
   21       -0.217364
   22        0.129182
   23        0.354252
   24        0.355749
   25        0.596616
   26        3.652191
   27        5.719700
   28        6.228106
   29        6.462793
   30        6.536068
   31        6.813687
   32        7.465132
 
  0.3333333E+00  0.5000000E+00  0.0000000E+00  0.9259259E-02
    1      -18.233089
    2      -15.362494
    3      -15.334460
    4      -15.306650
    5      -15.289773
    6      -15.286570
    7      -11.426808
    8      -10.680629
    9      -10.459723
   10      -10.131701
   11       -7.870090
   12       -7.789966
   13       -6.425320
   14       -5.956703
   15       -3.668670
   16       -3.641963
   17       -1.989788
   18       -0.719356
   19       -0.668934
   20       -0.581959
   21       -0.181131
   22        0.060680
   23        0.226502
   24        0.640817
   25        0.800659
   26        3.454762
   27        4.355329
   28        6.147942
   29        6.443730
   30        6.699347
   31        6.984990
   32        7.350674
 
  0.5000000E+00  0.5000000E+00  0.0000000E+00  0.4629630E-02
    1      -18.232827
    2      -15.362347
    3      -15.331675
    4      -15.306641
    5      -15.289916
    6      -15.286703
    7      -11.435730
    8      -10.641049
    9      -10.451002
   10      -10.166430
   11       -7.872975
   12       -7.788297
   13       -6.545971
   14       -5.947522
   15       -3.680746
   16       -3.631225
   17       -1.958215
   18       -0.761426
   19       -0.619523
   20       -0.320992
   21       -0.158156
   22        0.073402
   23        0.147591
   24        0.767584
   25        1.154950
   26        3.347210
   27        3.425721
   28        6.149752
   29        6.399969
   30        6.677346
   31        7.213230
   32        7.322124
 
  0.0000000E+00  0.0000000E+00  0.1666667E+00  0.9259259E-02
    1      -18.234899
    2      -15.368100
    3      -15.347276
    4      -15.306145
    5      -15.289511
    6      -15.285442
    7      -11.409939
    8      -10.922349
    9      -10.320101
   10      -10.005115
   11       -7.949040
   12       -7.769763
   13       -5.975346
   14       -5.577222
   15       -3.640198
   16       -3.636593
   17       -2.141936
   18       -2.053164
   19       -1.686686
   20       -0.151844
   21       -0.085361
   22       -0.004600
   23        0.168784
   24        0.430712
   25        0.436428
   26        5.164775
   27        5.719940
   28        6.040421
   29        6.421739
   30        6.550586
   31        6.609636
   32        6.923787
 
  0.1666667E+00  0.0000000E+00  0.1666667E+00  0.9259259E-02
    1      -18.234618
    2      -15.368089
    3      -15.344417
    4      -15.306146
    5      -15.289670
    6      -15.285572
    7      -11.431340
    8      -10.872831
    9      -10.318820
   10      -10.035558
   11       -7.946897
   12       -7.765478
   13       -5.985710
   14       -5.736741
   15       -3.663135
   16       -3.658000
   17       -2.112711
   18       -1.792273
   19       -1.515496
   20       -0.125089
   21       -0.119054
   22        0.031992
   23        0.174407
   24        0.363888
   25        0.435229
   26        5.224157
   27        5.687257
   28        6.042206
   29        6.210244
   30        6.403826
   31        6.622858
   32        6.704607
 
  0.3333333E+00  0.0000000E+00  0.1666667E+00  0.9259259E-02
    1      -18.234042
    2      -15.368081
    3      -15.338690
    4      -15.306147
    5      -15.289974
    6      -15.285849
    7      -11.462476
    8      -10.773929
    9      -10.313721
   10      -10.113359
   11       -7.942550
   12       -7.763310
   13       -6.072139
   14       -5.916754
   15       -3.696507
   16       -3.684643
   17       -2.040431
   18       -1.683693
   19       -0.849273
   20       -0.191692
   21       -0.064331
   22        0.050910
   23        0.232275
   24        0.319964
   25        0.466749
   26        4.531975
   27        5.391511
   28        5.766234
   29        6.035008
   30        6.386269
   31        6.991635
   32        7.053811
 
  0.5000000E+00  0.0000000E+00  0.1666667E+00  0.9259259E-02
    1      -18.233748
    2      -15.368079
    3      -15.335818
    4      -15.306142
    5      -15.290118
    6      -15.285989
    7      -11.473891
    8      -10.719365
    9      -10.309429
   10      -10.164638
   11       -7.940364
   12       -7.765518
   13       -6.166541
   14       -5.929116
   15       -3.717004
   16       -3.680376
   17       -1.996919
   18       -1.657169
   19       -0.643047
   20       -0.213898
   21       -0.048310
   22        0.045427
   23        0.172528
   24        0.400885
   25        0.783926
   26        3.646923
   27        5.389237
   28        5.772615
   29        6.013554
   30        6.543601
   31        7.079434
   32        7.276745
 
 -0.3333333E+00  0.0000000E+00  0.1666667E+00  0.9259259E-02
    1      -18.234022
    2      -15.368079
    3      -15.338697
    4      -15.306146
    5      -15.289955
    6      -15.285849
    7      -11.457182
    8      -10.780212
    9      -10.314111
   10      -10.113647
   11       -7.942474
   12       -7.769955
   13       -6.076282
   14       -5.900091
   15       -3.700271
   16       -3.653102
   17       -2.029301
   18       -1.724556
   19       -0.822022
   20       -0.259377
   21       -0.082623
   22        0.008964
   23        0.242240
   24        0.311322
   25        0.529635
   26        4.477464
   27        5.446655
   28        5.856366
   29        5.963123
   30        6.355667
   31        6.971053
   32        7.088311
 
 -0.1666667E+00  0.0000000E+00  0.1666667E+00  0.9259259E-02
    1      -18.234595
    2      -15.368085
    3      -15.344423
    4      -15.306141
    5      -15.289658
    6      -15.285570
    7      -11.425039
    8      -10.880004
    9      -10.318161
   10      -10.037067
   11       -7.946806
   12       -7.772000
   13       -5.983368
   14       -5.725810
   15       -3.662003
   16       -3.630196
   17       -2.101665
   18       -1.883215
   19       -1.440763
   20       -0.185697
   21       -0.132121
   22       -0.014162
   23        0.185721
   24        0.369121
   25        0.468629
   26        5.262908
   27        5.589274
   28        5.970371
   29        6.328841
   30        6.497446
   31        6.665192
   32        6.715136
 
  0.0000000E+00  0.1666667E+00  0.1666667E+00  0.9259259E-02
    1      -18.234575
    2      -15.365737
    3      -15.346433
    4      -15.306302
    5      -15.289509
    6      -15.285613
    7      -11.406984
    8      -10.889780
    9      -10.349288
   10      -10.027460
   11       -7.926578
   12       -7.771086
   13       -5.990985
   14       -5.736345
   15       -3.653050
   16       -3.635259
   17       -2.036208
   18       -1.818674
   19       -1.553559
   20       -0.285286
   21       -0.068771
   22        0.050629
   23        0.119528
   24        0.410295
   25        0.447953
   26        5.326315
   27        5.596950
   28        5.780477
   29        6.389108
   30        6.600411
   31        6.912639
   32        7.066238
 
  0.1666667E+00  0.1666667E+00  0.1666667E+00  0.9259259E-02
    1      -18.234304
    2      -15.365729
    3      -15.343571
    4      -15.306301
    5      -15.289666
    6      -15.285748
    7      -11.425731
    8      -10.844797
    9      -10.347812
   10      -10.053418
   11       -7.926008
   12       -7.767369
   13       -6.019064
   14       -5.872069
   15       -3.674636
   16       -3.647795
   17       -1.831859
   18       -1.713907
   19       -1.410120
   20       -0.277021
   21       -0.101650
   22        0.017344
   23        0.128177
   24        0.426035
   25        0.459290
   26        5.308686
   27        5.576900
   28        5.699038
   29        6.223552
   30        6.486438
   31        6.638507
   32        6.976985
 
  0.3333333E+00  0.1666667E+00  0.1666667E+00  0.9259259E-02
    1      -18.233752
    2      -15.365714
    3      -15.337826
    4      -15.306302
    5      -15.289973
    6      -15.286024
    7      -11.453293
    8      -10.753727
    9      -10.343803
   10      -10.120539
   11       -7.924371
   12       -7.765926
   13       -6.210111
   14       -5.941236
   15       -3.696798
   16       -3.667290
   17       -1.752599
   18       -1.566292
   19       -0.818206
   20       -0.269717
   21       -0.237568
   22        0.099017
   23        0.194843
   24        0.459502
   25        0.498268
   26        4.447519
   27        5.350281
   28        5.586786
   29        5.969383
   30        6.378679
   31        6.904991
   32        7.159044
 
  0.5000000E+00  0.1666667E+00  0.1666667E+00  0.9259259E-02
    1      -18.233452
    2      -15.365704
    3      -15.334942
    4      -15.306298
    5      -15.290114
    6      -15.286155
    7      -11.463301
    8      -10.703346
    9      -10.341238
   10      -10.164741
   11       -7.923300
   12       -7.768323
   13       -6.318757
   14       -5.937764
   15       -3.700149
   16       -3.671917
   17       -1.722098
   18       -1.518781
   19       -0.652022
   20       -0.344468
   21       -0.232515
   22        0.136523
   23        0.284087
   24        0.468050
   25        0.807808
   26        3.559043
   27        5.344637
   28        5.565126
   29        5.952061
   30        6.439086
   31        7.033174
   32        7.256594
 
 -0.3333333E+00  0.1666667E+00  0.1666667E+00  0.9259259E-02
    1      -18.233759
    2      -15.365714
    3      -15.337836
    4      -15.306303
    5      -15.289956
    6      -15.286025
    7      -11.448096
    8      -10.759102
    9      -10.344814
   10      -10.121462
   11       -7.923961
   12       -7.772175
   13       -6.210152
   14       -5.928914
   15       -3.687936
   16       -3.648704
   17       -1.773145
   18       -1.575829
   19       -0.797173
   20       -0.321872
   21       -0.240274
   22        0.054782
   23        0.194252
   24        0.466178
   25        0.534427
   26        4.394247
   27        5.370257
   28        5.640350
   29        5.989448
   30        6.348741
   31        6.986473
   32        7.131237
 
 -0.1666667E+00  0.1666667E+00  0.1666667E+00  0.9259259E-02
    1      -18.234327
    2      -15.365729
    3      -15.343580
    4      -15.306305
    5      -15.289656
    6      -15.285754
    7      -11.419764
    8      -10.850934
    9      -10.348046
   10      -10.055205
   11       -7.925592
   12       -7.773503
   13       -6.018829
   14       -5.859457
   15       -3.664478
   16       -3.629199
   17       -1.892518
   18       -1.724509
   19       -1.342237
   20       -0.302953
   21       -0.158659
   22        0.007768
   23        0.126406
   24        0.434226
   25        0.474532
   26        5.285355
   27        5.515265
   28        5.758906
   29        6.219295
   30        6.569022
   31        6.741762
   32        6.994717
 
  0.0000000E+00  0.3333333E+00  0.1666667E+00  0.9259259E-02
    1      -18.233976
    2      -15.361698
    3      -15.344036
    4      -15.306621
    5      -15.289506
    6      -15.285982
    7      -11.401142
    8      -10.804806
    9      -10.429164
   10      -10.070154
   11       -7.881815
   12       -7.775348
   13       -6.059940
   14       -5.954327
   15       -3.671528
   16       -3.639486
   17       -1.950794
   18       -1.648066
   19       -0.913396
   20       -0.353826
   21       -0.130907
   22        0.047789
   23        0.158479
   24        0.384821
   25        0.481035
   26        4.451734
   27        5.537078
   28        5.850696
   29        6.519955
   30        6.719574
   31        6.883833
   32        7.049041
 
  0.1666667E+00  0.3333333E+00  0.1666667E+00  0.9259259E-02
    1      -18.233700
    2      -15.361586
    3      -15.341247
    4      -15.306621
    5      -15.289665
    6      -15.286116
    7      -11.414450
    8      -10.771579
    9      -10.424139
   10      -10.087568
   11       -7.884678
   12       -7.772745
   13       -6.201124
   14       -5.970221
   15       -3.675706
   16       -3.649758
   17       -1.702663
   18       -1.493984
   19       -0.895234
   20       -0.380555
   21       -0.190092
   22       -0.001375
   23        0.228111
   24        0.441892
   25        0.510118
   26        4.364812
   27        5.417126
   28        5.796660
   29        6.172910
   30        6.557973
   31        6.801497
   32        7.146187
 
  0.3333333E+00  0.3333333E+00  0.1666667E+00  0.9259259E-02
    1      -18.233175
    2      -15.361442
    3      -15.335598
    4      -15.306616
    5      -15.289967
    6      -15.286385
    7      -11.434358
    8      -10.700815
    9      -10.417194
   10      -10.133893
   11       -7.888821
   12       -7.772560
   13       -6.468539
   14       -5.957293
   15       -3.684614
   16       -3.647799
   17       -1.624825
   18       -0.952111
   19       -0.754110
   20       -0.476536
   21       -0.274696
   22        0.077610
   23        0.329019
   24        0.503723
   25        0.645154
   26        4.100866
   27        4.455456
   28        5.451197
   29        6.148923
   30        6.416786
   31        7.006806
   32        7.396346
 
  0.5000000E+00  0.3333333E+00  0.1666667E+00  0.9259259E-02
    1      -18.232908
    2      -15.361392
    3      -15.332741
    4      -15.306620
    5      -15.290115
    6      -15.286521
    7      -11.441390
    8      -10.660666
    9      -10.415286
   10      -10.164960
   11       -7.889996
   12       -7.775117
   13       -6.586410
   14       -5.944069
   15       -3.677224
   16       -3.647720
   17       -1.600150
   18       -0.872122
   19       -0.705213
   20       -0.449322
   21       -0.303697
   22        0.141299
   23        0.336470
   24        0.664578
   25        0.937818
   26        3.361018
   27        4.186922
   28        5.458857
   29        6.181332
   30        6.333356
   31        7.148266
   32        7.579568
 
 -0.3333333E+00  0.3333333E+00  0.1666667E+00  0.9259259E-02
    1      -18.233181
    2      -15.361447
    3      -15.335607
    4      -15.306621
    5      -15.289950
    6      -15.286385
    7      -11.429427
    8      -10.702887
    9      -10.420716
   10      -10.136409
   11       -7.887483
   12       -7.777763
   13       -6.466289
   14       -5.947807
   15       -3.666296
   16       -3.641669
   17       -1.658618
   18       -0.941341
   19       -0.747630
   20       -0.489936
   21       -0.292505
   22        0.058529
   23        0.291331
   24        0.566160
   25        0.623705
   26        4.093885
   27        4.400568
   28        5.546687
   29        6.176070
   30        6.390229
   31        7.082021
   32        7.385791
 
 -0.1666667E+00  0.3333333E+00  0.1666667E+00  0.9259259E-02
    1      -18.233726
    2      -15.361591
    3      -15.341257
    4      -15.306621
    5      -15.289647
    6      -15.286117
    7      -11.409150
    8      -10.774213
    9      -10.427495
   10      -10.090091
   11       -7.883380
   12       -7.777842
   13       -6.198651
   14       -5.960546
   15       -3.668210
   16       -3.631768
   17       -1.796706
   18       -1.412184
   19       -0.875288
   20       -0.457042
   21       -0.156132
   22       -0.009723
   23        0.184624
   24        0.450497
   25        0.517386
   26        4.362735
   27        5.349494
   28        5.825267
   29        6.238434
   30        6.607316
   31        6.878960
   32        7.222671
 
  0.0000000E+00  0.5000000E+00  0.1666667E+00  0.9259259E-02
    1      -18.233665
    2      -15.360092
    3      -15.342399
    4      -15.306784
    5      -15.289500
    6      -15.286173
    7      -11.398218
    8      -10.739139
    9      -10.493380
   10      -10.090253
   11       -7.858626
   12       -7.779271
   13       -6.142316
   14       -5.994046
   15       -3.679909
   16       -3.642261
   17       -1.905672
   18       -1.596568
   19       -0.766671
   20       -0.251479
   21       -0.130945
   22        0.071879
   23        0.205671
   24        0.393324
   25        0.610539
   26        3.657181
   27        5.508346