       N       E                     dE             d eps       ncg     rms          rms(c)
DAV:   1     0.356028816103E+03    0.35603E+03   -0.19990E+04 48896   0.130E+03
DAV:   2    -0.126382928913E+02   -0.36867E+03   -0.35600E+03 61848   0.295E+02
DAV:   3    -0.507802460221E+02   -0.38142E+02   -0.37858E+02 59088   0.105E+02
DAV:   4    -0.524880133924E+02   -0.17078E+01   -0.17058E+01 73784   0.294E+01
DAV:   5    -0.525152664374E+02   -0.27253E-01   -0.27249E-01 62896   0.271E+00
DAV:   6    -0.525160989106E+02   -0.83247E-03   -0.83244E-03 74688   0.600E-01
DAV:   7    -0.525161130772E+02   -0.14167E-04   -0.14166E-04 63008   0.628E-02
DAV:   8    -0.525161134102E+02   -0.33304E-06   -0.33307E-06 51544   0.115E-02
   1 F= -.52516113E+02 E0= -.52516113E+02  d E =-.525161E+02
