 vasp.5.4.1 24Jun15 (build Nov 25 2015 16:01:35) complex                        
  
 executed on         CrayXC-Intel date 2016.05.26  08:37:14
 running on   96 total cores
 distrk:  each k-point on   24 cores,    4 groups
 distr:  one band on NCORES_PER_BAND=   6 cores,    4 groups


--------------------------------------------------------------------------------------------------------


 INCAR:
 POTCAR:    PAW_PBE C 08Apr2002                   
 POTCAR:    PAW_PBE N 08Apr2002                   
 POTCAR:    PAW_PBE H 15Jun2001                   
 POTCAR:    PAW_PBE Pb_d 06Sep2000                
 POTCAR:    PAW_PBE I 08Apr2002                   

 ----------------------------------------------------------------------------- 
|                                                                             |
|           W    W    AA    RRRRR   N    N  II  N    N   GGGG   !!!           |
|           W    W   A  A   R    R  NN   N  II  NN   N  G    G  !!!           |
|           W    W  A    A  R    R  N N  N  II  N N  N  G       !!!           |
|           W WW W  AAAAAA  RRRRR   N  N N  II  N  N N  G  GGG   !            |
|           WW  WW  A    A  R   R   N   NN  II  N   NN  G    G                |
|           W    W  A    A  R    R  N    N  II  N    N   GGGG   !!!           |
|                                                                             |
|      You have enabled k-point parallelism (KPAR>1).                         |
|      This developmental code was originally  written by Paul Kent at ORNL,  |
|      and carefully double checked in Vienna.                                |
|      GW as well as linear response parallelism added by Martijn Marsman     |
|      and Georg Kresse.                                                      |
|      Carefully verify results versus KPAR=1.                                |
|      Report problems to Paul Kent and Vienna.                               |
|                                                                             |
 ----------------------------------------------------------------------------- 

 POTCAR:    PAW_PBE C 08Apr2002                   
   VRHFIN =C: s2p2                                                              
   LEXCH  = PE                                                                  
   EATOM  =   147.1560 eV,   10.8157 Ry                                         
                                                                                
   TITEL  = PAW_PBE C 08Apr2002                                                 
   LULTRA =        F    use ultrasoft PP ?                                      
   IUNSCR =        1    unscreen: 0-lin 1-nonlin 2-no                           
   RPACOR =    1.200    partial core radius                                     
   POMASS =   12.011; ZVAL   =    4.000    mass and valenz                      
   RCORE  =    1.500    outmost cutoff radius                                   
   RWIGS  =    1.630; RWIGS  =    0.863    wigner-seitz radius (au A)           
   ENMAX  =  400.000; ENMIN  =  300.000 eV                                      
   ICORE  =        2    local potential                                         
   LCOR   =        T    correct aug charges                                     
   LPAW   =        T    paw PP                                                  
   EAUG   =  644.873                                                            
   DEXC   =    0.000                                                            
   RMAX   =    1.529    core radius for proj-oper                               
   RAUG   =    1.300    factor for augmentation sphere                          
   RDEP   =    1.501    radius for radial grids                                 
   RDEPT  =    1.300    core radius for aug-charge                              
                                                                                
   Atomic configuration                                                         
    4 entries                                                                   
     n  l   j            E        occ.                                          
     1  0  0.50      -273.3789   2.0000                                         
     2  0  0.50       -13.7508   2.0000                                         
     2  1  0.50        -5.2854   2.0000                                         
     3  2  1.50        -5.4423   0.0000                                         
   Description                                                                  
     l       E           TYP  RCUT    TYP  RCUT                                 
     0    -13.7508458     23  1.200                                             
     0     -8.2022199     23  1.200                                             
     1     -5.2854383     23  1.500                                             
     1     34.0145650     23  1.500                                             
     2     -5.4423304      7  1.500                                             
  local pseudopotential read in
  partial core-charges read in
  partial kinetic energy density read in
  atomic valenz-charges read in
  non local Contribution for L=           0  read in
    real space projection operators read in
  non local Contribution for L=           0  read in
    real space projection operators read in
  non local Contribution for L=           1  read in
    real space projection operators read in
  non local Contribution for L=           1  read in
    real space projection operators read in
    PAW grid and wavefunctions read in
 
   number of l-projection  operators is LMAX  =           4
   number of lm-projection operators is LMMAX =           8
 
 POTCAR:    PAW_PBE N 08Apr2002                   
   VRHFIN =N: s2p3                                                              
   LEXCH  = PE                                                                  
   EATOM  =   264.5486 eV,   19.4438 Ry                                         
                                                                                
   TITEL  = PAW_PBE N 08Apr2002                                                 
   LULTRA =        F    use ultrasoft PP ?                                      
   IUNSCR =        1    unscreen: 0-lin 1-nonlin 2-no                           
   RPACOR =    1.200    partial core radius                                     
   POMASS =   14.001; ZVAL   =    5.000    mass and valenz                      
   RCORE  =    1.500    outmost cutoff radius                                   
   RWIGS  =    1.400; RWIGS  =    0.741    wigner-seitz radius (au A)           
   ENMAX  =  400.000; ENMIN  =  300.000 eV                                      
   ICORE  =        2    local potential                                         
   LCOR   =        T    correct aug charges                                     
   LPAW   =        T    paw PP                                                  
   EAUG   =  627.112                                                            
   DEXC   =    0.000                                                            
   RMAX   =    1.529    core radius for proj-oper                               
   RAUG   =    1.300    factor for augmentation sphere                          
   RDEP   =    1.514    radius for radial grids                                 
   RDEPT  =    1.338    core radius for aug-charge                              
                                                                                
   Atomic configuration                                                         
    4 entries                                                                   
     n  l   j            E        occ.                                          
     1  0  0.50      -384.7179   2.0000                                         
     2  0  0.50       -18.5828   2.0000                                         
     2  1  0.50        -7.0898   3.0000                                         
     3  2  1.50        -6.8029   0.0000                                         
   Description                                                                  
     l       E           TYP  RCUT    TYP  RCUT                                 
     0    -18.5828119     23  1.200                                             
     0    -13.5018863     23  1.200                                             
     1     -7.0897853     23  1.500                                             
     1      9.5240782     23  1.500                                             
     2     -6.8029130      7  1.500                                             
  local pseudopotential read in
  partial core-charges read in
  partial kinetic energy density read in
  atomic valenz-charges read in
  non local Contribution for L=           0  read in
    real space projection operators read in
  non local Contribution for L=           0  read in
    real space projection operators read in
  non local Contribution for L=           1  read in
    real space projection operators read in
  non local Contribution for L=           1  read in
    real space projection operators read in
    PAW grid and wavefunctions read in
 
   number of l-projection  operators is LMAX  =           4
   number of lm-projection operators is LMMAX =           8
 
 POTCAR:    PAW_PBE H 15Jun2001                   
   VRHFIN =H: ultrasoft test                                                    
   LEXCH  = PE                                                                  
   EATOM  =    12.4884 eV,    0.9179 Ry                                         
                                                                                
   TITEL  = PAW_PBE H 15Jun2001                                                 
   LULTRA =        F    use ultrasoft PP ?                                      
   IUNSCR =        0    unscreen: 0-lin 1-nonlin 2-no                           
   RPACOR =    0.000    partial core radius                                     
   POMASS =    1.000; ZVAL   =    1.000    mass and valenz                      
   RCORE  =    1.100    outmost cutoff radius                                   
   RWIGS  =    0.700; RWIGS  =    0.370    wigner-seitz radius (au A)           
   ENMAX  =  250.000; ENMIN  =  200.000 eV                                      
   RCLOC  =    0.701    cutoff for local pot                                    
   LCOR   =        T    correct aug charges                                     
   LPAW   =        T    paw PP                                                  
   EAUG   =  400.000                                                            
   RMAX   =    1.123    core radius for proj-oper                               
   RAUG   =    1.200    factor for augmentation sphere                          
   RDEP   =    1.112    radius for radial grids                                 
   RDEPT  =    0.926    core radius for aug-charge                              
                                                                                
   Atomic configuration                                                         
    2 entries                                                                   
     n  l   j            E        occ.                                          
     1  0  0.50        -6.4927   1.0000                                         
     2  1  0.50        -3.4015   0.0000                                         
   Description                                                                  
     l       E           TYP  RCUT    TYP  RCUT                                 
     0     -6.4927494     23  1.100                                             
     0      6.8029130     23  1.100                                             
     1     -4.0817478     23  1.100                                             
  local pseudopotential read in
  atomic valenz-charges read in
  non local Contribution for L=           0  read in
    real space projection operators read in
  non local Contribution for L=           0  read in
    real space projection operators read in
  non local Contribution for L=           1  read in
    real space projection operators read in
    PAW grid and wavefunctions read in
 
   number of l-projection  operators is LMAX  =           3
   number of lm-projection operators is LMMAX =           5
 
 POTCAR:    PAW_PBE Pb_d 06Sep2000                
   VRHFIN =Pb:                                                                  
   LEXCH  = PE                                                                  
   EATOM  =  1661.6185 eV,  122.1255 Ry                                         
                                                                                
   TITEL  = PAW_PBE Pb_d 06Sep2000                                              
   LULTRA =        F    use ultrasoft PP ?                                      
   IUNSCR =        1    unscreen: 0-lin 1-nonlin 2-no                           
   RPACOR =    2.200    partial core radius                                     
   POMASS =  207.200; ZVAL   =   14.000    mass and valenz                      
   RCORE  =    2.500    outmost cutoff radius                                   
   RWIGS  =    3.260; RWIGS  =    1.725    wigner-seitz radius (au A)           
   ENMAX  =  237.835; ENMIN  =  178.376 eV                                      
   ICORE  =        3    local potential                                         
   LCOR   =        T    correct aug charges                                     
   LPAW   =        T    paw PP                                                  
   EAUG   =  391.914                                                            
   DEXC   =    0.000                                                            
   RMAX   =    2.565    core radius for proj-oper                               
   RAUG   =    1.300    factor for augmentation sphere                          
   RDEP   =    2.643    radius for radial grids                                 
   RDEPT  =    2.092    core radius for aug-charge                              
                                                                                
   Atomic configuration                                                         
   16 entries                                                                   
     n  l   j            E        occ.                                          
     1  0  0.50    -88091.8466   2.0000                                         
     2  0  0.50    -15753.4197   2.0000                                         
     2  1  1.50    -13508.1797   6.0000                                         
     3  0  0.50     -3781.7194   2.0000                                         
     3  1  1.50     -3138.2529   6.0000                                         
     3  2  2.50     -2483.2977  10.0000                                         
     4  0  0.50      -856.2895   2.0000                                         
     4  1  1.50      -645.4942   6.0000                                         
     4  2  2.50      -401.8768  10.0000                                         
     4  3  3.50      -132.9059  14.0000                                         
     5  0  0.50      -144.0950   2.0000                                         
     5  1  1.50       -85.7879   6.0000                                         
     5  2  2.50       -21.1769  10.0000                                         
     6  0  0.50       -12.0372   2.0000                                         
     6  1  1.50        -3.4971   2.0000                                         
     5  3  2.50        -2.7212   0.0000                                         
   Description                                                                  
     l       E           TYP  RCUT    TYP  RCUT                                 
     2    -21.1768523     23  2.500                                             
     2      1.3605826     23  2.500                                             
     0    -12.0371562     23  2.500                                             
     0     13.6058260     23  2.500                                             
     1     -3.4971339     23  2.500                                             
     1     13.6058260     23  2.500                                             
     3     -1.3605826      7  2.500                                             
  local pseudopotential read in
  partial core-charges read in
  partial kinetic energy density read in
  atomic valenz-charges read in
  non local Contribution for L=           2  read in
    real space projection operators read in
  non local Contribution for L=           2  read in
    real space projection operators read in
  non local Contribution for L=           0  read in
    real space projection operators read in
  non local Contribution for L=           0  read in
    real space projection operators read in
  non local Contribution for L=           1  read in
    real space projection operators read in
  non local Contribution for L=           1  read in
    real space projection operators read in
    PAW grid and wavefunctions read in
 
   number of l-projection  operators is LMAX  =           6
   number of lm-projection operators is LMMAX =          18
 
 POTCAR:    PAW_PBE I 08Apr2002                   
   VRHFIN =I : s2p5                                                             
   LEXCH  = PE                                                                  
   EATOM  =   315.8678 eV,   23.2156 Ry                                         
                                                                                
   TITEL  = PAW_PBE I 08Apr2002                                                 
   LULTRA =        F    use ultrasoft PP ?                                      
   IUNSCR =        1    unscreen: 0-lin 1-nonlin 2-no                           
   RPACOR =    2.200    partial core radius                                     
   POMASS =  126.904; ZVAL   =    7.000    mass and valenz                      
   RCORE  =    2.300    outmost cutoff radius                                   
   RWIGS  =    2.810; RWIGS  =    1.487    wigner-seitz radius (au A)           
   ENMAX  =  175.647; ENMIN  =  131.735 eV                                      
   ICORE  =        3    local potential                                         
   LCOR   =        T    correct aug charges                                     
   LPAW   =        T    paw PP                                                  
   EAUG   =  370.139                                                            
   DEXC   =    0.000                                                            
   RMAX   =    2.359    core radius for proj-oper                               
   RAUG   =    1.300    factor for augmentation sphere                          
   RDEP   =    2.392    radius for radial grids                                 
   RDEPT  =    2.170    core radius for aug-charge                              
                                                                                
   Atomic configuration                                                         
   13 entries                                                                   
     n  l   j            E        occ.                                          
     1  0  0.50    -32976.3739   2.0000                                         
     2  0  0.50     -5094.5933   2.0000                                         
     2  1  1.50     -4572.0131   6.0000                                         
     3  0  0.50     -1028.2813   2.0000                                         
     3  1  1.50      -859.0250   6.0000                                         
     3  2  2.50      -605.7620  10.0000                                         
     4  0  0.50      -180.5540   2.0000                                         
     4  1  1.50      -127.5306   6.0000                                         
     4  2  2.50       -50.2720  10.0000                                         
     5  0  0.50       -17.4058   2.0000                                         
     5  1  0.50        -7.0851   5.0000                                         
     5  2  1.50        -7.0750   0.0000                                         
     4  3  2.50        -7.0750   0.0000                                         
   Description                                                                  
     l       E           TYP  RCUT    TYP  RCUT                                 
     0    -17.4058016     23  2.300                                             
     0    -18.7663842     23  2.300                                             
     1     -7.0850686     23  2.300                                             
     1     -4.2150896     23  2.300                                             
     2     -7.0750295     23  2.300                                             
     3     -1.3605826     23  2.300                                             
  local pseudopotential read in
  partial core-charges read in
  partial kinetic energy density read in
  atomic valenz-charges read in
  non local Contribution for L=           0  read in
    real space projection operators read in
  non local Contribution for L=           0  read in
    real space projection operators read in
  non local Contribution for L=           1  read in
    real space projection operators read in
  non local Contribution for L=           1  read in
    real space projection operators read in
  non local Contribution for L=           2  read in
    real space projection operators read in
    PAW grid and wavefunctions read in
 
   number of l-projection  operators is LMAX  =           5
   number of lm-projection operators is LMMAX =          13
 

 ----------------------------------------------------------------------------- 
|                                                                             |
|  ADVICE TO THIS USER RUNNING 'VASP/VAMP'   (HEAR YOUR MASTER'S VOICE ...):  |
|                                                                             |
|      You enforced a specific xc-type in the INCAR file,                     |
|      a different type was found on the POTCAR file                          |
|          I HOPE YOU KNOW, WHAT YOU ARE  DOING                               |
|                                                                             |
 ----------------------------------------------------------------------------- 

  PAW_PBE C 08Apr2002                   :
 energy of atom  1       EATOM= -147.1560
 kinetic energy error for atom=    0.0076 (will be added to EATOM!!)
  PAW_PBE N 08Apr2002                   :
 energy of atom  2       EATOM= -264.5486
 kinetic energy error for atom=    0.0138 (will be added to EATOM!!)
  PAW_PBE H 15Jun2001                   :
 energy of atom  3       EATOM=  -12.4884
 kinetic energy error for atom=    0.0020 (will be added to EATOM!!)
  PAW_PBE Pb_d 06Sep2000                :
 energy of atom  4       EATOM=-1661.6185
 kinetic energy error for atom=    0.0047 (will be added to EATOM!!)
  PAW_PBE I 08Apr2002                   :
 energy of atom  5       EATOM= -315.8678
 kinetic energy error for atom=    0.0009 (will be added to EATOM!!)
 
 
 POSCAR: MA-Pb-I (Github)                        
  positions in direct lattice
  velocities in cartesian coordinates
 exchange correlation table for  LEXCH =       14
   RHO(1)=    0.500       N(1)  =     2000
   RHO(2)=  100.500       N(2)  =     4000
 


--------------------------------------------------------------------------------------------------------


 ion  position               nearest neighbor table
   1  0.903  1.000  0.996-   3 1.10   5 1.10   4 1.10   2 1.48
   2  0.137  1.000  0.025-   6 1.04   7 1.04   8 1.05   1 1.48
   3  0.865  1.000  0.826-   1 1.10
   4  0.838  0.144  0.072-   1 1.10
   5  0.838  0.857  0.072-   1 1.10
   6  0.208  0.134  0.958-   2 1.04
   7  0.207  0.865  0.958-   2 1.04
   8  0.182  0.000  0.185-   2 1.05
   9  0.476  0.500  0.476-  12 3.07  10 3.15  11 3.15  11 3.15  10 3.18  12 3.23
  10  0.427  0.500  0.973-   9 3.15   9 3.18
  11  0.436  0.000  0.507-   9 3.15   9 3.15
  12  0.963  0.500  0.448-   9 3.07   9 3.23
 
  LATTYP: Found a simple monoclinic cell.
 ALAT       =     6.2901201248
 B/A-ratio  =     0.9974197462
 C/A-ratio  =     1.4105278383
 COS(beta)  =    -0.7044835581
  
  Lattice vectors:
  
 A1 = (  -6.2901201248,   0.0000000000,   0.0000000000)
 A2 = (  -0.0000776940,  -6.2738900180,   0.0000000000)
 A3 = (   6.2504525538,  -0.0001537931,   6.2969150416)


Analysis of symmetry for initial positions (statically):
=====================================================================
 Subroutine PRICEL returns:
 Original cell was already a primitive cell.
 

 Routine SETGRP: Setting up the symmetry group for a 
 simple monoclinic supercell.


 Subroutine GETGRP returns: Found  1 space group operations
 (whereof  1 operations were pure point group operations)
 out of a pool of  4 trial point group operations.


The static configuration has the point symmetry C_1 .


Analysis of symmetry for dynamics (positions and initial velocities):
=====================================================================
 Subroutine PRICEL returns:
 Original cell was already a primitive cell.
 

 Routine SETGRP: Setting up the symmetry group for a 
 simple monoclinic supercell.


 Subroutine GETGRP returns: Found  1 space group operations
 (whereof  1 operations were pure point group operations)
 out of a pool of  4 trial point group operations.


The dynamic configuration has the point symmetry C_1 .


 Subroutine INISYM returns: Found  1 space group operations
 (whereof  1 operations are pure point group operations),
 and found     1 'primitive' translations

 
 
 KPOINTS: Automatically generated mesh. SCF:112, k
  k-points in reciprocal lattice
Space group operators:
 irot       det(A)        alpha          n_x          n_y          n_z        tau_x        tau_y        tau_z
    1     1.000000     0.000000     1.000000     0.000000     0.000000     0.000000     0.000000     0.000000

 ----------------------------------------------------------------------------- 
|                                                                             |
|           W    W    AA    RRRRR   N    N  II  N    N   GGGG   !!!           |
|           W    W   A  A   R    R  NN   N  II  NN   N  G    G  !!!           |
|           W    W  A    A  R    R  N N  N  II  N N  N  G       !!!           |
|           W WW W  AAAAAA  RRRRR   N  N N  II  N  N N  G  GGG   !            |
|           WW  WW  A    A  R   R   N   NN  II  N   NN  G    G                |
|           W    W  A    A  R    R  N    N  II  N    N   GGGG   !!!           |
|                                                                             |
|      The number of bands has been changed from the values supplied          |
|      in the INCAR file. This is a result of running the parallel version.   |
|      The orbitals not found in the WAVECAR file will be initialized with    |
|      random numbers, which is usually adequate. For correlated              |
|      calculations, however, you should redo the groundstate calculation.    |
|      I found NBANDS    =       50  now  NBANDS  =      52                   |
|                                                                             |
 ----------------------------------------------------------------------------- 



--------------------------------------------------------------------------------------------------------




 Dimension of arrays:
   k-points           NKPTS =    180   k-points in BZ     NKDIM =    180   number of bands    NBANDS=     52
   number of dos      NEDOS =    301   number of ions     NIONS =     12
   non local maximal  LDIM  =      6   non local SUM 2l+1 LMDIM =     18
   total plane-waves  NPLWV = 110592
   max r-space proj   IRMAX =      1   max aug-charges    IRDMAX=  25940
   dimension x,y,z NGX =    48 NGY =   48 NGZ =   48
   dimension x,y,z NGXF=    96 NGYF=   96 NGZF=   96
   support grid    NGXF=    96 NGYF=   96 NGZF=   96
   ions per type =               1   1   6   1   3
 NGX,Y,Z   is equivalent  to a cutoff of  12.69, 12.72, 12.67 a.u.
 NGXF,Y,Z  is equivalent  to a cutoff of  25.37, 25.44, 25.34 a.u.


 I would recommend the setting:
   dimension x,y,z NGX =    46 NGY =   46 NGZ =   46
 SYSTEM =  Name                                    
 POSCAR =  MA-Pb-I (Github)                        

 Startparameter for this run:
   NWRITE =      2    write-flag & timer
   PREC   = accura    normal or accurate (medium, high low for compatibility)
   ISTART =      0    job   : 0-new  1-cont  2-samecut
   ICHARG =     11    charge: 1-file 2-atom 10-const
   ISPIN  =      1    spin polarized calculation?
   LNONCOLLINEAR =      F non collinear calculations
   LSORBIT =      F    spin-orbit coupling
   INIWAV =      1    electr: 0-lowe 1-rand  2-diag
   LASPH  =      F    aspherical Exc in radial PAW
   METAGGA=      F    non-selfconsistent MetaGGA calc.

 Electronic Relaxation 1
   ENCUT  =  500.0 eV  36.75 Ry    6.06 a.u.  11.47 11.44 11.48*2*pi/ulx,y,z
   ENINI  =  500.0     initial cutoff
   ENAUG  =  644.9 eV  augmentation charge cutoff
   NELM   =     60;   NELMIN=  2; NELMDL=  0     # of ELM steps 
   EDIFF  = 0.1E-05   stopping-criterion for ELM
   LREAL  =      F    real-space projection
   NLSPLINE    = F    spline interpolate recip. space projectors
   LCOMPAT=      F    compatible to vasp.4.4
   GGA_COMPAT  = T    GGA compatible to vasp.4.4-vasp.4.6
   LMAXPAW     = -100 max onsite density
   LMAXMIX     =    2 max onsite mixed and CHGCAR
   VOSKOWN=      0    Vosko Wilk Nusair interpolation
   ROPT   =    0.00000   0.00000   0.00000   0.00000
   ROPT   =    0.00000
 Ionic relaxation
   EDIFFG = -.5E-02   stopping-criterion for IOM
   NSW    =      0    number of steps for IOM
   NBLOCK =      1;   KBLOCK =      1    inner block; outer block 
   IBRION =     -1    ionic relax: 0-MD 1-quasi-New 2-CG
   NFREE  =      1    steps in history (QN), initial steepest desc. (CG)
   ISIF   =      3    stress and relaxation
   IWAVPR =     10    prediction:  0-non 1-charg 2-wave 3-comb
   ISYM   =      2    0-nonsym 1-usesym 2-fastsym
   LCORR  =      T    Harris-Foulkes like correction to forces

   POTIM  = 0.5000    time-step for ionic-motion
   TEIN   =    0.0    initial temperature
   TEBEG  =    0.0;   TEEND  =   0.0 temperature during run
   SMASS  =  -3.00    Nose mass-parameter (am)
   estimated Nose-frequenzy (Omega)   =  0.10E-29 period in steps =****** mass=  -0.904E-27a.u.
   SCALEE = 1.0000    scale energy and forces
   NPACO  =    256;   APACO  = 16.0  distance and # of slots for P.C.
   PSTRESS=    0.0 pullay stress

  Mass of Ions in am
   POMASS =  12.01 14.00  1.00207.20126.90
  Ionic Valenz
   ZVAL   =   4.00  5.00  1.00 14.00  7.00
  Atomic Wigner-Seitz radii
   RWIGS  =  -1.00 -1.00 -1.00 -1.00 -1.00
  virtual crystal weights 
   VCA    =   1.00  1.00  1.00  1.00  1.00
   NELECT =      50.0000    total number of electrons
   NUPDOWN=      -1.0000    fix difference up-down

 DOS related values:
   EMIN   =  10.00;   EMAX   =-10.00  energy-range for DOS
   EFERMI =   0.00
   ISMEAR =     0;   SIGMA  =   0.01  broadening in eV -4-tet -1-fermi 0-gaus

 Electronic relaxation 2 (details)
   IALGO  =     38    algorithm
   LDIAG  =      T    sub-space diagonalisation (order eigenvalues)
   LSUBROT=      F    optimize rotation matrix (better conditioning)
   TURBO    =      0    0=normal 1=particle mesh
   IRESTART =      0    0=no restart 2=restart with 2 vectors
   NREBOOT  =      0    no. of reboots
   NMIN     =      0    reboot dimension
   EREF     =   0.00    reference energy to select bands
   IMIX   =      4    mixing-type and parameters
     AMIX     =   0.40;   BMIX     =  1.00
     AMIX_MAG =   1.60;   BMIX_MAG =  1.00
     AMIN     =   0.01
     WC   =   100.;   INIMIX=   1;  MIXPRE=   1;  MAXMIX= -45

 Intra band minimization:
   WEIMIN = 0.0000     energy-eigenvalue tresh-hold
   EBREAK =  0.48E-08  absolut break condition
   DEPER  =   0.30     relativ break condition  

   TIME   =   0.40     timestep for ELM

  volume/ion in A,a.u.               =      20.71       139.75
  Fermi-wavevector in a.u.,A,eV,Ry     =   0.959306  1.812825 12.520994  0.920267
  Thomas-Fermi vector in A             =   2.088490
 
 Write flags
   LWAVE  =      T    write WAVECAR
   LCHARG =      T    write CHGCAR
   LVTOT  =      F    write LOCPOT, total local potential
   LVHAR  =      F    write LOCPOT, Hartree potential only
   LELF   =      F    write electronic localiz. function (ELF)
   LORBIT =     10    0 simple, 1 ext, 2 COOP (PROOUT)


 Dipole corrections
   LMONO  =      F    monopole corrections only (constant potential shift)
   LDIPOL =      F    correct potential (dipole corrections)
   IDIPOL =      0    1-x, 2-y, 3-z, 4-all directions 
   EPSILON=  1.0000000 bulk dielectric constant

 Core level calculations are selected ICORELEVEL =  1
 Exchange correlation treatment:
   GGA     =    PS    GGA type
   LEXCH   =    14    internal setting for exchange type
   VOSKOWN=      0    Vosko Wilk Nusair interpolation
   LHFCALC =     F    Hartree Fock is set to
   LHFONE  =     F    Hartree Fock one center treatment
   AEXX    =    0.0000 exact exchange contribution

 Linear response parameters
   LEPSILON=     F    determine dielectric tensor
   LRPA    =     F    only Hartree local field effects (RPA)
   LNABLA  =     F    use nabla operator in PAW spheres
   LVEL    =     F    velocity operator in full k-point grid
   LINTERFAST=   F  fast interpolation
   KINTER  =     0    interpolate to denser k-point grid
   CSHIFT  =0.1000    complex shift for real part using Kramers Kronig
   OMEGAMAX=  -1.0    maximum frequency
   DEG_THRESHOLD= 0.2000000E-02 threshold for treating states as degnerate
   RTIME   =    0.100 relaxation time in fs

 Orbital magnetization related:
   ORBITALMAG=     F  switch on orbital magnetization
   LCHIMAG   =     F  perturbation theory with respect to B field
   DQ        =  0.001000  dq finite difference perturbation B field



--------------------------------------------------------------------------------------------------------


 Static calculation
 charge density and potential remain constant during run
 non-spin polarized calculation
 Variant of blocked Davidson
 Davidson routine will perform the subspace rotation
 perform sub-space diagonalisation
    after iterative eigenvector-optimisation
 no mixing
 using additional bands           27
 reciprocal scheme for non local part
 use partial core corrections
 calculate Harris-corrections to forces 
   (improved forces if not selfconsistent)
 use gradient corrections 
 WARNING: stress and forces are not correct
  (second derivative of E(xc) not defined)
 use of overlap-Matrix (Vanderbilt PP)
 Gauss-broadening in eV      SIGMA  =   0.01


--------------------------------------------------------------------------------------------------------


  energy-cutoff  :      500.00
  volume of cell :      248.50
      direct lattice vectors                 reciprocal lattice vectors
     6.290120125  0.000000000  0.000000000     0.158979476 -0.000001969  0.001001495
     0.000077694  6.273890018  0.000000000     0.000000000  0.159390744  0.000003893
    -0.039667571 -0.000153793  6.296915042     0.000000000  0.000000000  0.158807923

  length of vectors
     6.290120125  6.273890018  6.297039986     0.158982630  0.159390744  0.158807923


 
 k-points in units of 2pi/SCALE and weight: Automatically generated mesh. SCF:112, k
   0.00000000  0.00000000  0.00000000       0.005
   0.02649658 -0.00000033  0.00016692       0.009
   0.05299316 -0.00000066  0.00033383       0.009
   0.07948974 -0.00000098  0.00050075       0.005
   0.00000000  0.02656512  0.00000065       0.009
   0.02649658  0.02656480  0.00016756       0.009
   0.05299316  0.02656447  0.00033448       0.009
   0.07948974  0.02656414  0.00050140       0.009
  -0.05299316  0.02656578 -0.00033318       0.009
  -0.02649658  0.02656545 -0.00016627       0.009
   0.00000000  0.05313025  0.00000130       0.009
   0.02649658  0.05312992  0.00016821       0.009
   0.05299316  0.05312959  0.00033513       0.009
   0.07948974  0.05312926  0.00050205       0.009
  -0.05299316  0.05313090 -0.00033253       0.009
  -0.02649658  0.05313058 -0.00016562       0.009
   0.00000000  0.07969537  0.00000195       0.005
   0.02649658  0.07969504  0.00016886       0.009
   0.05299316  0.07969472  0.00033578       0.009
   0.07948974  0.07969439  0.00050269       0.005
   0.00000000  0.00000000  0.02646799       0.009
   0.02649658 -0.00000033  0.02663490       0.009
   0.05299316 -0.00000066  0.02680182       0.009
   0.07948974 -0.00000098  0.02696873       0.009
  -0.05299316  0.00000066  0.02613416       0.009
  -0.02649658  0.00000033  0.02630107       0.009
   0.00000000  0.02656512  0.02646864       0.009
   0.02649658  0.02656480  0.02663555       0.009
   0.05299316  0.02656447  0.02680247       0.009
   0.07948974  0.02656414  0.02696938       0.009
  -0.05299316  0.02656578  0.02613480       0.009
  -0.02649658  0.02656545  0.02630172       0.009
   0.00000000  0.05313025  0.02646928       0.009
   0.02649658  0.05312992  0.02663620       0.009
   0.05299316  0.05312959  0.02680312       0.009
   0.07948974  0.05312926  0.02697003       0.009
  -0.05299316  0.05313090  0.02613545       0.009
  -0.02649658  0.05313058  0.02630237       0.009
   0.00000000  0.07969537  0.02646993       0.009
   0.02649658  0.07969504  0.02663685       0.009
   0.05299316  0.07969472  0.02680377       0.009
   0.07948974  0.07969439  0.02697068       0.009
  -0.05299316  0.07969603  0.02613610       0.009
  -0.02649658  0.07969570  0.02630302       0.009
   0.00000000 -0.05313025  0.02646669       0.009
   0.02649658 -0.05313058  0.02663361       0.009
   0.05299316 -0.05313090  0.02680052       0.009
   0.07948974 -0.05313123  0.02696744       0.009
  -0.05299316 -0.05312959  0.02613286       0.009
  -0.02649658 -0.05312992  0.02629977       0.009
   0.00000000 -0.02656512  0.02646734       0.009
   0.02649658 -0.02656545  0.02663425       0.009
   0.05299316 -0.02656578  0.02680117       0.009
   0.07948974 -0.02656611  0.02696809       0.009
  -0.05299316 -0.02656447  0.02613351       0.009
  -0.02649658 -0.02656480  0.02630042       0.009
   0.00000000  0.00000000  0.05293597       0.009
   0.02649658 -0.00000033  0.05310289       0.009
   0.05299316 -0.00000066  0.05326981       0.009
   0.07948974 -0.00000098  0.05343672       0.009
  -0.05299316  0.00000066  0.05260214       0.009
  -0.02649658  0.00000033  0.05276906       0.009
   0.00000000  0.02656512  0.05293662       0.009
   0.02649658  0.02656480  0.05310354       0.009
   0.05299316  0.02656447  0.05327045       0.009
   0.07948974  0.02656414  0.05343737       0.009
  -0.05299316  0.02656578  0.05260279       0.009
  -0.02649658  0.02656545  0.05276971       0.009
   0.00000000  0.05313025  0.05293727       0.009
   0.02649658  0.05312992  0.05310419       0.009
   0.05299316  0.05312959  0.05327110       0.009
   0.07948974  0.05312926  0.05343802       0.009
  -0.05299316  0.05313090  0.05260344       0.009
  -0.02649658  0.05313058  0.05277036       0.009
   0.00000000  0.07969537  0.05293792       0.009
   0.02649658  0.07969504  0.05310484       0.009
   0.05299316  0.07969472  0.05327175       0.009
   0.07948974  0.07969439  0.05343867       0.009
  -0.05299316  0.07969603  0.05260409       0.009
  -0.02649658  0.07969570  0.05277100       0.009
   0.00000000 -0.05313025  0.05293468       0.009
   0.02649658 -0.05313058  0.05310159       0.009
   0.05299316 -0.05313090  0.05326851       0.009
   0.07948974 -0.05313123  0.05343542       0.009
  -0.05299316 -0.05312959  0.05260085       0.009
  -0.02649658 -0.05312992  0.05276776       0.009
   0.00000000 -0.02656512  0.05293533       0.009
   0.02649658 -0.02656545  0.05310224       0.009
   0.05299316 -0.02656578  0.05326916       0.009
   0.07948974 -0.02656611  0.05343607       0.009
  -0.05299316 -0.02656447  0.05260149       0.009
  -0.02649658 -0.02656480  0.05276841       0.009
   0.00000000  0.00000000  0.07940396       0.005
   0.02649658 -0.00000033  0.07957088       0.009
   0.05299316 -0.00000066  0.07973779       0.009
   0.07948974 -0.00000098  0.07990471       0.005
   0.00000000  0.02656512  0.07940461       0.009
   0.02649658  0.02656480  0.07957153       0.009
   0.05299316  0.02656447  0.07973844       0.009
   0.07948974  0.02656414  0.07990536       0.009
  -0.05299316  0.02656578  0.07907078       0.009
  -0.02649658  0.02656545  0.07923769       0.009
   0.00000000  0.05313025  0.07940526       0.009
   0.02649658  0.05312992  0.07957218       0.009
   0.05299316  0.05312959  0.07973909       0.009
   0.07948974  0.05312926  0.07990601       0.009
  -0.05299316  0.05313090  0.07907143       0.009
  -0.02649658  0.05313058  0.07923834       0.009
   0.00000000  0.07969537  0.07940591       0.005
   0.02649658  0.07969504  0.07957282       0.009
   0.05299316  0.07969472  0.07973974       0.009
   0.07948974  0.07969439  0.07990666       0.005
   0.00000000  0.00000000  0.00000000       0.000
   0.00345608  0.00346497  0.00347420       0.000
   0.00691215  0.00692995  0.00694840       0.000
   0.01036823  0.01039492  0.01042261       0.000
   0.01382430  0.01385989  0.01389681       0.000
   0.01728038  0.01732487  0.01737101       0.000
   0.02073645  0.02078984  0.02084521       0.000
   0.02419253  0.02425481  0.02431942       0.000
   0.02764861  0.02771979  0.02779362       0.000
   0.03110468  0.03118476  0.03126782       0.000
   0.03456076  0.03464973  0.03474203       0.000
   0.03801683  0.03811471  0.03821623       0.000
   0.04147291  0.04157968  0.04169043       0.000
   0.04492899  0.04504466  0.04516464       0.000
   0.04838506  0.04850963  0.04863884       0.000
   0.05184114  0.05197460  0.05211304       0.000
   0.05529721  0.05543957  0.05558724       0.000
   0.05875328  0.05890455  0.05906144       0.000
   0.06220936  0.06236952  0.06253564       0.000
   0.06566544  0.06583450  0.06600985       0.000
   0.06912151  0.06929947  0.06948405       0.000
   0.07257759  0.07276444  0.07295825       0.000
   0.07603366  0.07622941  0.07643245       0.000
   0.07948974  0.07969439  0.07990666       0.000
   0.07507364  0.07969444  0.07546750       0.000
   0.07065755  0.07969450  0.07102836       0.000
   0.06624145  0.07969455  0.06658921       0.000
   0.06182535  0.07969461  0.06215006       0.000
   0.05740925  0.07969466  0.05771090       0.000
   0.05299316  0.07969472  0.05327175       0.000
   0.04857706  0.07969477  0.04883260       0.000
   0.04416097  0.07969483  0.04439345       0.000
   0.03974487  0.07969488  0.03995430       0.000
   0.03532878  0.07969493  0.03551515       0.000
   0.03091268  0.07969499  0.03107600       0.000
   0.02649658  0.07969504  0.02663685       0.000
   0.02208049  0.07969510  0.02219771       0.000
   0.01766438  0.07969515  0.01775855       0.000
   0.01324829  0.07969521  0.01331940       0.000
   0.00883220  0.07969526  0.00888025       0.000
   0.00441610  0.07969532  0.00444110       0.000
   0.00000000  0.07969537  0.00000195       0.000
   0.00611460  0.07969530  0.00004047       0.000
   0.01222919  0.07969522  0.00007898       0.000
   0.01834379  0.07969515  0.00011750       0.000
   0.02445838  0.07969507  0.00015602       0.000
   0.03057298  0.07969499  0.00019454       0.000
   0.03668757  0.07969492  0.00023306       0.000
   0.04280217  0.07969484  0.00027158       0.000
   0.04891676  0.07969477  0.00031010       0.000
   0.05503136  0.07969469  0.00034862       0.000
   0.06114595  0.07969461  0.00038714       0.000
   0.06726055  0.07969454  0.00042566       0.000
   0.07337515  0.07969446  0.00046417       0.000
   0.07948974  0.07969439  0.00050269       0.000
   0.07948974  0.07969439  0.00661069       0.000
   0.07948974  0.07969439  0.01271869       0.000
   0.07948974  0.07969439  0.01882669       0.000
   0.07948974  0.07969439  0.02493468       0.000
   0.07948974  0.07969439  0.03104268       0.000
   0.07948974  0.07969439  0.03715068       0.000
   0.07948974  0.07969439  0.04325867       0.000
   0.07948974  0.07969439  0.04936667       0.000
   0.07948974  0.07969439  0.05547467       0.000
   0.07948974  0.07969439  0.06158267       0.000
   0.07948974  0.07969439  0.06769066       0.000
   0.07948974  0.07969439  0.07379866       0.000
   0.07948974  0.07969439  0.07990666       0.000
 
 k-points in reciprocal lattice and weights: Automatically generated mesh. SCF:112, k
   0.00000000  0.00000000  0.00000000       0.005
   0.16666667  0.00000000  0.00000000       0.009
   0.33333333  0.00000000  0.00000000       0.009
   0.50000000  0.00000000  0.00000000       0.005
   0.00000000  0.16666667  0.00000000       0.009
   0.16666667  0.16666667  0.00000000       0.009
   0.33333333  0.16666667  0.00000000       0.009
   0.50000000  0.16666667  0.00000000       0.009
  -0.33333333  0.16666667  0.00000000       0.009
  -0.16666667  0.16666667  0.00000000       0.009
   0.00000000  0.33333333  0.00000000       0.009
   0.16666667  0.33333333  0.00000000       0.009
   0.33333333  0.33333333  0.00000000       0.009
   0.50000000  0.33333333  0.00000000       0.009
  -0.33333333  0.33333333  0.00000000       0.009
  -0.16666667  0.33333333  0.00000000       0.009
   0.00000000  0.50000000  0.00000000       0.005
   0.16666667  0.50000000  0.00000000       0.009
   0.33333333  0.50000000  0.00000000       0.009
   0.50000000  0.50000000  0.00000000       0.005
   0.00000000  0.00000000  0.16666667       0.009
   0.16666667  0.00000000  0.16666667       0.009
   0.33333333  0.00000000  0.16666667       0.009
   0.50000000  0.00000000  0.16666667       0.009
  -0.33333333  0.00000000  0.16666667       0.009
  -0.16666667  0.00000000  0.16666667       0.009
   0.00000000  0.16666667  0.16666667       0.009
   0.16666667  0.16666667  0.16666667       0.009
   0.33333333  0.16666667  0.16666667       0.009
   0.50000000  0.16666667  0.16666667       0.009
  -0.33333333  0.16666667  0.16666667       0.009
  -0.16666667  0.16666667  0.16666667       0.009
   0.00000000  0.33333333  0.16666667       0.009
   0.16666667  0.33333333  0.16666667       0.009
   0.33333333  0.33333333  0.16666667       0.009
   0.50000000  0.33333333  0.16666667       0.009
  -0.33333333  0.33333333  0.16666667       0.009
  -0.16666667  0.33333333  0.16666667       0.009
   0.00000000  0.50000000  0.16666667       0.009
   0.16666667  0.50000000  0.16666667       0.009
   0.33333333  0.50000000  0.16666667       0.009
   0.50000000  0.50000000  0.16666667       0.009
  -0.33333333  0.50000000  0.16666667       0.009
  -0.16666667  0.50000000  0.16666667       0.009
   0.00000000 -0.33333333  0.16666667       0.009
   0.16666667 -0.33333333  0.16666667       0.009
   0.33333333 -0.33333333  0.16666667       0.009
   0.50000000 -0.33333333  0.16666667       0.009
  -0.33333333 -0.33333333  0.16666667       0.009
  -0.16666667 -0.33333333  0.16666667       0.009
   0.00000000 -0.16666667  0.16666667       0.009
   0.16666667 -0.16666667  0.16666667       0.009
   0.33333333 -0.16666667  0.16666667       0.009
   0.50000000 -0.16666667  0.16666667       0.009
  -0.33333333 -0.16666667  0.16666667       0.009
  -0.16666667 -0.16666667  0.16666667       0.009
   0.00000000  0.00000000  0.33333333       0.009
   0.16666667  0.00000000  0.33333333       0.009
   0.33333333  0.00000000  0.33333333       0.009
   0.50000000  0.00000000  0.33333333       0.009
  -0.33333333  0.00000000  0.33333333       0.009
  -0.16666667  0.00000000  0.33333333       0.009
   0.00000000  0.16666667  0.33333333       0.009
   0.16666667  0.16666667  0.33333333       0.009
   0.33333333  0.16666667  0.33333333       0.009
   0.50000000  0.16666667  0.33333333       0.009
  -0.33333333  0.16666667  0.33333333       0.009
  -0.16666667  0.16666667  0.33333333       0.009
   0.00000000  0.33333333  0.33333333       0.009
   0.16666667  0.33333333  0.33333333       0.009
   0.33333333  0.33333333  0.33333333       0.009
   0.50000000  0.33333333  0.33333333       0.009
  -0.33333333  0.33333333  0.33333333       0.009
  -0.16666667  0.33333333  0.33333333       0.009
   0.00000000  0.50000000  0.33333333       0.009
   0.16666667  0.50000000  0.33333333       0.009
   0.33333333  0.50000000  0.33333333       0.009
   0.50000000  0.50000000  0.33333333       0.009
  -0.33333333  0.50000000  0.33333333       0.009
  -0.16666667  0.50000000  0.33333333       0.009
   0.00000000 -0.33333333  0.33333333       0.009
   0.16666667 -0.33333333  0.33333333       0.009
   0.33333333 -0.33333333  0.33333333       0.009
   0.50000000 -0.33333333  0.33333333       0.009
  -0.33333333 -0.33333333  0.33333333       0.009
  -0.16666667 -0.33333333  0.33333333       0.009
   0.00000000 -0.16666667  0.33333333       0.009
   0.16666667 -0.16666667  0.33333333       0.009
   0.33333333 -0.16666667  0.33333333       0.009
   0.50000000 -0.16666667  0.33333333       0.009
  -0.33333333 -0.16666667  0.33333333       0.009
  -0.16666667 -0.16666667  0.33333333       0.009
   0.00000000  0.00000000  0.50000000       0.005
   0.16666667  0.00000000  0.50000000       0.009
   0.33333333  0.00000000  0.50000000       0.009
   0.50000000  0.00000000  0.50000000       0.005
   0.00000000  0.16666667  0.50000000       0.009
   0.16666667  0.16666667  0.50000000       0.009
   0.33333333  0.16666667  0.50000000       0.009
   0.50000000  0.16666667  0.50000000       0.009
  -0.33333333  0.16666667  0.50000000       0.009
  -0.16666667  0.16666667  0.50000000       0.009
   0.00000000  0.33333333  0.50000000       0.009
   0.16666667  0.33333333  0.50000000       0.009
   0.33333333  0.33333333  0.50000000       0.009
   0.50000000  0.33333333  0.50000000       0.009
  -0.33333333  0.33333333  0.50000000       0.009
  -0.16666667  0.33333333  0.50000000       0.009
   0.00000000  0.50000000  0.50000000       0.005
   0.16666667  0.50000000  0.50000000       0.009
   0.33333333  0.50000000  0.50000000       0.009
   0.50000000  0.50000000  0.50000000       0.005
   0.00000000  0.00000000  0.00000000       0.000
   0.02173913  0.02173913  0.02173913       0.000
   0.04347826  0.04347826  0.04347826       0.000
   0.06521739  0.06521739  0.06521739       0.000
   0.08695652  0.08695652  0.08695652       0.000
   0.10869566  0.10869566  0.10869566       0.000
   0.13043478  0.13043478  0.13043478       0.000
   0.15217392  0.15217392  0.15217392       0.000
   0.17391305  0.17391305  0.17391305       0.000
   0.19565217  0.19565217  0.19565217       0.000
   0.21739131  0.21739131  0.21739131       0.000
   0.23913044  0.23913044  0.23913044       0.000
   0.26086956  0.26086956  0.26086956       0.000
   0.28260872  0.28260872  0.28260872       0.000
   0.30434784  0.30434784  0.30434784       0.000
   0.32608697  0.32608697  0.32608697       0.000
   0.34782609  0.34782609  0.34782609       0.000
   0.36956522  0.36956522  0.36956522       0.000
   0.39130434  0.39130434  0.39130434       0.000
   0.41304350  0.41304350  0.41304350       0.000
   0.43478262  0.43478262  0.43478262       0.000
   0.45652175  0.45652175  0.45652175       0.000
   0.47826087  0.47826087  0.47826087       0.000
   0.50000000  0.50000000  0.50000000       0.000
   0.47222221  0.50000000  0.47222221       0.000
   0.44444445  0.50000000  0.44444445       0.000
   0.41666669  0.50000000  0.41666669       0.000
   0.38888890  0.50000000  0.38888890       0.000
   0.36111110  0.50000000  0.36111110       0.000
   0.33333334  0.50000000  0.33333334       0.000
   0.30555555  0.50000000  0.30555555       0.000
   0.27777779  0.50000000  0.27777779       0.000
   0.25000000  0.50000000  0.25000000       0.000
   0.22222224  0.50000000  0.22222224       0.000
   0.19444445  0.50000000  0.19444445       0.000
   0.16666669  0.50000000  0.16666669       0.000
   0.13888893  0.50000000  0.13888893       0.000
   0.11111110  0.50000000  0.11111110       0.000
   0.08333334  0.50000000  0.08333334       0.000
   0.05555558  0.50000000  0.05555558       0.000
   0.02777782  0.50000000  0.02777782       0.000
   0.00000003  0.50000000  0.00000003       0.000
   0.03846154  0.50000000  0.00000000       0.000
   0.07692308  0.50000000  0.00000000       0.000
   0.11538462  0.50000000  0.00000000       0.000
   0.15384616  0.50000000  0.00000000       0.000
   0.19230770  0.50000000  0.00000000       0.000
   0.23076925  0.50000000  0.00000000       0.000
   0.26923078  0.50000000  0.00000000       0.000
   0.30769232  0.50000000  0.00000000       0.000
   0.34615386  0.50000000  0.00000000       0.000
   0.38461539  0.50000000  0.00000000       0.000
   0.42307693  0.50000000  0.00000000       0.000
   0.46153849  0.50000000  0.00000000       0.000
   0.50000000  0.50000000  0.00000000       0.000
   0.50000000  0.50000000  0.03846154       0.000
   0.50000000  0.50000000  0.07692308       0.000
   0.50000000  0.50000000  0.11538462       0.000
   0.50000000  0.50000000  0.15384616       0.000
   0.50000000  0.50000000  0.19230770       0.000
   0.50000000  0.50000000  0.23076925       0.000
   0.50000000  0.50000000  0.26923078       0.000
   0.50000000  0.50000000  0.30769232       0.000
   0.50000000  0.50000000  0.34615386       0.000
   0.50000000  0.50000000  0.38461539       0.000
   0.50000000  0.50000000  0.42307693       0.000
   0.50000000  0.50000000  0.46153849       0.000
   0.50000000  0.50000000  0.50000000       0.000
 
 position of ions in fractional coordinates (direct lattice) 
   0.90278000  0.99996299  0.99633503
   0.13658300  0.99982703  0.02487800
   0.86450797  0.99971300  0.82573497
   0.83779401  0.14375700  0.07192800
   0.83758902  0.85651600  0.07238300
   0.20758800  0.13427401  0.95813400
   0.20739301  0.86506301  0.95849699
   0.18201301  0.00000300  0.18535300
   0.47617099  0.50003099  0.47564700
   0.42680299  0.49988300  0.97260898
   0.43586001  0.00004500  0.50654203
   0.96289802  0.50022697  0.44774699
 
 position of ions in cartesian coordinates  (Angst):
   5.63915012  6.27350457  6.27383704
   0.85821431  6.27280098  0.15665466
   5.40518177  6.27196244  5.19958297
   5.26698290  0.90190455  0.45292452
   5.26573087  5.37367608  0.45578961
   1.26775705  0.84227299  6.03328837
   1.26657288  5.42716279  6.03557410
   1.13753116 -0.00000968  1.16715207
   2.97634380  3.13706631  2.99510876
   2.64609990  3.13606136  6.12443614
   2.72151852  0.00020442  3.18965211
   6.03902202  3.13830016  2.81942477
 


--------------------------------------------------------------------------------------------------------


 k-point  1 :   0.0000 0.0000 0.0000  plane waves:    6329
 k-point  2 :   0.1667 0.0000 0.0000  plane waves:    6328
 k-point  3 :   0.3333 0.0000 0.0000  plane waves:    6330
 k-point  4 :   0.5000 0.0000 0.0000  plane waves:    6342
 k-point  5 :   0.0000 0.1667 0.0000  plane waves:    6328
 k-point  6 :   0.1667 0.1667 0.0000  plane waves:    6317
 k-point  7 :   0.3333 0.1667 0.0000  plane waves:    6315
 k-point  8 :   0.5000 0.1667 0.0000  plane waves:    6314
 k-point  9 :  -0.3333 0.1667 0.0000  plane waves:    6315
 k-point 10 :  -0.1667 0.1667 0.0000  plane waves:    6317
 k-point 11 :   0.0000 0.3333 0.0000  plane waves:    6327
 k-point 12 :   0.1667 0.3333 0.0000  plane waves:    6315
 k-point 13 :   0.3333 0.3333 0.0000  plane waves:    6301
 k-point 14 :   0.5000 0.3333 0.0000  plane waves:    6298
 k-point 15 :  -0.3333 0.3333 0.0000  plane waves:    6301
 k-point 16 :  -0.1667 0.3333 0.0000  plane waves:    6315
 k-point 17 :   0.0000 0.5000 0.0000  plane waves:    6358
 k-point 18 :   0.1667 0.5000 0.0000  plane waves:    6316
 k-point 19 :   0.3333 0.5000 0.0000  plane waves:    6298
 k-point 20 :   0.5000 0.5000 0.0000  plane waves:    6272
 k-point 21 :   0.0000 0.0000 0.1667  plane waves:    6326
 k-point 22 :   0.1667 0.0000 0.1667  plane waves:    6318
 k-point 23 :   0.3333 0.0000 0.1667  plane waves:    6320
 k-point 24 :   0.5000 0.0000 0.1667  plane waves:    6316
 k-point 25 :  -0.3333 0.0000 0.1667  plane waves:    6311
 k-point 26 :  -0.1667 0.0000 0.1667  plane waves:    6308
 k-point 27 :   0.0000 0.1667 0.1667  plane waves:    6315
 k-point 28 :   0.1667 0.1667 0.1667  plane waves:    6321
 k-point 29 :   0.3333 0.1667 0.1667  plane waves:    6318
 k-point 30 :   0.5000 0.1667 0.1667  plane waves:    6300
 k-point 31 :  -0.3333 0.1667 0.1667  plane waves:    6317
 k-point 32 :  -0.1667 0.1667 0.1667  plane waves:    6331
 k-point 33 :   0.0000 0.3333 0.1667  plane waves:    6315
 k-point 34 :   0.1667 0.3333 0.1667  plane waves:    6311
 k-point 35 :   0.3333 0.3333 0.1667  plane waves:    6304
 k-point 36 :   0.5000 0.3333 0.1667  plane waves:    6304
 k-point 37 :  -0.3333 0.3333 0.1667  plane waves:    6307
 k-point 38 :  -0.1667 0.3333 0.1667  plane waves:    6311
 k-point 39 :   0.0000 0.5000 0.1667  plane waves:    6308
 k-point 40 :   0.1667 0.5000 0.1667  plane waves:    6305
 k-point 41 :   0.3333 0.5000 0.1667  plane waves:    6316
 k-point 42 :   0.5000 0.5000 0.1667  plane waves:    6300
 k-point 43 :  -0.3333 0.5000 0.1667  plane waves:    6297
 k-point 44 :  -0.1667 0.5000 0.1667  plane waves:    6306
 k-point 45 :   0.0000-0.3333 0.1667  plane waves:    6315
 k-point 46 :   0.1667-0.3333 0.1667  plane waves:    6311
 k-point 47 :   0.3333-0.3333 0.1667  plane waves:    6304
 k-point 48 :   0.5000-0.3333 0.1667  plane waves:    6304
 k-point 49 :  -0.3333-0.3333 0.1667  plane waves:    6306
 k-point 50 :  -0.1667-0.3333 0.1667  plane waves:    6311
 k-point 51 :   0.0000-0.1667 0.1667  plane waves:    6314
 k-point 52 :   0.1667-0.1667 0.1667  plane waves:    6321
 k-point 53 :   0.3333-0.1667 0.1667  plane waves:    6318
 k-point 54 :   0.5000-0.1667 0.1667  plane waves:    6300
 k-point 55 :  -0.3333-0.1667 0.1667  plane waves:    6317
 k-point 56 :  -0.1667-0.1667 0.1667  plane waves:    6331
 k-point 57 :   0.0000 0.0000 0.3333  plane waves:    6323
 k-point 58 :   0.1667 0.0000 0.3333  plane waves:    6319
 k-point 59 :   0.3333 0.0000 0.3333  plane waves:    6300
 k-point 60 :   0.5000 0.0000 0.3333  plane waves:    6301
 k-point 61 :  -0.3333 0.0000 0.3333  plane waves:    6306
 k-point 62 :  -0.1667 0.0000 0.3333  plane waves:    6310
 k-point 63 :   0.0000 0.1667 0.3333  plane waves:    6313
 k-point 64 :   0.1667 0.1667 0.3333  plane waves:    6320
 k-point 65 :   0.3333 0.1667 0.3333  plane waves:    6309
 k-point 66 :   0.5000 0.1667 0.3333  plane waves:    6307
 k-point 67 :  -0.3333 0.1667 0.3333  plane waves:    6303
 k-point 68 :  -0.1667 0.1667 0.3333  plane waves:    6322
 k-point 69 :   0.0000 0.3333 0.3333  plane waves:    6301
 k-point 70 :   0.1667 0.3333 0.3333  plane waves:    6305
 k-point 71 :   0.3333 0.3333 0.3333  plane waves:    6316
 k-point 72 :   0.5000 0.3333 0.3333  plane waves:    6296
 k-point 73 :  -0.3333 0.3333 0.3333  plane waves:    6297
 k-point 74 :  -0.1667 0.3333 0.3333  plane waves:    6298
 k-point 75 :   0.0000 0.5000 0.3333  plane waves:    6298
 k-point 76 :   0.1667 0.5000 0.3333  plane waves:    6318
 k-point 77 :   0.3333 0.5000 0.3333  plane waves:    6300
 k-point 78 :   0.5000 0.5000 0.3333  plane waves:    6278
 k-point 79 :  -0.3333 0.5000 0.3333  plane waves:    6298
 k-point 80 :  -0.1667 0.5000 0.3333  plane waves:    6300
 k-point 81 :   0.0000-0.3333 0.3333  plane waves:    6301
 k-point 82 :   0.1667-0.3333 0.3333  plane waves:    6305
 k-point 83 :   0.3333-0.3333 0.3333  plane waves:    6316
 k-point 84 :   0.5000-0.3333 0.3333  plane waves:    6296
 k-point 85 :  -0.3333-0.3333 0.3333  plane waves:    6297
 k-point 86 :  -0.1667-0.3333 0.3333  plane waves:    6299
 k-point 87 :   0.0000-0.1667 0.3333  plane waves:    6313
 k-point 88 :   0.1667-0.1667 0.3333  plane waves:    6320
 k-point 89 :   0.3333-0.1667 0.3333  plane waves:    6309
 k-point 90 :   0.5000-0.1667 0.3333  plane waves:    6307
 k-point 91 :  -0.3333-0.1667 0.3333  plane waves:    6303
 k-point 92 :  -0.1667-0.1667 0.3333  plane waves:    6321
 k-point 93 :   0.0000 0.0000 0.5000  plane waves:    6334
 k-point 94 :   0.1667 0.0000 0.5000  plane waves:    6312
 k-point 95 :   0.3333 0.0000 0.5000  plane waves:    6298
 k-point 96 :   0.5000 0.0000 0.5000  plane waves:    6272
 k-point 97 :   0.0000 0.1667 0.5000  plane waves:    6310
 k-point 98 :   0.1667 0.1667 0.5000  plane waves:    6306
 k-point 99 :   0.3333 0.1667 0.5000  plane waves:    6302
 k-point ** :   0.5000 0.1667 0.5000  plane waves:    6304
 k-point ** :  -0.3333 0.1667 0.5000  plane waves:    6302
 k-point ** :  -0.1667 0.1667 0.5000  plane waves:    6305
 k-point ** :   0.0000 0.3333 0.5000  plane waves:    6298
 k-point ** :   0.1667 0.3333 0.5000  plane waves:    6304
 k-point ** :   0.3333 0.3333 0.5000  plane waves:    6291
 k-point ** :   0.5000 0.3333 0.5000  plane waves:    6270
 k-point ** :  -0.3333 0.3333 0.5000  plane waves:    6293
 k-point ** :  -0.1667 0.3333 0.5000  plane waves:    6304
 k-point ** :   0.0000 0.5000 0.5000  plane waves:    6276
 k-point ** :   0.1667 0.5000 0.5000  plane waves:    6300
 k-point ** :   0.3333 0.5000 0.5000  plane waves:    6282
 k-point ** :   0.5000 0.5000 0.5000  plane waves:    6272
 k-point ** :   0.0000 0.0000 0.0000  plane waves:    6329
 k-point ** :   0.0217 0.0217 0.0217  plane waves:    6331
 k-point ** :   0.0435 0.0435 0.0435  plane waves:    6324
 k-point ** :   0.0652 0.0652 0.0652  plane waves:    6306
 k-point ** :   0.0870 0.0870 0.0870  plane waves:    6311
 k-point ** :   0.1087 0.1087 0.1087  plane waves:    6317
 k-point ** :   0.1304 0.1304 0.1304  plane waves:    6326
 k-point ** :   0.1522 0.1522 0.1522  plane waves:    6318
 k-point ** :   0.1739 0.1739 0.1739  plane waves:    6319
 k-point ** :   0.1957 0.1957 0.1957  plane waves:    6327
 k-point ** :   0.2174 0.2174 0.2174  plane waves:    6328
 k-point ** :   0.2391 0.2391 0.2391  plane waves:    6322
 k-point ** :   0.2609 0.2609 0.2609  plane waves:    6314
 k-point ** :   0.2826 0.2826 0.2826  plane waves:    6316
 k-point ** :   0.3043 0.3043 0.3043  plane waves:    6317
 k-point ** :   0.3261 0.3261 0.3261  plane waves:    6316
 k-point ** :   0.3478 0.3478 0.3478  plane waves:    6312
 k-point ** :   0.3696 0.3696 0.3696  plane waves:    6299
 k-point ** :   0.3913 0.3913 0.3913  plane waves:    6294
 k-point ** :   0.4130 0.4130 0.4130  plane waves:    6276
 k-point ** :   0.4348 0.4348 0.4348  plane waves:    6283
 k-point ** :   0.4565 0.4565 0.4565  plane waves:    6255
 k-point ** :   0.4783 0.4783 0.4783  plane waves:    6245
 k-point ** :   0.5000 0.5000 0.5000  plane waves:    6272
 k-point ** :   0.4722 0.5000 0.4722  plane waves:    6244
 k-point ** :   0.4444 0.5000 0.4444  plane waves:    6249
 k-point ** :   0.4167 0.5000 0.4167  plane waves:    6278
 k-point ** :   0.3889 0.5000 0.3889  plane waves:    6275
 k-point ** :   0.3611 0.5000 0.3611  plane waves:    6294
 k-point ** :   0.3333 0.5000 0.3333  plane waves:    6300
 k-point ** :   0.3056 0.5000 0.3056  plane waves:    6302
 k-point ** :   0.2778 0.5000 0.2778  plane waves:    6306
 k-point ** :   0.2500 0.5000 0.2500  plane waves:    6308
 k-point ** :   0.2222 0.5000 0.2222  plane waves:    6304
 k-point ** :   0.1944 0.5000 0.1944  plane waves:    6296
 k-point ** :   0.1667 0.5000 0.1667  plane waves:    6305
 k-point ** :   0.1389 0.5000 0.1389  plane waves:    6316
 k-point ** :   0.1111 0.5000 0.1111  plane waves:    6323
 k-point ** :   0.0833 0.5000 0.0833  plane waves:    6334
 k-point ** :   0.0556 0.5000 0.0556  plane waves:    6341
 k-point ** :   0.0278 0.5000 0.0278  plane waves:    6356
 k-point ** :   0.0000 0.5000 0.0000  plane waves:    6358
 k-point ** :   0.0385 0.5000 0.0000  plane waves:    6356
 k-point ** :   0.0769 0.5000 0.0000  plane waves:    6346
 k-point ** :   0.1154 0.5000 0.0000  plane waves:    6332
 k-point ** :   0.1538 0.5000 0.0000  plane waves:    6321
 k-point ** :   0.1923 0.5000 0.0000  plane waves:    6306
 k-point ** :   0.2308 0.5000 0.0000  plane waves:    6304
 k-point ** :   0.2692 0.5000 0.0000  plane waves:    6300
 k-point ** :   0.3077 0.5000 0.0000  plane waves:    6304
 k-point ** :   0.3462 0.5000 0.0000  plane waves:    6296
 k-point ** :   0.3846 0.5000 0.0000  plane waves:    6297
 k-point ** :   0.4231 0.5000 0.0000  plane waves:    6288
 k-point ** :   0.4615 0.5000 0.0000  plane waves:    6278
 k-point ** :   0.5000 0.5000 0.0000  plane waves:    6272
 k-point ** :   0.5000 0.5000 0.0385  plane waves:    6282
 k-point ** :   0.5000 0.5000 0.0769  plane waves:    6290
 k-point ** :   0.5000 0.5000 0.1154  plane waves:    6300
 k-point ** :   0.5000 0.5000 0.1538  plane waves:    6302
 k-point ** :   0.5000 0.5000 0.1923  plane waves:    6305
 k-point ** :   0.5000 0.5000 0.2308  plane waves:    6302
 k-point ** :   0.5000 0.5000 0.2692  plane waves:    6304
 k-point ** :   0.5000 0.5000 0.3077  plane waves:    6290
 k-point ** :   0.5000 0.5000 0.3462  plane waves:    6288
 k-point ** :   0.5000 0.5000 0.3846  plane waves:    6274
 k-point ** :   0.5000 0.5000 0.4231  plane waves:    6272
 k-point ** :   0.5000 0.5000 0.4615  plane waves:    6264
 k-point ** :   0.5000 0.5000 0.5000  plane waves:    6272

 maximum and minimum number of plane-waves per node :      1077     1020

 maximum number of plane-waves:      6358
 maximum index in each direction: 
   IXMAX=   11   IYMAX=   11   IZMAX=   11
   IXMIN=  -11   IYMIN=  -11   IZMIN=  -11

 NGX is ok and might be reduce to  46
 NGY is ok and might be reduce to  46
 NGZ is ok and might be reduce to  46

 parallel 3D FFT for wavefunctions:
    minimum data exchange during FFTs selected (reduces bandwidth)
 parallel 3D FFT for charge:
    minimum data exchange during FFTs selected (reduces bandwidth)


 total amount of memory used by VASP on root node   216423. kBytes
========================================================================

   base      :      30000. kBytes
   nonl-proj :     139656. kBytes
   fftplans  :       1811. kBytes
   grid      :       3741. kBytes
   one-center:         31. kBytes
   wavefun   :      41184. kBytes
 
     INWAV:  cpu time    0.0000: real time    0.0000
 initial charge density was supplied:
 number of electron      49.9999995 magnetization 
 keeping initial charge density in first step


--------------------------------------------------------------------------------------------------------


 Maximum index for augmentation-charges         1007 (set IRDMAX)


--------------------------------------------------------------------------------------------------------


 First call to EWALD:  gamma=   0.282
 Maximum number of real-space cells 3x 3x 3
 Maximum number of reciprocal cells 3x 3x 3

 FEWALD executed in parallel
    FEWALD:  cpu time    0.0000: real time    0.0015


----------------------------------------- Iteration    1(   1)  ---------------------------------------


    POTLOK:  cpu time    0.0200: real time    0.0210
    SETDIJ:  cpu time    0.0040: real time    0.0030
     EDDAV:  cpu time    2.4242: real time    2.4286
       DOS:  cpu time    0.0040: real time    0.0034
    --------------------------------------------
      LOOP:  cpu time    2.4602: real time    2.4779

 eigenvalue-minimisations  : 18720
 total energy-change (2. order) : 0.3337259E+03  (-0.1867839E+04)
 number of electron      49.9999995 magnetization 
 augmentation part       49.9999995 magnetization 

 Free energy of the ion-electron system (eV)
  ---------------------------------------------------
  alpha Z        PSCENC =        46.46595848
  Ewald energy   TEWEN  =     -1941.32201603
  -Hartree energ DENC   =     -1052.24626536
  -exchange      EXHF   =         0.00000000
  -V(xc)+E(xc)   XCENC  =        52.38041161
  PAW double counting   =      3630.16363184    -3536.86846674
  entropy T*S    EENTRO =        -0.00007964
  eigenvalues    EBANDS =        41.55450309
  atomic energy  EATOM  =      3093.59820730
  Solvation  Ediel_sol  =         0.00000000
  ---------------------------------------------------
  free energy    TOTEN  =       333.72588454 eV

  energy without entropy =      333.72596419  energy(sigma->0) =      333.72592436


--------------------------------------------------------------------------------------------------------




----------------------------------------- Iteration    1(   2)  ---------------------------------------


     EDDAV:  cpu time    2.6202: real time    2.6224
       DOS:  cpu time    0.0040: real time    0.0022
    --------------------------------------------
      LOOP:  cpu time    2.6242: real time    2.6317

 eigenvalue-minimisations  : 20832
 total energy-change (2. order) :-0.3445600E+03  (-0.3179623E+03)
 number of electron      49.9999995 magnetization 
 augmentation part       49.9999995 magnetization 

 Free energy of the ion-electron system (eV)
  ---------------------------------------------------
  alpha Z        PSCENC =        46.46595848
  Ewald energy   TEWEN  =     -1941.32201603
  -Hartree energ DENC   =     -1052.24626536
  -exchange      EXHF   =         0.00000000
  -V(xc)+E(xc)   XCENC  =        52.38041161
  PAW double counting   =      3630.16363184    -3536.86846674
  entropy T*S    EENTRO =        -0.00000000
  eigenvalues    EBANDS =      -303.00557540
  atomic energy  EATOM  =      3093.59820730
  Solvation  Ediel_sol  =         0.00000000
  ---------------------------------------------------
  free energy    TOTEN  =       -10.83411431 eV

  energy without entropy =      -10.83411431  energy(sigma->0) =      -10.83411431


--------------------------------------------------------------------------------------------------------




----------------------------------------- Iteration    1(   3)  ---------------------------------------


     EDDAV:  cpu time    2.9202: real time    2.9239
       DOS:  cpu time    0.0040: real time    0.0024
    --------------------------------------------
      LOOP:  cpu time    2.9242: real time    2.9341

 eigenvalue-minimisations  : 24092
 total energy-change (2. order) :-0.3948867E+02  (-0.3892089E+02)
 number of electron      49.9999995 magnetization 
 augmentation part       49.9999995 magnetization 

 Free energy of the ion-electron system (eV)
  ---------------------------------------------------
  alpha Z        PSCENC =        46.46595848
  Ewald energy   TEWEN  =     -1941.32201603
  -Hartree energ DENC   =     -1052.24626536
  -exchange      EXHF   =         0.00000000
  -V(xc)+E(xc)   XCENC  =        52.38041161
  PAW double counting   =      3630.16363184    -3536.86846674
  entropy T*S    EENTRO =        -0.00000000
  eigenvalues    EBANDS =      -342.49424238
  atomic energy  EATOM  =      3093.59820730
  Solvation  Ediel_sol  =         0.00000000
  ---------------------------------------------------
  free energy    TOTEN  =       -50.32278129 eV

  energy without entropy =      -50.32278129  energy(sigma->0) =      -50.32278129


--------------------------------------------------------------------------------------------------------




----------------------------------------- Iteration    1(   4)  ---------------------------------------


     EDDAV:  cpu time    2.9882: real time    2.9897
       DOS:  cpu time    0.0000: real time    0.0021
    --------------------------------------------
      LOOP:  cpu time    2.9882: real time    2.9994

 eigenvalue-minimisations  : 24696
 total energy-change (2. order) :-0.1701145E+01  (-0.1698285E+01)
 number of electron      49.9999995 magnetization 
 augmentation part       49.9999995 magnetization 

 Free energy of the ion-electron system (eV)
  ---------------------------------------------------
  alpha Z        PSCENC =        46.46595848
  Ewald energy   TEWEN  =     -1941.32201603
  -Hartree energ DENC   =     -1052.24626536
  -exchange      EXHF   =         0.00000000
  -V(xc)+E(xc)   XCENC  =        52.38041161
  PAW double counting   =      3630.16363184    -3536.86846674
  entropy T*S    EENTRO =        -0.00000000
  eigenvalues    EBANDS =      -344.19538786
  atomic energy  EATOM  =      3093.59820730
  Solvation  Ediel_sol  =         0.00000000
  ---------------------------------------------------
  free energy    TOTEN  =       -52.02392677 eV

  energy without entropy =      -52.02392677  energy(sigma->0) =      -52.02392677


--------------------------------------------------------------------------------------------------------




----------------------------------------- Iteration    1(   5)  ---------------------------------------


     EDDAV:  cpu time    3.0842: real time    3.0908
       DOS:  cpu time    0.0000: real time    0.0024
    --------------------------------------------
      LOOP:  cpu time    3.0922: real time    3.1001

 eigenvalue-minimisations  : 25876
 total energy-change (2. order) :-0.4396411E-01  (-0.4395754E-01)
 number of electron      49.9999995 magnetization 
 augmentation part       49.9999995 magnetization 

 Free energy of the ion-electron system (eV)
  ---------------------------------------------------
  alpha Z        PSCENC =        46.46595848
  Ewald energy   TEWEN  =     -1941.32201603
  -Hartree energ DENC   =     -1052.24626536
  -exchange      EXHF   =         0.00000000
  -V(xc)+E(xc)   XCENC  =        52.38041161
  PAW double counting   =      3630.16363184    -3536.86846674
  entropy T*S    EENTRO =        -0.00000000
  eigenvalues    EBANDS =      -344.23935197
  atomic energy  EATOM  =      3093.59820730
  Solvation  Ediel_sol  =         0.00000000
  ---------------------------------------------------
  free energy    TOTEN  =       -52.06789088 eV

  energy without entropy =      -52.06789088  energy(sigma->0) =      -52.06789088


--------------------------------------------------------------------------------------------------------




----------------------------------------- Iteration    1(   6)  ---------------------------------------


     EDDAV:  cpu time    3.0362: real time    3.0401
       DOS:  cpu time    0.0000: real time    0.0024
    --------------------------------------------
      LOOP:  cpu time    3.0402: real time    3.0746

 eigenvalue-minimisations  : 25528
 total energy-change (2. order) :-0.1593409E-02  (-0.1593379E-02)
 number of electron      49.9999995 magnetization 
 augmentation part       49.9999995 magnetization 

 Free energy of the ion-electron system (eV)
  ---------------------------------------------------
  alpha Z        PSCENC =        46.46595848
  Ewald energy   TEWEN  =     -1941.32201603
  -Hartree energ DENC   =     -1052.24626536
  -exchange      EXHF   =         0.00000000
  -V(xc)+E(xc)   XCENC  =        52.38041161
  PAW double counting   =      3630.16363184    -3536.86846674
  entropy T*S    EENTRO =        -0.00000000
  eigenvalues    EBANDS =      -344.24094538
  atomic energy  EATOM  =      3093.59820730
  Solvation  Ediel_sol  =         0.00000000
  ---------------------------------------------------
  free energy    TOTEN  =       -52.06948429 eV

  energy without entropy =      -52.06948429  energy(sigma->0) =      -52.06948429


--------------------------------------------------------------------------------------------------------




----------------------------------------- Iteration    1(   7)  ---------------------------------------


     EDDAV:  cpu time    3.1922: real time    3.1973
       DOS:  cpu time    0.0040: real time    0.0024
    --------------------------------------------
      LOOP:  cpu time    3.2002: real time    3.2058

 eigenvalue-minimisations  : 26876
 total energy-change (2. order) :-0.4898882E-04  (-0.4898862E-04)
 number of electron      49.9999995 magnetization 
 augmentation part       49.9999995 magnetization 

 Free energy of the ion-electron system (eV)
  ---------------------------------------------------
  alpha Z        PSCENC =        46.46595848
  Ewald energy   TEWEN  =     -1941.32201603
  -Hartree energ DENC   =     -1052.24626536
  -exchange      EXHF   =         0.00000000
  -V(xc)+E(xc)   XCENC  =        52.38041161
  PAW double counting   =      3630.16363184    -3536.86846674
  entropy T*S    EENTRO =        -0.00000000
  eigenvalues    EBANDS =      -344.24099437
  atomic energy  EATOM  =      3093.59820730
  Solvation  Ediel_sol  =         0.00000000
  ---------------------------------------------------
  free energy    TOTEN  =       -52.06953328 eV

  energy without entropy =      -52.06953328  energy(sigma->0) =      -52.06953328


--------------------------------------------------------------------------------------------------------




----------------------------------------- Iteration    1(   8)  ---------------------------------------


     EDDAV:  cpu time    2.7522: real time    2.7527
       DOS:  cpu time    0.0040: real time    0.0023
    --------------------------------------------
      LOOP:  cpu time    2.8122: real time    2.8193

 eigenvalue-minimisations  : 21948
 total energy-change (2. order) :-0.5465417E-06  (-0.5465562E-06)
 number of electron      49.9999995 magnetization 
 augmentation part       49.9999995 magnetization 

 Free energy of the ion-electron system (eV)
  ---------------------------------------------------
  alpha Z        PSCENC =        46.46595848
  Ewald energy   TEWEN  =     -1941.32201603
  -Hartree energ DENC   =     -1052.24626536
  -exchange      EXHF   =         0.00000000
  -V(xc)+E(xc)   XCENC  =        52.38041161
  PAW double counting   =      3630.16363184    -3536.86846674
  entropy T*S    EENTRO =        -0.00000000
  eigenvalues    EBANDS =      -344.24099492
  atomic energy  EATOM  =      3093.59820730
  Solvation  Ediel_sol  =         0.00000000
  ---------------------------------------------------
  free energy    TOTEN  =       -52.06953382 eV

  energy without entropy =      -52.06953382  energy(sigma->0) =      -52.06953382


--------------------------------------------------------------------------------------------------------




 the core state eigenenergies are
   1-  1s   -264.1056
   2-  1s   -377.5478
   3-
   4-
   5-
   6-
   7-
   8-
   9-  1s -88085.7473  2s -15747.2406  2p -13502.0038  3s  -3775.4910  3p  -3132.0286
       3d  -2477.0803  4s   -850.0178  4p   -639.2250  4d   -395.6123  4f   -126.6443
       5s   -137.8224  5p    -79.5221
  10-  1s -32968.5479  2s  -5086.7468  2p  -4564.1632  3s  -1020.4596  3p   -851.2045
       3d   -597.9408  4s   -172.8119  4p   -119.8009  4d    -42.5765
  11-  1s -32968.4818  2s  -5086.6809  2p  -4564.0973  3s  -1020.3940  3p   -851.1389
       3d   -597.8751  4s   -172.7467  4p   -119.7358  4d    -42.5115
  12-  1s -32968.2160  2s  -5086.4116  2p  -4563.8285  3s  -1020.1195  3p   -850.8645
       3d   -597.6012  4s   -172.4635  4p   -119.4516  4d    -42.2245
 
 E-fermi :   1.5396     XC(G=0):  -7.7501     alpha+bet : -7.1939


 k-point     1 :       0.0000    0.0000    0.0000
  band No.  band energies     occupation 
      1     -18.2657      2.00000
      2     -15.0569      2.00000
      3     -15.0325      2.00000
      4     -14.9887      2.00000
      5     -14.9708      2.00000
      6     -14.9665      2.00000
      7     -11.3065      2.00000
      8     -10.8394      2.00000
      9     -10.1284      2.00000
     10      -9.8489      2.00000
     11      -7.7815      2.00000
     12      -7.6166      2.00000
     13      -5.7978      2.00000
     14      -5.3359      2.00000
[...]
     42      10.4382      0.00000
     43      11.1672      0.00000
     44      11.2176      0.00000
     45      11.5395      0.00000
     46      11.5491      0.00000
     47      11.9058      0.00000
     48      11.9434      0.00000
     49      12.4766      0.00000
     50      12.5519      0.00000
     51      12.6783      0.00000
     52      13.5475      0.00000

 k-point   176 :       0.5000    0.5000    0.3462
  band No.  band energies     occupation 
      1     -18.2629      2.00000
      2     -15.0381      2.00000
      3     -15.0130      2.00000
      4     -14.9899      2.00000
      5     -14.9721      2.00000
      6     -14.9679      2.00000
      7     -11.3129      2.00000
      8     -10.4578      2.00000
      9     -10.3573      2.00000
     10     -10.0249      2.00000
     11      -7.7036      2.00000
     12      -7.5921      2.00000
     13      -6.9510      2.00000
     14      -5.7704      2.00000
     15      -3.5035      2.00000
     16      -3.5001      2.00000
     17      -0.9593      2.00000
     18      -0.6188      2.00000
     19      -0.6166      2.00000
     20      -0.4615      2.00000
     21       0.1535      2.00000
     22       0.3417      2.00000
     23       0.7314      2.00000
     24       0.8467      2.00000
     25       1.3396      2.00000
     26       3.0626      0.00000
     27       3.1103      0.00000
     28       3.9560      0.00000
     29       5.8103      0.00000
     30       7.1209      0.00000
     31       7.2148      0.00000
     32       7.8410      0.00000
     33       8.0982      0.00000
     34       8.3665      0.00000
     35       8.5874      0.00000
     36       8.6243      0.00000
     37       8.8939      0.00000
     38       8.9451      0.00000
     39       9.3922      0.00000
     40       9.7591      0.00000
     41       9.9257      0.00000
     42      10.4588      0.00000
     43      11.0688      0.00000
     44      11.2219      0.00000
     45      11.4707      0.00000
     46      11.7164      0.00000
     47      11.9368      0.00000
     48      11.9867      0.00000
     49      12.4092      0.00000
     50      12.7146      0.00000
     51      12.7584      0.00000
     52      13.5985      0.00000

 k-point   177 :       0.5000    0.5000    0.3846
  band No.  band energies     occupation 
      1     -18.2628      2.00000
      2     -15.0371      2.00000
      3     -15.0128      2.00000
      4     -14.9899      2.00000
      5     -14.9722      2.00000
      6     -14.9679      2.00000
      7     -11.3107      2.00000
      8     -10.4518      2.00000
      9     -10.3624      2.00000
     10     -10.0244      2.00000
     11      -7.7035      2.00000
     12      -7.5889      2.00000
     13      -6.9984      2.00000
     14      -5.7697      2.00000
     15      -3.5009      2.00000
     16      -3.4979      2.00000
     17      -0.9930      2.00000
     18      -0.6149      2.00000
     19      -0.6097      2.00000
     20      -0.2804      2.00000
     21       0.1509      2.00000
     22       0.3817      2.00000
     23       0.7803      2.00000
     24       0.8465      2.00000
     25       1.3786      2.00000
     26       3.0210      0.00000
     27       3.0600      0.00000
     28       3.6567      0.00000
     29       5.7499      0.00000
     30       7.2077      0.00000
     31       7.2657      0.00000
     32       7.8139      0.00000
     33       8.1013      0.00000
     34       8.3524      0.00000
     35       8.5436      0.00000
     36       8.6268      0.00000
     37       8.9563      0.00000
     38       9.0003      0.00000
     39       9.4005      0.00000
     40       9.7262      0.00000
     41       9.9932      0.00000
     42      10.4788      0.00000
     43      10.9690      0.00000
     44      11.1570      0.00000
     45      11.4146      0.00000
     46      11.8483      0.00000
     47      12.0671      0.00000
     48      12.0944      0.00000
     49      12.3640      0.00000
     50      12.7880      0.00000
     51      12.9577      0.00000
     52      13.5912      0.00000

 k-point   178 :       0.5000    0.5000    0.4231
  band No.  band energies     occupation 
      1     -18.2627      2.00000
      2     -15.0363      2.00000
      3     -15.0126      2.00000
      4     -14.9900      2.00000
      5     -14.9723      2.00000
      6     -14.9679      2.00000
      7     -11.3091      2.00000
      8     -10.4472      2.00000
      9     -10.3662      2.00000
     10     -10.0240      2.00000
     11      -7.7033      2.00000
     12      -7.5865      2.00000
     13      -7.0337      2.00000
     14      -5.7692      2.00000
     15      -3.5016      2.00000
     16      -3.4936      2.00000
     17      -1.0179      2.00000
     18      -0.6264      2.00000
     19      -0.6028      2.00000
     20      -0.1147      2.00000
     21       0.1450      2.00000
     22       0.4120      2.00000
     23       0.8175      2.00000
     24       0.8462      2.00000
     25       1.4226      2.00000
     26       2.9889      0.00000
     27       3.0171      0.00000
     28       3.4098      0.00000
     29       5.7062      0.00000
     30       7.2031      0.00000
     31       7.4128      0.00000
     32       7.7941      0.00000
     33       8.0594      0.00000
     34       8.3328      0.00000
     35       8.5102      0.00000
     36       8.6320      0.00000
     37       9.0269      0.00000
     38       9.0485      0.00000
     39       9.3888      0.00000
     40       9.7077      0.00000
     41      10.0354      0.00000
     42      10.4922      0.00000
     43      10.8829      0.00000
     44      11.0902      0.00000
     45      11.3781      0.00000
     46      11.9537      0.00000
     47      12.1932      0.00000
     48      12.2380      0.00000
     49      12.3504      0.00000
     50      12.8962      0.00000
     51      13.1305      0.00000
     52      13.5279      0.00000

 k-point   179 :       0.5000    0.5000    0.4615
  band No.  band energies     occupation 
      1     -18.2627      2.00000
      2     -15.0358      2.00000
      3     -15.0125      2.00000
      4     -14.9900      2.00000
      5     -14.9723      2.00000
      6     -14.9679      2.00000
      7     -11.3080      2.00000
      8     -10.4443      2.00000
      9     -10.3686      2.00000
     10     -10.0238      2.00000
     11      -7.7031      2.00000
     12      -7.5851      2.00000
     13      -7.0554      2.00000
     14      -5.7689      2.00000
     15      -3.5019      2.00000
     16      -3.4909      2.00000
     17      -1.0332      2.00000
     18      -0.6346      2.00000
     19      -0.5985      2.00000
     20       0.0044      2.00000
     21       0.1325      2.00000
     22       0.4309      2.00000
     23       0.8411      2.00000
     24       0.8460      2.00000
     25       1.4611      2.00000
     26       2.9686      0.00000
     27       2.9836      0.00000
     28       3.2460      0.00000
     29       5.6796      0.00000
     30       7.2004      0.00000
     31       7.5456      0.00000
     32       7.7820      0.00000
     33       7.9814      0.00000
     34       8.3249      0.00000
     35       8.4895      0.00000
     36       8.6370      0.00000
     37       9.0800      0.00000
     38       9.0909      0.00000
     39       9.3644      0.00000
     40       9.7012      0.00000
     41      10.0534      0.00000
     42      10.4987      0.00000
     43      10.8232      0.00000
     44      11.0511      0.00000
     45      11.3600      0.00000
     46      12.0263      0.00000
     47      12.2372      0.00000
     48      12.3788      0.00000
     49      12.3821      0.00000
     50      13.0460      0.00000
     51      13.2563      0.00000
     52      13.5354      0.00000

 k-point   180 :       0.5000    0.5000    0.5000
  band No.  band energies     occupation 
      1     -18.2627      2.00000
      2     -15.0356      2.00000
      3     -15.0124      2.00000
      4     -14.9900      2.00000
      5     -14.9723      2.00000
      6     -14.9679      2.00000
      7     -11.3077      2.00000
      8     -10.4433      2.00000
      9     -10.3695      2.00000
     10     -10.0237      2.00000
     11      -7.7031      2.00000
     12      -7.5846      2.00000
     13      -7.0628      2.00000
     14      -5.7688      2.00000
     15      -3.5021      2.00000
     16      -3.4900      2.00000
     17      -1.0383      2.00000
     18      -0.6375      2.00000
     19      -0.5971      2.00000
     20       0.0561      2.00000
     21       0.1182      2.00000
     22       0.4374      2.00000
     23       0.8458      2.00000
     24       0.8493      2.00000
     25       1.4772      2.00000
     26       2.9616      0.00000
     27       2.9687      0.00000
     28       3.1899      0.00000
     29       5.6707      0.00000
     30       7.1996      0.00000
     31       7.6115      0.00000
     32       7.7780      0.00000
     33       7.9315      0.00000
     34       8.3238      0.00000
     35       8.4825      0.00000
     36       8.6388      0.00000
     37       9.0909      0.00000
     38       9.1199      0.00000
     39       9.3493      0.00000
     40       9.7001      0.00000
     41      10.0574      0.00000
     42      10.5005      0.00000
     43      10.8016      0.00000
     44      11.0392      0.00000
     45      11.3549      0.00000
     46      12.0524      0.00000
     47      12.2432      0.00000
     48      12.4075      0.00000
     49      12.4350      0.00000
     50      13.1249      0.00000
     51      13.2727      0.00000
     52      13.5066      0.00000


--------------------------------------------------------------------------------------------------------


 soft charge-density along one line, spin component           1
         0         1         2         3         4         5         6         7         8         9
 total charge-density along one line
 
 pseudopotential strength for first ion, spin component:           1
  9.919  13.185  -0.000   0.001   0.008   0.000  -0.003  -0.024
 13.185  17.524  -0.000   0.001   0.011   0.000  -0.004  -0.032
 -0.000  -0.000  -4.126   0.000   0.000   8.061  -0.000  -0.000
  0.001   0.001   0.000  -4.126  -0.002  -0.000   8.062   0.004
  0.008   0.011   0.000  -0.002  -4.141  -0.000   0.004   8.091
  0.000   0.000   8.061  -0.000  -0.000 -17.868   0.000   0.000
 -0.003  -0.004  -0.000   8.062   0.004   0.000 -17.869  -0.008
 -0.024  -0.032  -0.000   0.004   8.091   0.000  -0.008 -17.930
 total augmentation occupancy for first ion, spin component:           1
  2.000   0.000   0.000   0.000   0.000   0.000   0.000   0.000
  0.000   0.000   0.000   0.000   0.000   0.000   0.000   0.000
  0.000   0.000   0.667   0.000   0.000   0.000   0.000   0.000
  0.000   0.000   0.000   0.667   0.000   0.000   0.000   0.000
  0.000   0.000   0.000   0.000   0.667   0.000   0.000   0.000
  0.000   0.000   0.000   0.000   0.000   0.000   0.000   0.000
  0.000   0.000   0.000   0.000   0.000   0.000   0.000   0.000
  0.000   0.000   0.000   0.000   0.000   0.000   0.000   0.000


------------------------ aborting loop because EDIFF is reached ----------------------------------------


 


 total charge     
 
# of ion     s       p       d       tot
----------------------------------------
  1        0.836   1.770   0.000   2.606
  2        1.218   2.784   0.000   4.001
  3        0.628   0.045   0.000   0.673
  4        0.627   0.045   0.000   0.672
  5        0.627   0.045   0.000   0.673
  6        0.594   0.078   0.000   0.672
  7        0.594   0.078   0.000   0.671
  8        0.589   0.078   0.000   0.667
  9        1.470   0.524   9.839  11.834
 10        1.505   2.791   0.009   4.305
 11        1.505   2.791   0.009   4.306
 12        1.506   2.781   0.008   4.295
------------------------------------------------
tot       11.701  13.809   9.865  35.376
 
    CHARGE:  cpu time    0.0560: real time    0.0557
    FORLOC:  cpu time    0.0040: real time    0.0043
    FORNL :  cpu time    0.6480: real time    0.6494
    STRESS:  cpu time    2.4081: real time    2.4086
    FORCOR:  cpu time    0.0240: real time    0.0246
    FORHAR:  cpu time    0.0080: real time    0.0080
    OFIELD:  cpu time    0.0000: real time    0.0001

  FORCE on cell =-STRESS in cart. coord.  units (eV):
  Direction    XX          YY          ZZ          XY          YZ          ZX
  --------------------------------------------------------------------------------------
  Alpha Z    46.46596    46.46596    46.46596
  Ewald    -631.85511  -642.25523  -667.21442    -0.07437    -0.09326    21.50540
  Hartree   354.19783   356.78790   341.26445    -0.04951    -0.05753    12.75426
  E(xc)    -199.62874  -199.64543  -199.68894    -0.00020    -0.00000     0.04848
  Local    -618.12349  -606.95270  -567.79588     0.12571     0.14517   -33.82265
  n-local   452.47033   449.32683   449.26074    -0.00160    -0.00005     0.33569
  augment    13.24148    13.23189    13.11842    -0.00015     0.00004     0.02817
  Kinetic   583.40710   583.14913   584.95414     0.00093     0.00432    -0.84067
  Fock        0.00000     0.00000     0.00000     0.00000     0.00000     0.00000
  -------------------------------------------------------------------------------------
  Total       0.17536     0.10835     0.36447     0.00081    -0.00131     0.00870
  in kB       1.13060     0.69857     2.34990     0.00523    -0.00844     0.05608
  external pressure =        1.39 kB  Pullay stress =        0.00 kB


 VOLUME and BASIS-vectors are now :
 -----------------------------------------------------------------------------
  energy-cutoff  :      500.00
  volume of cell :      248.50
      direct lattice vectors                 reciprocal lattice vectors
     6.290120125  0.000000000  0.000000000     0.158979476 -0.000001969  0.001001495
     0.000077694  6.273890018  0.000000000     0.000000000  0.159390744  0.000003893
    -0.039667571 -0.000153793  6.296915042     0.000000000  0.000000000  0.158807923

  length of vectors
     6.290120125  6.273890018  6.297039986     0.158982630  0.159390744  0.158807923


 FORCES acting on ions
    electron-ion (+dipol)            ewald-force                    non-local-force                 convergence-correction
 -----------------------------------------------------------------------------------------------
   0.893E+02 -.819E-01 0.171E+02   -.969E+02 0.863E-01 -.179E+02   0.761E+01 -.341E-02 0.855E+00   -.139E-02 0.206E-04 -.209E-03
   -.423E+02 -.787E-02 0.335E+01   0.412E+02 0.321E-02 -.333E+01   0.105E+01 0.173E-02 -.747E-02   -.117E-02 0.106E-03 -.249E-03
   0.171E+02 0.537E-01 0.494E+02   -.184E+02 -.616E-01 -.550E+02   0.136E+01 0.789E-02 0.555E+01   -.722E-04 0.427E-05 0.174E-03
   0.252E+02 -.389E+02 -.176E+02   -.275E+02 0.435E+02 0.200E+02   0.226E+01 -.464E+01 -.244E+01   -.393E-04 -.165E-03 -.114E-03
   0.253E+02 0.387E+02 -.177E+02   -.275E+02 -.434E+02 0.202E+02   0.226E+01 0.463E+01 -.245E+01   -.413E-04 0.171E-03 -.116E-03
   -.270E+02 -.490E+02 0.270E+02   0.300E+02 0.546E+02 -.298E+02   -.300E+01 -.559E+01 0.278E+01   0.249E-03 0.533E-03 -.289E-03
   -.269E+02 0.490E+02 0.268E+02   0.299E+02 -.546E+02 -.296E+02   -.299E+01 0.560E+01 0.277E+01   0.253E-03 -.527E-03 -.294E-03
   -.144E+02 -.750E-01 -.582E+02   0.162E+02 0.820E-01 0.648E+02   -.182E+01 -.687E-02 -.654E+01   0.134E-03 0.119E-04 0.612E-03
   -.314E+02 0.635E-01 -.104E+02   0.304E+02 -.626E-01 0.101E+02   0.102E+01 -.718E-03 0.277E+00   -.839E-03 -.199E-03 0.468E-03
   -.110E+02 0.716E-01 0.415E+01   0.110E+02 -.738E-01 -.408E+01   0.106E-01 0.236E-02 -.725E-01   0.188E-03 -.403E-04 -.206E-03
   -.128E+02 -.220E-01 -.173E+02   0.128E+02 0.215E-01 0.179E+02   0.207E-03 0.432E-03 -.540E+00   0.198E-03 0.459E-04 0.203E-03
   0.166E+01 0.305E-01 -.695E+01   -.112E+01 -.291E-01 0.679E+01   -.539E+00 -.145E-02 0.150E+00   0.225E-03 -.533E-04 0.231E-03
 -----------------------------------------------------------------------------------------------
   -.724E+01 0.143E-02 -.330E+00   -.151E-13 -.230E-14 -.133E-13   0.724E+01 -.139E-02 0.329E+00   -.230E-02 -.919E-04 0.212E-03
 
 
 POSITION                                       TOTAL-FORCE (eV/Angst)
 -----------------------------------------------------------------------------------
      5.63915      6.27350      6.27384         0.001827      0.001001     -0.004305
      0.85821      6.27280      0.15665        -0.002121     -0.002818      0.010884
      5.40518      6.27196      5.19958         0.006367      0.000008     -0.003450
      5.26698      0.90190      0.45292        -0.001305      0.000065     -0.004686
      5.26573      5.37368      0.45579        -0.001493     -0.000676     -0.004418
      1.26776      0.84227      6.03329         0.003134      0.002626      0.005167
      1.26657      5.42716      6.03557         0.002404     -0.000364      0.006119
      1.13753     -0.00001      1.16715        -0.004951      0.000138      0.002982
      2.97634      3.13707      2.99511        -0.001871      0.000008     -0.001853
      2.64610      3.13606      6.12444        -0.000848      0.000065     -0.000951
      2.72152      0.00020      3.18965        -0.000941     -0.000003      0.002480
      6.03902      3.13830      2.81942        -0.000203     -0.000051     -0.007970
 -----------------------------------------------------------------------------------
    total drift:                               -0.000401     -0.000044     -0.000295


--------------------------------------------------------------------------------------------------------



  FREE ENERGIE OF THE ION-ELECTRON SYSTEM (eV)
  ---------------------------------------------------
  free  energy   TOTEN  =       -52.06953382 eV

  energy  without entropy=      -52.06953382  energy(sigma->0) =      -52.06953382
 


--------------------------------------------------------------------------------------------------------


    POTLOK:  cpu time    0.0400: real time    0.0415


--------------------------------------------------------------------------------------------------------


 writing wavefunctions
     LOOP+:  cpu time   31.9780: real time   33.6963
    4ORBIT:  cpu time    0.0000: real time    0.0000
 


 total charge     
 
# of ion     s       p       d       tot
----------------------------------------
  1        0.836   1.770   0.000   2.606
  2        1.218   2.784   0.000   4.001
  3        0.628   0.045   0.000   0.673
  4        0.627   0.045   0.000   0.672
  5        0.627   0.045   0.000   0.673
  6        0.594   0.078   0.000   0.672
  7        0.594   0.078   0.000   0.671
  8        0.589   0.078   0.000   0.667
  9        1.470   0.524   9.839  11.834
 10        1.505   2.791   0.009   4.305
 11        1.505   2.791   0.009   4.306
 12        1.506   2.781   0.008   4.295
------------------------------------------------
tot       11.701  13.809   9.865  35.376
 

 total amount of memory used by VASP on root node   216423. kBytes
========================================================================

   base      :      30000. kBytes
   nonl-proj :     139656. kBytes
   fftplans  :       1811. kBytes
   grid      :       3741. kBytes
   one-center:         31. kBytes
   wavefun   :      41184. kBytes
 
  
  
 General timing and accounting informations for this job:
 ========================================================
  
                  Total CPU time used (sec):       44.699
                            User time (sec):       36.574
                          System time (sec):        8.125
                         Elapsed time (sec):       51.886
  
                   Maximum memory used (kb):      163520.
                   Average memory used (kb):           0.
  
                          Minor page faults:        41617
                          Major page faults:            0
                 Voluntary context switches:          731
