   2   2   1   0
  0.3405476E+02  0.4583961E-09  0.4583961E-09  0.4583961E-09  0.5000000E-15
  1.000000000000000E-004
  CAR 
 Name                                    
     15.74132519    -10.17768130  301      2.28504099      1.00000000
    -10.178  0.0000E+00  0.0000E+00
    -10.091  0.0000E+00  0.0000E+00
    -10.005  0.0000E+00  0.0000E+00
     -9.918  0.0000E+00  0.0000E+00
     -9.832  0.0000E+00  0.0000E+00
     -9.746  0.0000E+00  0.0000E+00
     -9.659  0.0000E+00  0.0000E+00
     -9.573  0.0000E+00  0.0000E+00
     -9.487  0.0000E+00  0.0000E+00
     -9.400  0.0000E+00  0.0000E+00
     -9.314  0.0000E+00  0.0000E+00
     -9.227  0.0000E+00  0.0000E+00
     -9.141  0.0000E+00  0.0000E+00
     -9.055  0.4045E-15  0.3495E-16
     -8.968  0.1072E+00  0.9259E-02
     -8.882  0.8531E+00  0.8297E-01
     -8.795  0.6382E+00  0.1389E+00
     -8.709  0.1385E+01  0.2585E+00
     -8.623  0.3331E+01  0.5463E+00
     -8.536  0.8787E+01  0.1306E+01
     -8.450  0.8036E+01  0.2000E+01
     -8.363  0.0000E+00  0.2000E+01
     -8.277  0.0000E+00  0.2000E+01
     -8.191  0.0000E+00  0.2000E+01
     -8.104  0.0000E+00  0.2000E+01
     -8.018  0.0000E+00  0.2000E+01
     -7.931  0.0000E+00  0.2000E+01
     -7.845  0.0000E+00  0.2000E+01
     -7.759  0.0000E+00  0.2000E+01
     -7.672  0.0000E+00  0.2000E+01
     -7.586  0.0000E+00  0.2000E+01
     -7.499  0.0000E+00  0.2000E+01
     -7.413  0.0000E+00  0.2000E+01
     -7.327  0.0000E+00  0.2000E+01
     -7.240  0.0000E+00  0.2000E+01
     -7.154  0.0000E+00  0.2000E+01
     -7.067  0.0000E+00  0.2000E+01
     -6.981  0.0000E+00  0.2000E+01
     -6.895  0.0000E+00  0.2000E+01
     -6.808  0.0000E+00  0.2000E+01
     -6.722  0.0000E+00  0.2000E+01
     -6.635  0.0000E+00  0.2000E+01
     -6.549  0.0000E+00  0.2000E+01
     -6.463  0.0000E+00  0.2000E+01
     -6.376  0.0000E+00  0.2000E+01
     -6.290  0.0000E+00  0.2000E+01
     -6.203  0.0000E+00  0.2000E+01
     -6.117  0.0000E+00  0.2000E+01
     -6.031  0.1237E+01  0.2107E+01
     -5.944  0.2976E+02  0.4748E+01
     -5.858  0.1505E+02  0.6285E+01
     -5.771  0.3555E+02  0.9518E+01
     -5.685  0.7474E+01  0.1053E+02
     -5.599  0.4194E+00  0.1058E+02
     -5.512  0.1173E+00  0.1061E+02
     -5.426  0.5663E+01  0.1110E+02
     -5.339  0.4789E+01  0.1152E+02
     -5.253  0.4224E+01  0.1189E+02
     -5.167  0.1242E+01  0.1200E+02
     -5.080  0.0000E+00  0.1200E+02
     -4.994  0.0000E+00  0.1200E+02
     -4.907  0.0000E+00  0.1200E+02
     -4.821  0.0000E+00  0.1200E+02
     -4.735  0.0000E+00  0.1200E+02
     -4.648  0.0000E+00  0.1200E+02
     -4.562  0.0000E+00  0.1200E+02
     -4.475  0.0000E+00  0.1200E+02
     -4.389  0.0000E+00  0.1200E+02
     -4.303  0.0000E+00  0.1200E+02
     -4.216  0.0000E+00  0.1200E+02
     -4.130  0.0000E+00  0.1200E+02
     -4.044  0.0000E+00  0.1200E+02
     -3.957  0.0000E+00  0.1200E+02
     -3.871  0.0000E+00  0.1200E+02
     -3.784  0.0000E+00  0.1200E+02
     -3.698  0.0000E+00  0.1200E+02
     -3.612  0.0000E+00  0.1200E+02
     -3.525  0.0000E+00  0.1200E+02
     -3.439  0.0000E+00  0.1200E+02
     -3.352  0.0000E+00  0.1200E+02
     -3.266  0.0000E+00  0.1200E+02
     -3.180  0.0000E+00  0.1200E+02
     -3.093  0.0000E+00  0.1200E+02
     -3.007  0.0000E+00  0.1200E+02
     -2.920  0.0000E+00  0.1200E+02
     -2.834  0.0000E+00  0.1200E+02
     -2.748  0.0000E+00  0.1200E+02
     -2.661  0.0000E+00  0.1200E+02
     -2.575  0.0000E+00  0.1200E+02
     -2.488  0.0000E+00  0.1200E+02
     -2.402  0.0000E+00  0.1200E+02
     -2.316  0.6444E-13  0.1200E+02
     -2.229  0.4287E+00  0.1204E+02
     -2.143  0.1134E+00  0.1205E+02
     -2.056  0.7681E+00  0.1213E+02
     -1.970  0.5324E+01  0.1268E+02
     -1.884  0.2572E+01  0.1295E+02
     -1.797  0.6953E-01  0.1296E+02
     -1.711  0.2503E+01  0.1318E+02
     -1.624  0.3091E+00  0.1320E+02
     -1.538  0.2263E+01  0.1340E+02
     -1.452  0.1605E-06  0.1340E+02
     -1.365  0.8574E+00  0.1347E+02
     -1.279  0.6430E+00  0.1353E+02
     -1.192  0.0000E+00  0.1353E+02
     -1.106  0.0000E+00  0.1353E+02
     -1.020  0.0000E+00  0.1353E+02
     -0.933  0.2571E+01  0.1375E+02
     -0.847  0.0000E+00  0.1375E+02
     -0.760  0.0000E+00  0.1375E+02
     -0.674  0.0000E+00  0.1375E+02
     -0.588  0.2498E-07  0.1375E+02
     -0.501  0.1286E+01  0.1386E+02
     -0.415  0.1286E+01  0.1397E+02
     -0.328  0.0000E+00  0.1397E+02
     -0.242  0.3105E-04  0.1397E+02
     -0.156  0.2572E+01  0.1419E+02
     -0.069  0.3291E-06  0.1419E+02
      0.017  0.1932E+01  0.1436E+02
      0.104  0.2162E+01  0.1471E+02
      0.190  0.0000E+00  0.1486E+02
      0.276  0.7116E-11  0.1486E+02
      0.363  0.6430E+00  0.1492E+02
      0.449  0.4061E+01  0.1527E+02
      0.536  0.1753E+01  0.1542E+02
      0.622  0.5143E+01  0.1594E+02
      0.708  0.1267E+01  0.1604E+02
      0.795  0.0000E+00  0.1605E+02
      0.881  0.3421E+01  0.1634E+02
      0.967  0.1286E+01  0.1649E+02
      1.054  0.1683E+00  0.1651E+02
      1.140  0.4976E+01  0.1694E+02
      1.227  0.2572E+01  0.1716E+02
      1.313  0.0000E+00  0.1716E+02
      1.399  0.1127E+01  0.1725E+02
      1.486  0.8572E+00  0.1745E+02
      1.572  0.6195E-02  0.1745E+02
      1.659  0.2995E+01  0.1771E+02
      1.745  0.0000E+00  0.1771E+02
      1.831  0.4389E-03  0.1771E+02
      1.918  0.1286E+01  0.1782E+02
      2.004  0.1715E+01  0.1797E+02
      2.091  0.0000E+00  0.1797E+02
      2.177  0.2047E-05  0.1797E+02
      2.263  0.3215E+00  0.1800E+02
      2.350  0.0000E+00  0.1800E+02
      2.436  0.0000E+00  0.1800E+02
      2.523  0.0000E+00  0.1800E+02
      2.609  0.0000E+00  0.1800E+02
      2.695  0.0000E+00  0.1800E+02
      2.782  0.0000E+00  0.1800E+02
      2.868  0.7001E-01  0.1801E+02
      2.955  0.0000E+00  0.1801E+02
      3.041  0.0000E+00  0.1801E+02
      3.127  0.0000E+00  0.1801E+02
      3.214  0.0000E+00  0.1801E+02
      3.300  0.0000E+00  0.1801E+02
      3.387  0.0000E+00  0.1801E+02
      3.473  0.0000E+00  0.1801E+02
      3.559  0.0000E+00  0.1801E+02
      3.646  0.0000E+00  0.1801E+02
      3.732  0.0000E+00  0.1801E+02
      3.819  0.0000E+00  0.1801E+02
      3.905  0.1403E-05  0.1801E+02
      3.991  0.1116E+01  0.1811E+02
      4.078  0.8574E+00  0.1819E+02
      4.164  0.0000E+00  0.1819E+02
      4.251  0.0000E+00  0.1819E+02
      4.337  0.0000E+00  0.1819E+02
      4.423  0.0000E+00  0.1819E+02
      4.510  0.0000E+00  0.1819E+02
      4.596  0.6913E-10  0.1819E+02
      4.683  0.6500E+00  0.1825E+02
      4.769  0.3145E+00  0.1828E+02
      4.855  0.2027E+01  0.1845E+02
      4.942  0.3602E+01  0.1878E+02
      5.028  0.5135E+01  0.1936E+02
      5.115  0.0000E+00  0.1936E+02
      5.201  0.1286E+01  0.1947E+02
      5.287  0.6229E+00  0.1953E+02
      5.374  0.0000E+00  0.1953E+02
      5.460  0.0000E+00  0.1953E+02
      5.547  0.0000E+00  0.1953E+02
      5.633  0.0000E+00  0.1953E+02
      5.719  0.6648E+00  0.1959E+02
      5.806  0.2617E-03  0.1975E+02
      5.892  0.7501E+01  0.2040E+02
      5.978  0.0000E+00  0.2047E+02
      6.065  0.0000E+00  0.2047E+02
      6.151  0.3091E-02  0.2047E+02
      6.238  0.2570E+01  0.2069E+02
      6.324  0.2571E+01  0.2092E+02
      6.410  0.0000E+00  0.2092E+02
      6.497  0.0000E+00  0.2092E+02
      6.583  0.0000E+00  0.2092E+02
      6.670  0.0000E+00  0.2092E+02
      6.756  0.2694E+01  0.2115E+02
      6.842  0.3899E+01  0.2150E+02
      6.929  0.7346E+00  0.2157E+02
      7.015  0.5711E-15  0.2157E+02
      7.102  0.4164E+01  0.2193E+02
      7.188  0.0000E+00  0.2194E+02
      7.274  0.1254E+01  0.2205E+02
      7.361  0.2209E+01  0.2225E+02
      7.447  0.4220E+01  0.2261E+02
      7.534  0.0000E+00  0.2261E+02
      7.620  0.8005E-01  0.2262E+02
      7.706  0.1907E+01  0.2278E+02
      7.793  0.2211E+01  0.2302E+02
      7.879  0.2757E+01  0.2329E+02
      7.966  0.2387E+01  0.2350E+02
      8.052  0.2335E-06  0.2350E+02
      8.138  0.2572E+01  0.2372E+02
      8.225  0.2925E-10  0.2372E+02
      8.311  0.2572E+01  0.2394E+02
      8.398  0.8574E+00  0.2402E+02
      8.484  0.2426E+01  0.2423E+02
      8.570  0.0000E+00  0.2424E+02
      8.657  0.4001E-10  0.2424E+02
      8.743  0.2572E+01  0.2446E+02
      8.830  0.1261E+01  0.2457E+02
      8.916  0.0000E+00  0.2457E+02
      9.002  0.9186E+00  0.2465E+02
      9.089  0.3882E+00  0.2472E+02
      9.175  0.4274E+01  0.2517E+02
      9.262  0.1275E-06  0.2517E+02
      9.348  0.6430E+00  0.2522E+02
      9.434  0.2573E+01  0.2544E+02
      9.521  0.7480E+00  0.2551E+02
      9.607  0.3423E+01  0.2581E+02
      9.694  0.1286E+01  0.2595E+02
      9.780  0.0000E+00  0.2595E+02
      9.866  0.2927E+01  0.2621E+02
      9.953  0.0000E+00  0.2629E+02
     10.039  0.2562E+01  0.2651E+02
     10.126  0.2745E+01  0.2675E+02
     10.212  0.0000E+00  0.2681E+02
     10.298  0.2361E-04  0.2681E+02
     10.385  0.2572E+01  0.2703E+02
     10.471  0.3602E-06  0.2703E+02
     10.558  0.8574E+00  0.2710E+02
     10.644  0.4261E+01  0.2747E+02
     10.730  0.3036E+00  0.2750E+02
     10.817  0.0000E+00  0.2751E+02
     10.903  0.1802E-01  0.2751E+02
     10.990  0.2876E+01  0.2776E+02
     11.076  0.1715E+01  0.2791E+02
     11.162  0.2304E+01  0.2811E+02
     11.249  0.2573E+01  0.2835E+02
     11.335  0.3858E+01  0.2869E+02
     11.421  0.0000E+00  0.2869E+02
     11.508  0.6057E-09  0.2869E+02
     11.594  0.2143E+00  0.2870E+02
     11.681  0.3928E-07  0.2870E+02
     11.767  0.1286E+01  0.2881E+02
     11.853  0.7347E+00  0.2888E+02
     11.940  0.6264E+01  0.2942E+02
     12.026  0.0000E+00  0.2943E+02
     12.113  0.8033E+00  0.2950E+02
     12.199  0.0000E+00  0.2965E+02
     12.285  0.0000E+00  0.2965E+02
     12.372  0.9481E-08  0.2965E+02
     12.458  0.3533E+01  0.2995E+02
     12.545  0.2233E+01  0.3023E+02
     12.631  0.5034E+01  0.3067E+02
     12.717  0.0000E+00  0.3067E+02
     12.804  0.1428E-15  0.3067E+02
     12.890  0.2572E+01  0.3089E+02
     12.977  0.2408E-10  0.3089E+02
     13.063  0.3215E+00  0.3092E+02
     13.149  0.0000E+00  0.3092E+02
     13.236  0.3679E-01  0.3092E+02
     13.322  0.1249E+01  0.3103E+02
     13.409  0.2572E+01  0.3125E+02
     13.495  0.1233E+01  0.3136E+02
     13.581  0.5716E+00  0.3141E+02
     13.668  0.2572E+01  0.3181E+02
     13.754  0.3215E+00  0.3183E+02
     13.841  0.0000E+00  0.3183E+02
     13.927  0.0000E+00  0.3183E+02
     14.013  0.7139E-16  0.3183E+02
     14.100  0.6430E+00  0.3189E+02
     14.186  0.0000E+00  0.3189E+02
     14.273  0.1436E-05  0.3189E+02
     14.359  0.1286E+01  0.3200E+02
     14.445  0.0000E+00  0.3200E+02
     14.532  0.0000E+00  0.3200E+02
     14.618  0.0000E+00  0.3200E+02
     14.705  0.0000E+00  0.3200E+02
     14.791  0.0000E+00  0.3200E+02
     14.877  0.0000E+00  0.3200E+02
     14.964  0.0000E+00  0.3200E+02
     15.050  0.0000E+00  0.3200E+02
     15.137  0.0000E+00  0.3200E+02
     15.223  0.0000E+00  0.3200E+02
     15.309  0.0000E+00  0.3200E+02
     15.396  0.0000E+00  0.3200E+02
     15.482  0.0000E+00  0.3200E+02
     15.569  0.0000E+00  0.3200E+02
     15.655  0.0000E+00  0.3200E+02
     15.741  0.0000E+00  0.3200E+02
     15.74132519    -10.17768130  301      2.28504099      1.00000000
    -10.178  0.0000E+00  0.0000E+00  0.0000E+00
    -10.091  0.0000E+00  0.0000E+00  0.0000E+00
    -10.005  0.0000E+00  0.0000E+00  0.0000E+00
     -9.918  0.0000E+00  0.0000E+00  0.0000E+00
     -9.832  0.0000E+00  0.0000E+00  0.0000E+00
     -9.746  0.0000E+00  0.0000E+00  0.0000E+00
     -9.659  0.0000E+00  0.0000E+00  0.0000E+00
     -9.573  0.0000E+00  0.0000E+00  0.0000E+00
     -9.487  0.0000E+00  0.0000E+00  0.0000E+00
     -9.400  0.0000E+00  0.0000E+00  0.0000E+00
     -9.314  0.0000E+00  0.0000E+00  0.0000E+00
     -9.227  0.0000E+00  0.0000E+00  0.0000E+00
     -9.141  0.0000E+00  0.0000E+00  0.0000E+00
     -9.055  0.2541E-16  0.3528E-31  0.7683E-31
     -8.968  0.6732E-02  0.9345E-17  0.2035E-16
     -8.882  0.4505E-01  0.2153E-02  0.1480E-01
     -8.795  0.3150E-01  0.2164E-02  0.1501E-01
     -8.709  0.5184E-01  0.8425E-02  0.6665E-01
     -8.623  0.9990E-01  0.2562E-01  0.2160E+00
     -8.536  0.1296E+00  0.9439E-01  0.9032E+00
     -8.450  0.2802E-01  0.1045E+00  0.1063E+01
     -8.363  0.0000E+00  0.0000E+00  0.0000E+00
     -8.277  0.0000E+00  0.0000E+00  0.0000E+00
     -8.191  0.0000E+00  0.0000E+00  0.0000E+00
     -8.104  0.0000E+00  0.0000E+00  0.0000E+00
     -8.018  0.0000E+00  0.0000E+00  0.0000E+00
     -7.931  0.0000E+00  0.0000E+00  0.0000E+00
     -7.845  0.0000E+00  0.0000E+00  0.0000E+00
     -7.759  0.0000E+00  0.0000E+00  0.0000E+00
     -7.672  0.0000E+00  0.0000E+00  0.0000E+00
     -7.586  0.0000E+00  0.0000E+00  0.0000E+00
     -7.499  0.0000E+00  0.0000E+00  0.0000E+00
     -7.413  0.0000E+00  0.0000E+00  0.0000E+00
     -7.327  0.0000E+00  0.0000E+00  0.0000E+00
     -7.240  0.0000E+00  0.0000E+00  0.0000E+00
     -7.154  0.0000E+00  0.0000E+00  0.0000E+00
     -7.067  0.0000E+00  0.0000E+00  0.0000E+00
     -6.981  0.0000E+00  0.0000E+00  0.0000E+00
     -6.895  0.0000E+00  0.0000E+00  0.0000E+00
     -6.808  0.0000E+00  0.0000E+00  0.0000E+00
     -6.722  0.0000E+00  0.0000E+00  0.0000E+00
     -6.635  0.0000E+00  0.0000E+00  0.0000E+00
     -6.549  0.0000E+00  0.0000E+00  0.0000E+00
     -6.463  0.0000E+00  0.0000E+00  0.0000E+00
     -6.376  0.0000E+00  0.0000E+00  0.0000E+00
     -6.290  0.0000E+00  0.0000E+00  0.0000E+00
     -6.203  0.0000E+00  0.0000E+00  0.0000E+00
     -6.117  0.0000E+00  0.0000E+00  0.0000E+00
     -6.031  0.4941E-10  0.5366E-03  0.1120E+01
     -5.944  0.1121E-01  0.1416E-01  0.2720E+02
     -5.858  0.4127E-02  0.7655E-02  0.1390E+02
     -5.771  0.2185E-01  0.8483E-03  0.3338E+02
     -5.685  0.3335E-01  0.1751E-02  0.6807E+01
     -5.599  0.4486E-02  0.5739E-03  0.3508E+00
     -5.512  0.1194E-02  0.1742E-03  0.9822E-01
     -5.426  0.5530E-01  0.9682E-02  0.4723E+01
     -5.339  0.2924E-01  0.1352E-01  0.3955E+01
     -5.253  0.1466E-01  0.1436E-01  0.3471E+01
     -5.167  0.9291E-16  0.5578E-02  0.1011E+01
     -5.080  0.0000E+00  0.0000E+00  0.0000E+00
     -4.994  0.0000E+00  0.0000E+00  0.0000E+00
     -4.907  0.0000E+00  0.0000E+00  0.0000E+00
     -4.821  0.0000E+00  0.0000E+00  0.0000E+00
     -4.735  0.0000E+00  0.0000E+00  0.0000E+00
     -4.648  0.0000E+00  0.0000E+00  0.0000E+00
     -4.562  0.0000E+00  0.0000E+00  0.0000E+00
     -4.475  0.0000E+00  0.0000E+00  0.0000E+00
     -4.389  0.0000E+00  0.0000E+00  0.0000E+00
     -4.303  0.0000E+00  0.0000E+00  0.0000E+00
     -4.216  0.0000E+00  0.0000E+00  0.0000E+00
     -4.130  0.0000E+00  0.0000E+00  0.0000E+00
     -4.044  0.0000E+00  0.0000E+00  0.0000E+00
     -3.957  0.0000E+00  0.0000E+00  0.0000E+00
     -3.871  0.0000E+00  0.0000E+00  0.0000E+00
     -3.784  0.0000E+00  0.0000E+00  0.0000E+00
     -3.698  0.0000E+00  0.0000E+00  0.0000E+00
     -3.612  0.0000E+00  0.0000E+00  0.0000E+00
     -3.525  0.0000E+00  0.0000E+00  0.0000E+00
     -3.439  0.0000E+00  0.0000E+00  0.0000E+00
     -3.352  0.0000E+00  0.0000E+00  0.0000E+00
     -3.266  0.0000E+00  0.0000E+00  0.0000E+00
     -3.180  0.0000E+00  0.0000E+00  0.0000E+00
     -3.093  0.0000E+00  0.0000E+00  0.0000E+00
     -3.007  0.0000E+00  0.0000E+00  0.0000E+00
     -2.920  0.0000E+00  0.0000E+00  0.0000E+00
     -2.834  0.0000E+00  0.0000E+00  0.0000E+00
     -2.748  0.0000E+00  0.0000E+00  0.0000E+00
     -2.661  0.0000E+00  0.0000E+00  0.0000E+00
     -2.575  0.0000E+00  0.0000E+00  0.0000E+00
     -2.488  0.0000E+00  0.0000E+00  0.0000E+00
     -2.402  0.0000E+00  0.0000E+00  0.0000E+00
     -2.316  0.1072E-13  0.1691E-14  0.6230E-17
     -2.229  0.7130E-01  0.1125E-01  0.4144E-04
     -2.143  0.2784E-01  0.1822E-17  0.3468E-02
     -2.056  0.1637E+00  0.1004E-01  0.8729E-02
     -1.970  0.1143E+01  0.7221E-01  0.4482E-01
     -1.884  0.6063E+00  0.1022E-01  0.7538E-01
     -1.797  0.1227E-01  0.1527E-02  0.1642E-02
     -1.711  0.4417E+00  0.5496E-01  0.5908E-01
     -1.624  0.6439E-01  0.3520E-02  0.1102E-01
     -1.538  0.4714E+00  0.2577E-01  0.8066E-01
     -1.452  0.2338E-07  0.4495E-08  0.6148E-08
     -1.365  0.1249E+00  0.2401E-01  0.3284E-01
     -1.279  0.1326E+00  0.4034E-02  0.3830E-01
     -1.192  0.0000E+00  0.0000E+00  0.0000E+00
     -1.106  0.0000E+00  0.0000E+00  0.0000E+00
     -1.020  0.0000E+00  0.0000E+00  0.0000E+00
     -0.933  0.4211E+00  0.5069E-01  0.1358E+00
     -0.847  0.0000E+00  0.0000E+00  0.0000E+00
     -0.760  0.0000E+00  0.0000E+00  0.0000E+00
     -0.674  0.0000E+00  0.0000E+00  0.0000E+00
     -0.588  0.3786E-08  0.5410E-09  0.1397E-08
     -0.501  0.1949E+00  0.2785E-01  0.7190E-01
     -0.415  0.5974E-02  0.9261E-01  0.3582E-01
     -0.328  0.0000E+00  0.0000E+00  0.0000E+00
     -0.242  0.5135E-06  0.2114E-05  0.9736E-06
     -0.156  0.4254E-01  0.1751E+00  0.8065E-01
     -0.069  0.7823E-09  0.2260E-07  0.1234E-07
      0.017  0.7094E-02  0.1366E+00  0.6423E-01
      0.104  0.1193E-01  0.1708E+00  0.3922E-01
      0.190  0.0000E+00  0.0000E+00  0.0000E+00
      0.276  0.2799E-28  0.5739E-12  0.1257E-12
      0.363  0.1046E-06  0.5185E-01  0.1136E-01
      0.449  0.2747E+00  0.1908E+00  0.1893E+00
      0.536  0.6127E-01  0.1043E+00  0.7164E-01
      0.622  0.3329E-02  0.3915E+00  0.1466E+00
      0.708  0.4197E-16  0.9497E-01  0.3934E-01
      0.795  0.0000E+00  0.0000E+00  0.0000E+00
      0.881  0.8986E-02  0.2426E+00  0.1270E+00
      0.967  0.1719E-01  0.8075E-01  0.5851E-01
      1.054  0.3751E-02  0.9793E-02  0.8023E-02
      1.140  0.5357E-01  0.3170E+00  0.2187E+00
      1.227  0.1325E-13  0.1690E+00  0.1168E+00
      1.313  0.0000E+00  0.0000E+00  0.0000E+00
      1.399  0.2389E-15  0.7001E-01  0.5486E-01
      1.486  0.4411E-15  0.5299E-01  0.4139E-01
      1.572  0.2292E-17  0.3434E-03  0.3458E-03
      1.659  0.8770E-15  0.1645E+00  0.1698E+00
      1.745  0.0000E+00  0.0000E+00  0.0000E+00
      1.831  0.5041E-19  0.2037E-04  0.2788E-04
      1.918  0.1476E-15  0.5967E-01  0.8165E-01
      2.004  0.4458E-15  0.6805E-01  0.1195E+00
      2.091  0.0000E+00  0.0000E+00  0.0000E+00
      2.177  0.2611E-19  0.5572E-07  0.1613E-06
      2.263  0.4100E-14  0.8751E-02  0.2533E-01
      2.350  0.0000E+00  0.0000E+00  0.0000E+00
      2.436  0.0000E+00  0.0000E+00  0.0000E+00
      2.523  0.0000E+00  0.0000E+00  0.0000E+00
      2.609  0.0000E+00  0.0000E+00  0.0000E+00
      2.695  0.0000E+00  0.0000E+00  0.0000E+00
      2.782  0.0000E+00  0.0000E+00  0.0000E+00
      2.868  0.2152E-01  0.3812E-15  0.5613E-15
      2.955  0.0000E+00  0.0000E+00  0.0000E+00
      3.041  0.0000E+00  0.0000E+00  0.0000E+00
      3.127  0.0000E+00  0.0000E+00  0.0000E+00
      3.214  0.0000E+00  0.0000E+00  0.0000E+00
      3.300  0.0000E+00  0.0000E+00  0.0000E+00
      3.387  0.0000E+00  0.0000E+00  0.0000E+00
      3.473  0.0000E+00  0.0000E+00  0.0000E+00
      3.559  0.0000E+00  0.0000E+00  0.0000E+00
      3.646  0.0000E+00  0.0000E+00  0.0000E+00
      3.732  0.0000E+00  0.0000E+00  0.0000E+00
      3.819  0.0000E+00  0.0000E+00  0.0000E+00
      3.905  0.3435E-06  0.4375E-07  0.1337E-07
      3.991  0.2530E+00  0.3528E-01  0.7739E-02
      4.078  0.2024E+00  0.3353E-01  0.4600E-02
      4.164  0.0000E+00  0.0000E+00  0.0000E+00
      4.251  0.0000E+00  0.0000E+00  0.0000E+00
      4.337  0.0000E+00  0.0000E+00  0.0000E+00
      4.423  0.0000E+00  0.0000E+00  0.0000E+00
      4.510  0.0000E+00  0.0000E+00  0.0000E+00
      4.596  0.1403E-10  0.5754E-12  0.1082E-11
      4.683  0.1305E+00  0.6028E-02  0.1032E-01
      4.769  0.2667E-07  0.3028E-01  0.1121E-01
      4.855  0.4012E+00  0.7929E-01  0.2817E-01
      4.942  0.6139E+00  0.1572E+00  0.7350E-01
      5.028  0.1045E+01  0.1922E+00  0.6551E-01
      5.115  0.0000E+00  0.0000E+00  0.0000E+00
      5.201  0.1766E+00  0.7142E-01  0.3388E-01
      5.287  0.5350E-01  0.3453E-01  0.1697E-01
      5.374  0.0000E+00  0.0000E+00  0.0000E+00
      5.460  0.0000E+00  0.0000E+00  0.0000E+00
      5.547  0.0000E+00  0.0000E+00  0.0000E+00
      5.633  0.0000E+00  0.0000E+00  0.0000E+00
      5.719  0.1583E+00  0.7119E-02  0.1087E-01
      5.806  0.9839E-05  0.4283E-04  0.1037E-05
      5.892  0.1084E+01  0.3456E+00  0.1725E+00
      5.978  0.0000E+00  0.0000E+00  0.0000E+00
      6.065  0.0000E+00  0.0000E+00  0.0000E+00
      6.151  0.1365E-03  0.3973E-03  0.3787E-04
      6.238  0.1135E+00  0.3304E+00  0.3151E-01
      6.324  0.8228E-03  0.2924E+00  0.6956E-01
      6.410  0.0000E+00  0.0000E+00  0.0000E+00
      6.497  0.0000E+00  0.0000E+00  0.0000E+00
      6.583  0.0000E+00  0.0000E+00  0.0000E+00
      6.670  0.0000E+00  0.0000E+00  0.0000E+00
      6.756  0.1877E-02  0.2320E+00  0.8760E-01
      6.842  0.1309E+00  0.3840E+00  0.9764E-01
      6.929  0.3555E-01  0.9035E-01  0.9483E-02
      7.015  0.8160E-17  0.5096E-16  0.1706E-16
      7.102  0.3675E-01  0.5952E+00  0.8692E-01
      7.188  0.0000E+00  0.0000E+00  0.0000E+00
      7.274  0.1354E+00  0.2582E-01  0.1767E-01
      7.361  0.1766E-14  0.4368E+00  0.3904E-01
      7.447  0.2731E-03  0.5391E+00  0.1135E+00
      7.534  0.0000E+00  0.0000E+00  0.0000E+00
      7.620  0.2697E-03  0.9241E-02  0.1599E-02
      7.706  0.4064E-02  0.2873E+00  0.3215E-01
      7.793  0.1538E-13  0.3846E+00  0.5135E-01
      7.879  0.9872E-02  0.2607E+00  0.8903E-01
      7.966  0.1121E+00  0.2429E+00  0.3888E-01
      8.052  0.7095E-21  0.3440E-07  0.7327E-08
      8.138  0.7815E-14  0.3789E+00  0.8071E-01
      8.225  0.4580E-25  0.5205E-11  0.6402E-12
      8.311  0.4106E-14  0.4577E+00  0.5629E-01
      8.398  0.2952E-01  0.4817E-01  0.1328E-01
      8.484  0.8389E-01  0.1560E+00  0.5750E-01
      8.570  0.0000E+00  0.0000E+00  0.0000E+00
      8.657  0.8401E-12  0.3229E-11  0.1204E-11
      8.743  0.5401E-01  0.2076E+00  0.7741E-01
      8.830  0.5327E-14  0.1731E+00  0.3105E-01
      8.916  0.0000E+00  0.0000E+00  0.0000E+00
      9.002  0.4796E-13  0.1444E+00  0.1853E-01
      9.089  0.1499E-01  0.3181E-01  0.9225E-02
      9.175  0.1010E+00  0.3223E+00  0.1291E+00
      9.262  0.6155E-10  0.8786E-09  0.8176E-08
      9.348  0.3104E-03  0.4431E-02  0.4123E-01
      9.434  0.7071E-03  0.2673E+00  0.9795E-01
      9.521  0.5374E-01  0.2903E-02  0.2208E-01
      9.607  0.4532E-02  0.5998E+00  0.8940E-01
      9.694  0.2193E-14  0.2375E+00  0.2428E-01
      9.780  0.0000E+00  0.0000E+00  0.0000E+00
      9.866  0.3463E-14  0.3858E+00  0.9187E-01
      9.953  0.0000E+00  0.0000E+00  0.0000E+00
     10.039  0.3009E-01  0.1827E+00  0.1080E+00
     10.126  0.1492E-01  0.3677E+00  0.1062E+00
     10.212  0.0000E+00  0.0000E+00  0.0000E+00
     10.298  0.2958E-06  0.8186E-06  0.9784E-06
     10.385  0.3223E-01  0.8919E-01  0.1066E+00
     10.471  0.4301E-07  0.2190E-07  0.1369E-08
     10.558  0.1024E+00  0.5213E-01  0.3259E-02
     10.644  0.7387E-12  0.1185E+00  0.3020E+00
     10.730  0.3510E-01  0.2683E-03  0.5137E-04
     10.817  0.0000E+00  0.0000E+00  0.0000E+00
     10.903  0.1701E-03  0.1360E-02  0.5091E-03
     10.990  0.4798E-01  0.1939E+00  0.7433E-01
     11.076  0.2756E-07  0.6973E-01  0.1078E+00
     11.162  0.8869E-03  0.1720E+00  0.1308E+00
     11.249  0.5315E-01  0.2441E+00  0.6257E-01
     11.335  0.1670E+00  0.5038E+00  0.5540E-01
     11.421  0.0000E+00  0.0000E+00  0.0000E+00
     11.508  0.4811E-28  0.7015E-22  0.6052E-10
     11.594  0.1702E-19  0.2482E-13  0.2142E-01
     11.681  0.8370E-10  0.5688E-08  0.1345E-08
     11.767  0.2740E-02  0.1862E+00  0.4406E-01
     11.853  0.7105E-02  0.5985E-02  0.5837E-01
     11.940  0.2737E+00  0.3032E+00  0.2247E+00
     12.026  0.0000E+00  0.0000E+00  0.0000E+00
     12.113  0.4592E-01  0.2583E-01  0.2067E-01
     12.199  0.0000E+00  0.0000E+00  0.0000E+00
     12.285  0.0000E+00  0.0000E+00  0.0000E+00
     12.372  0.1366E-12  0.1264E-08  0.4925E-09
     12.458  0.1410E-01  0.3808E+00  0.1714E+00
     12.545  0.6659E-01  0.1101E+00  0.8238E-01
     12.631  0.6891E-03  0.3148E+00  0.2002E+00
     12.717  0.0000E+00  0.0000E+00  0.0000E+00
     12.804  0.2295E-30  0.1103E-16  0.4507E-17
     12.890  0.4134E-14  0.1988E+00  0.8118E-01
     12.977  0.4219E-29  0.3219E-21  0.6494E-21
     13.063  0.5632E-19  0.4297E-11  0.8670E-11
     13.149  0.0000E+00  0.0000E+00  0.0000E+00
     13.236  0.1384E-13  0.5524E-02  0.1424E-02
     13.322  0.4700E-12  0.1876E+00  0.4835E-01
     13.409  0.6683E-03  0.2846E+00  0.9207E-01
     13.495  0.6896E-02  0.8572E-02  0.7738E-01
     13.581  0.4924E-02  0.6326E-01  0.1806E-01
     13.668  0.6815E-02  0.3933E+00  0.8819E-01
     13.754  0.7861E-16  0.9197E-02  0.1968E-01
     13.841  0.0000E+00  0.0000E+00  0.0000E+00
     13.927  0.0000E+00  0.0000E+00  0.0000E+00
     14.013  0.4202E-17  0.1397E-16  0.4659E-18
     14.100  0.3784E-01  0.1258E+00  0.4196E-02
     14.186  0.0000E+00  0.0000E+00  0.0000E+00
     14.273  0.3600E-07  0.1098E-06  0.3901E-08
     14.359  0.3224E-01  0.9831E-01  0.3494E-02
     14.445  0.0000E+00  0.0000E+00  0.0000E+00
     14.532  0.0000E+00  0.0000E+00  0.0000E+00
     14.618  0.0000E+00  0.0000E+00  0.0000E+00
     14.705  0.0000E+00  0.0000E+00  0.0000E+00
     14.791  0.0000E+00  0.0000E+00  0.0000E+00
     14.877  0.0000E+00  0.0000E+00  0.0000E+00
     14.964  0.0000E+00  0.0000E+00  0.0000E+00
     15.050  0.0000E+00  0.0000E+00  0.0000E+00
     15.137  0.0000E+00  0.0000E+00  0.0000E+00
     15.223  0.0000E+00  0.0000E+00  0.0000E+00
     15.309  0.0000E+00  0.0000E+00  0.0000E+00
     15.396  0.0000E+00  0.0000E+00  0.0000E+00
     15.482  0.0000E+00  0.0000E+00  0.0000E+00
     15.569  0.0000E+00  0.0000E+00  0.0000E+00
     15.655  0.0000E+00  0.0000E+00  0.0000E+00
     15.741  0.0000E+00  0.0000E+00  0.0000E+00
     15.74132519    -10.17768130  301      2.28504099      1.00000000
    -10.178  0.0000E+00  0.0000E+00  0.0000E+00
    -10.091  0.0000E+00  0.0000E+00  0.0000E+00
    -10.005  0.0000E+00  0.0000E+00  0.0000E+00
     -9.918  0.0000E+00  0.0000E+00  0.0000E+00
     -9.832  0.0000E+00  0.0000E+00  0.0000E+00
     -9.746  0.0000E+00  0.0000E+00  0.0000E+00
     -9.659  0.0000E+00  0.0000E+00  0.0000E+00
     -9.573  0.0000E+00  0.0000E+00  0.0000E+00
     -9.487  0.0000E+00  0.0000E+00  0.0000E+00
     -9.400  0.0000E+00  0.0000E+00  0.0000E+00
     -9.314  0.0000E+00  0.0000E+00  0.0000E+00
     -9.227  0.0000E+00  0.0000E+00  0.0000E+00
     -9.141  0.0000E+00  0.0000E+00  0.0000E+00
     -9.055  0.2303E-15  0.4088E-31  0.4868E-32
     -8.968  0.6102E-01  0.1083E-16  0.1290E-17
     -8.882  0.4900E+00  0.1456E-03  0.9301E-06
     -8.795  0.3675E+00  0.1425E-03  0.1022E-06
     -8.709  0.8014E+00  0.3499E-03  0.4113E-05
     -8.623  0.1931E+01  0.7844E-03  0.1260E-04
     -8.536  0.5084E+01  0.9943E-03  0.4266E-04
     -8.450  0.4628E+01  0.2469E-03  0.1435E-04
     -8.363  0.0000E+00  0.0000E+00  0.0000E+00
     -8.277  0.0000E+00  0.0000E+00  0.0000E+00
     -8.191  0.0000E+00  0.0000E+00  0.0000E+00
     -8.104  0.0000E+00  0.0000E+00  0.0000E+00
     -8.018  0.0000E+00  0.0000E+00  0.0000E+00
     -7.931  0.0000E+00  0.0000E+00  0.0000E+00
     -7.845  0.0000E+00  0.0000E+00  0.0000E+00
     -7.759  0.0000E+00  0.0000E+00  0.0000E+00
     -7.672  0.0000E+00  0.0000E+00  0.0000E+00
     -7.586  0.0000E+00  0.0000E+00  0.0000E+00
     -7.499  0.0000E+00  0.0000E+00  0.0000E+00
     -7.413  0.0000E+00  0.0000E+00  0.0000E+00
     -7.327  0.0000E+00  0.0000E+00  0.0000E+00
     -7.240  0.0000E+00  0.0000E+00  0.0000E+00
     -7.154  0.0000E+00  0.0000E+00  0.0000E+00
     -7.067  0.0000E+00  0.0000E+00  0.0000E+00
     -6.981  0.0000E+00  0.0000E+00  0.0000E+00
     -6.895  0.0000E+00  0.0000E+00  0.0000E+00
     -6.808  0.0000E+00  0.0000E+00  0.0000E+00
     -6.722  0.0000E+00  0.0000E+00  0.0000E+00
     -6.635  0.0000E+00  0.0000E+00  0.0000E+00
     -6.549  0.0000E+00  0.0000E+00  0.0000E+00
     -6.463  0.0000E+00  0.0000E+00  0.0000E+00
     -6.376  0.0000E+00  0.0000E+00  0.0000E+00
     -6.290  0.0000E+00  0.0000E+00  0.0000E+00
     -6.203  0.0000E+00  0.0000E+00  0.0000E+00
     -6.117  0.0000E+00  0.0000E+00  0.0000E+00
     -6.031  0.1895E-11  0.2475E-01  0.9144E-03
     -5.944  0.1188E-01  0.4618E+00  0.2835E-01
     -5.858  0.2581E-02  0.1722E+00  0.1504E-01
     -5.771  0.3301E-01  0.5906E-01  0.2619E-01
     -5.685  0.9989E-01  0.3516E-01  0.4818E-02
     -5.599  0.2089E-01  0.3435E-02  0.4945E-03
     -5.512  0.7001E-02  0.9135E-03  0.7686E-04
     -5.426  0.3593E+00  0.4094E-01  0.3825E-02
     -5.339  0.3929E+00  0.1590E-01  0.3249E-02
     -5.253  0.4092E+00  0.6822E-02  0.1564E-02
     -5.167  0.1354E+00  0.6231E-04  0.3847E-03
     -5.080  0.0000E+00  0.0000E+00  0.0000E+00
     -4.994  0.0000E+00  0.0000E+00  0.0000E+00
     -4.907  0.0000E+00  0.0000E+00  0.0000E+00
     -4.821  0.0000E+00  0.0000E+00  0.0000E+00
     -4.735  0.0000E+00  0.0000E+00  0.0000E+00
     -4.648  0.0000E+00  0.0000E+00  0.0000E+00
     -4.562  0.0000E+00  0.0000E+00  0.0000E+00
     -4.475  0.0000E+00  0.0000E+00  0.0000E+00
     -4.389  0.0000E+00  0.0000E+00  0.0000E+00
     -4.303  0.0000E+00  0.0000E+00  0.0000E+00
     -4.216  0.0000E+00  0.0000E+00  0.0000E+00
     -4.130  0.0000E+00  0.0000E+00  0.0000E+00
     -4.044  0.0000E+00  0.0000E+00  0.0000E+00
     -3.957  0.0000E+00  0.0000E+00  0.0000E+00
     -3.871  0.0000E+00  0.0000E+00  0.0000E+00
     -3.784  0.0000E+00  0.0000E+00  0.0000E+00
     -3.698  0.0000E+00  0.0000E+00  0.0000E+00
     -3.612  0.0000E+00  0.0000E+00  0.0000E+00
     -3.525  0.0000E+00  0.0000E+00  0.0000E+00
     -3.439  0.0000E+00  0.0000E+00  0.0000E+00
     -3.352  0.0000E+00  0.0000E+00  0.0000E+00
     -3.266  0.0000E+00  0.0000E+00  0.0000E+00
     -3.180  0.0000E+00  0.0000E+00  0.0000E+00
     -3.093  0.0000E+00  0.0000E+00  0.0000E+00
     -3.007  0.0000E+00  0.0000E+00  0.0000E+00
     -2.920  0.0000E+00  0.0000E+00  0.0000E+00
     -2.834  0.0000E+00  0.0000E+00  0.0000E+00
     -2.748  0.0000E+00  0.0000E+00  0.0000E+00
     -2.661  0.0000E+00  0.0000E+00  0.0000E+00
     -2.575  0.0000E+00  0.0000E+00  0.0000E+00
     -2.488  0.0000E+00  0.0000E+00  0.0000E+00