       N       E                     dE             d eps       ncg     rms          rms(c)
DAV:   1    -0.548257947011E+01   -0.54826E+01   -0.96261E-07 44296   0.870E-03    0.205E-03
DAV:   2    -0.548257940981E+01    0.60304E-07   -0.24393E-07 43680   0.600E-03
   1 F= -.54825794E+01 E0= -.54825794E+01  d E =-.548258E+01
