PROCAR new format
# of k-points: 1016         # of bands:  16         # of ions:   2

 k-point    1 :    0.00000000 0.00000000 0.00000000     weight = 0.00462963

band   1 # energy   -8.99954464 # occ.  2.00000000
 
ion      s      p      d    tot
  1  0.063  0.000  0.000  0.063
  2  0.569  0.000  0.000  0.569
tot  0.632  0.000  0.000  0.632
 
band   2 # energy   -6.05005463 # occ.  2.00000000
 
ion      s      p      d    tot
  1  0.000  0.000  0.903  0.904
  2  0.000  0.021  0.001  0.022
tot  0.000  0.021  0.904  0.925
 
band   3 # energy   -6.05005435 # occ.  2.00000000
 
ion      s      p      d    tot
  1  0.000  0.000  0.903  0.904
  2  0.000  0.021  0.001  0.022
tot  0.000  0.021  0.904  0.925
 
band   4 # energy   -6.05005435 # occ.  2.00000000
 
ion      s      p      d    tot
  1  0.000  0.000  0.903  0.904
  2  0.000  0.021  0.001  0.022
tot  0.000  0.021  0.904  0.925
 
band   5 # energy   -5.78604733 # occ.  2.00000000
 
ion      s      p      d    tot
  1  0.000  0.000  0.946  0.946
  2  0.000  0.000  0.001  0.001
tot  0.000  0.000  0.947  0.947
 
band   6 # energy   -5.78604733 # occ.  2.00000000
 
ion      s      p      d    tot
  1  0.000  0.000  0.946  0.946
  2  0.000  0.000  0.001  0.001
tot  0.000  0.000  0.947  0.947
 
band   7 # energy    2.20790746 # occ.  2.00000000
 
ion      s      p      d    tot
  1  0.000  0.027  0.079  0.106
  2  0.000  0.495  0.001  0.495
tot  0.000  0.522  0.079  0.601
 
band   8 # energy    2.20790746 # occ.  2.00000000
 
ion      s      p      d    tot
  1  0.000  0.027  0.079  0.106
  2  0.000  0.495  0.001  0.495
tot  0.000  0.522  0.079  0.601
 
band   9 # energy    2.20790751 # occ.  2.00000000
 
ion      s      p      d    tot
  1  0.000  0.027  0.079  0.106
  2  0.000  0.495  0.001  0.495
tot  0.000  0.522  0.079  0.601
 
band  10 # energy    2.86543185 # occ.  0.00000000
 
ion      s      p      d    tot
  1  0.307  0.000  0.000  0.307
  2  0.240  0.000  0.000  0.240
tot  0.547  0.000  0.000  0.547
 
band  11 # energy    6.75097959 # occ.  0.00000000
 
ion      s      p      d    tot
  1  0.000  0.243  0.001  0.244
  2  0.000  0.008  0.092  0.100
tot  0.000  0.251  0.093  0.344
 
band  12 # energy    6.75097959 # occ.  0.00000000
 
ion      s      p      d    tot
  1  0.000  0.243  0.001  0.244
  2  0.000  0.008  0.092  0.100
tot  0.000  0.251  0.093  0.344
 
band  13 # energy    6.75097995 # occ.  0.00000000
 
ion      s      p      d    tot
  1  0.000  0.243  0.001  0.244
  2  0.000  0.008  0.092  0.100
tot  0.000  0.251  0.093  0.344
 
band  14 # energy    9.50388629 # occ.  0.00000000
 
ion      s      p      d    tot
  1  0.237  0.000  0.000  0.237
  2  0.006  0.000  0.000  0.006
tot  0.242  0.000  0.000  0.242
 
band  15 # energy   11.54908885 # occ.  0.00000000
 
ion      s      p      d    tot
  1  0.000  0.000  0.100  0.100
  2  0.000  0.000  0.241  0.241
tot  0.000  0.000  0.340  0.340
 
band  16 # energy   11.54908885 # occ.  0.00000000
 
ion      s      p      d    tot
  1  0.000  0.000  0.100  0.100
  2  0.000  0.000  0.241  0.241
tot  0.000  0.000  0.340  0.340
 

 k-point    2 :    0.16666667 0.00000000 0.00000000     weight = 0.03703704

band   1 # energy   -8.89803311 # occ.  2.00000000
 
ion      s      p      d    tot
  1  0.053  0.003  0.017  0.073
  2  0.574  0.000  0.000  0.574
tot  0.627  0.003  0.017  0.647
 
band   2 # energy   -6.03117541 # occ.  2.00000000
 
ion      s      p      d    tot
  1  0.000  0.000  0.906  0.907
  2  0.000  0.020  0.001  0.020
tot  0.000  0.020  0.907  0.927
 
band   3 # energy   -6.03117521 # occ.  2.00000000
 
ion      s      p      d    tot
  1  0.000  0.000  0.906  0.907
  2  0.000  0.020  0.001  0.020
tot  0.000  0.020  0.907  0.927
 
band   4 # energy   -5.96832500 # occ.  2.00000000
 
ion      s      p      d    tot
  1  0.005  0.000  0.885  0.890
  2  0.006  0.020  0.001  0.027
tot  0.011  0.020  0.886  0.916
 
band   5 # energy   -5.78728468 # occ.  2.00000000
 
ion      s      p      d    tot
  1  0.000  0.000  0.946  0.946
  2  0.000  0.000  0.001  0.001
tot  0.000  0.000  0.947  0.947
 
band   6 # energy   -5.78728462 # occ.  2.00000000
 
ion      s      p      d    tot
  1  0.000  0.000  0.946  0.946
  2  0.000  0.000  0.001  0.001
tot  0.000  0.000  0.947  0.947
 
band   7 # energy    0.43319134 # occ.  2.00000000
 
ion      s      p      d    tot
  1  0.120  0.026  0.058  0.204
  2  0.074  0.268  0.002  0.344
tot  0.194  0.293  0.060  0.547
 
band   8 # energy    1.97691131 # occ.  2.00000000
 
ion      s      p      d    tot
  1  0.000  0.040  0.070  0.109
  2  0.000  0.472  0.001  0.473
tot  0.000  0.511  0.071  0.582
 
band   9 # energy    1.97691139 # occ.  2.00000000
 
ion      s      p      d    tot
  1  0.000  0.040  0.070  0.109
  2  0.000  0.472  0.001  0.473
tot  0.000  0.511  0.071  0.582
 
band  10 # energy    3.98537176 # occ.  0.00000000
 
ion      s      p      d    tot
  1  0.215  0.032  0.005  0.252
  2  0.135  0.133  0.008  0.277
tot  0.350  0.165  0.014  0.529
 
band  11 # energy    6.85000347 # occ.  0.00000000
 
ion      s      p      d    tot
  1  0.048  0.123  0.013  0.184
  2  0.016  0.107  0.060  0.184
tot  0.065  0.230  0.073  0.368
 
band  12 # energy    7.09132022 # occ.  0.00000000
 
ion      s      p      d    tot
  1  0.000  0.230  0.006  0.236
  2  0.000  0.030  0.091  0.121
tot  0.000  0.260  0.097  0.357
 
band  13 # energy    7.09132050 # occ.  0.00000000
 
ion      s      p      d    tot
  1  0.000  0.230  0.006  0.236
  2  0.000  0.030  0.091  0.121
tot  0.000  0.260  0.097  0.357
 
band  14 # energy   10.50595763 # occ.  0.00000000
 
ion      s      p      d    tot
  1  0.119  0.061  0.004  0.184
  2  0.003  0.008  0.011  0.023
tot  0.123  0.069  0.015  0.207
 
band  15 # energy   10.62574639 # occ.  0.00000000
 
ion      s      p      d    tot
  1  0.000  0.007  0.077  0.084
  2  0.000  0.001  0.149  0.150
tot  0.000  0.008  0.225  0.233
 
band  16 # energy   10.62574648 # occ.  0.00000000
 
ion      s      p      d    tot
  1  0.000  0.007  0.077  0.084
  2  0.000  0.001  0.149  0.150
tot  0.000  0.008  0.225  0.233
 

 k-point    3 :    0.33333333 0.00000000 0.00000000     weight = 0.03703704

band   1 # energy   -8.69422473 # occ.  2.00000000
 
ion      s      p      d    tot
  1  0.030  0.008  0.066  0.104
  2  0.579  0.000  0.000  0.580
tot  0.609  0.008  0.066  0.683
 
band   2 # energy   -5.99871610 # occ.  2.00000000
 
ion      s      p      d    tot
  1  0.000  0.000  0.912  0.912
  2  0.000  0.017  0.001  0.018
tot  0.000  0.018  0.913  0.930
 
band   3 # energy   -5.99871603 # occ.  2.00000000
 
ion      s      p      d    tot
  1  0.000  0.000  0.912  0.912
  2  0.000  0.017  0.001  0.018
tot  0.000  0.018  0.913  0.930
 
band   4 # energy   -5.78329777 # occ.  2.00000000
 
ion      s      p      d    tot
  1  0.000  0.000  0.947  0.947
  2  0.000  0.000  0.001  0.001
tot  0.000  0.000  0.947  0.947
 
band   5 # energy   -5.78329757 # occ.  2.00000000
 
ion      s      p      d    tot
  1  0.000  0.000  0.947  0.947
  2  0.000  0.000  0.001  0.001
tot  0.000  0.000  0.947  0.947
 
band   6 # energy   -5.69094349 # occ.  2.00000000
 
ion      s      p      d    tot
  1  0.011  0.001  0.849  0.861
  2  0.035  0.013  0.001  0.048
tot  0.046  0.013  0.850  0.909
 
band   7 # energy   -1.41568395 # occ.  2.00000000
 
ion      s      p      d    tot
  1  0.146  0.028  0.038  0.212
  2  0.041  0.230  0.002  0.272
tot  0.186  0.258  0.040  0.484
 
band   8 # energy    1.59184024 # occ.  2.00000000
 
ion      s      p      d    tot
  1  0.000  0.056  0.055  0.111
  2  0.000  0.445  0.001  0.447
tot  0.000  0.501  0.056  0.557
 
band   9 # energy    1.59184038 # occ.  2.00000000
 
ion      s      p      d    tot
  1  0.000  0.056  0.055  0.111
  2  0.000  0.445  0.001  0.447
tot  0.000  0.501  0.056  0.557
 
band  10 # energy    4.04843912 # occ.  0.00000000
 
ion      s      p      d    tot
  1  0.236  0.039  0.005  0.281
  2  0.104  0.056  0.025  0.184
tot  0.340  0.095  0.030  0.465
 
band  11 # energy    7.37335498 # occ.  0.00000000
 
ion      s      p      d    tot
  1  0.000  0.181  0.023  0.204
  2  0.000  0.038  0.090  0.128
tot  0.000  0.219  0.113  0.332
 
band  12 # energy    7.37335512 # occ.  0.00000000
 
ion      s      p      d    tot
  1  0.000  0.181  0.023  0.204
  2  0.000  0.038  0.090  0.128
tot  0.000  0.219  0.113  0.332
 
band  13 # energy    8.36649808 # occ.  0.00000000
 
ion      s      p      d    tot
  1  0.034  0.056  0.015  0.106
  2  0.024  0.249  0.025  0.297
tot  0.058  0.305  0.040  0.404
 
band  14 # energy   10.13143262 # occ.  0.00000000
 
ion      s      p      d    tot
  1  0.084  0.016  0.013  0.113
  2  0.011  0.006  0.011  0.028
tot  0.095  0.021  0.024  0.141
 
band  15 # energy   11.03455843 # occ.  0.00000000
 
ion      s      p      d    tot
  1  0.000  0.041  0.063  0.104
  2  0.000  0.019  0.151  0.170
tot  0.000  0.060  0.214  0.274
 
band  16 # energy   11.03455844 # occ.  0.00000000
 
ion      s      p      d    tot
  1  0.000  0.041  0.063  0.104
  2  0.000  0.019  0.151  0.170
tot  0.000  0.060  0.214  0.274
 

 k-point    4 :    0.50000000 0.00000000 0.00000000     weight = 0.01851852

band   1 # energy   -8.59395819 # occ.  2.00000000
 
ion      s      p      d    tot
  1  0.017  0.010  0.100  0.127
  2  0.578  0.000  0.000  0.578
tot  0.595  0.010  0.100  0.705
 
band   2 # energy   -5.98612104 # occ.  2.00000000
 
ion      s      p      d    tot
  1  0.000  0.000  0.914  0.914
  2  0.000  0.016  0.001  0.017
tot  0.000  0.017  0.915  0.931
 
band   3 # energy   -5.98612103 # occ.  2.00000000
 
ion      s      p      d    tot
  1  0.000  0.000  0.914  0.914
  2  0.000  0.016  0.001  0.017
tot  0.000  0.017  0.915  0.931
 
band   4 # energy   -5.77702876 # occ.  2.00000000
 
ion      s      p      d    tot
  1  0.000  0.000  0.948  0.948
  2  0.000  0.000  0.001  0.001
tot  0.000  0.000  0.949  0.949
 
band   5 # energy   -5.77702847 # occ.  2.00000000
 
ion      s      p      d    tot
  1  0.000  0.000  0.948  0.948
  2  0.000  0.000  0.001  0.001
tot  0.000  0.000  0.949  0.949
 
band   6 # energy   -5.43999530 # occ.  2.00000000
 
ion      s      p      d    tot
  1  0.006  0.002  0.850  0.858
  2  0.069  0.001  0.001  0.070
tot  0.075  0.002  0.851  0.929
 
band   7 # energy   -2.26400537 # occ.  2.00000000
 
ion      s      p      d    tot
  1  0.166  0.026  0.000  0.193
  2  0.007  0.229  0.001  0.237
tot  0.174  0.255  0.001  0.430
 
band   8 # energy    1.42498539 # occ.  2.00000000
 
ion      s      p      d    tot
  1  0.000  0.062  0.048  0.110
  2  0.000  0.437  0.001  0.438
tot  0.000  0.499  0.050  0.548
 
band   9 # energy    1.42498556 # occ.  2.00000000
 
ion      s      p      d    tot
  1  0.000  0.062  0.048  0.110
  2  0.000  0.437  0.001  0.438
tot  0.000  0.499  0.050  0.548
 
band  10 # energy    3.93685491 # occ.  0.00000000
 
ion      s      p      d    tot
  1  0.245  0.031  0.010  0.286
  2  0.099  0.043  0.028  0.170
tot  0.344  0.074  0.037  0.455
 
band  11 # energy    7.33500561 # occ.  0.00000000
 
ion      s      p      d    tot
  1  0.000  0.153  0.032  0.186
  2  0.000  0.033  0.091  0.124
tot  0.000  0.187  0.123  0.310
 
band  12 # energy    7.33500569 # occ.  0.00000000
 
ion      s      p      d    tot
  1  0.000  0.153  0.032  0.186
  2  0.000  0.033  0.091  0.124
tot  0.000  0.187  0.123  0.310
 
band  13 # energy    9.13802445 # occ.  0.00000000
 
ion      s      p      d    tot
  1  0.001  0.034  0.024  0.059
  2  0.001  0.161  0.002  0.163
tot  0.001  0.195  0.026  0.222
 
band  14 # energy   10.72644195 # occ.  0.00000000
 
ion      s      p      d    tot
  1  0.116  0.001  0.000  0.117
  2  0.004  0.216  0.009  0.229
tot  0.120  0.217  0.009  0.346
 
band  15 # energy   12.46418334 # occ.  0.00000000
 
ion      s      p      d    tot
  1  0.000  0.098  0.022  0.120
  2  0.000  0.035  0.167  0.202
tot  0.000  0.133  0.190  0.323
 
band  16 # energy   12.46418341 # occ.  0.00000000
 
ion      s      p      d    tot
  1  0.000  0.098  0.022  0.120
  2  0.000  0.035  0.167  0.202
tot  0.000  0.133  0.190  0.323
 

 k-point    5 :    0.16666667 0.16666667 0.00000000     weight = 0.02777778

band   1 # energy   -8.86452630 # occ.  2.00000000
 
ion      s      p      d    tot
  1  0.049  0.003  0.024  0.076
  2  0.576  0.000  0.000  0.576
tot  0.625  0.004  0.024  0.652
 
band   2 # energy   -6.01203583 # occ.  2.00000000
 
ion      s      p      d    tot
  1  0.000  0.001  0.910  0.910
  2  0.000  0.018  0.001  0.019
tot  0.000  0.019  0.910  0.929
 
band   3 # energy   -6.01203564 # occ.  2.00000000
 
ion      s      p      d    tot
  1  0.000  0.001  0.910  0.910
  2  0.000  0.018  0.001  0.019
tot  0.000  0.019  0.910  0.929
 
band   4 # energy   -5.96970497 # occ.  2.00000000
 
ion      s      p      d    tot
  1  0.006  0.000  0.876  0.882
  2  0.007  0.021  0.000  0.029
tot  0.014  0.021  0.876  0.911
 
band   5 # energy   -5.79455440 # occ.  2.00000000
 
ion      s      p      d    tot
  1  0.000  0.000  0.942  0.942
  2  0.001  0.000  0.001  0.002
tot  0.001  0.000  0.943  0.944
 
band   6 # energy   -5.77828588 # occ.  2.00000000
 
ion      s      p      d    tot
  1  0.000  0.000  0.947  0.947
  2  0.000  0.000  0.001  0.001
tot  0.000  0.000  0.948  0.948
 
band   7 # energy    0.42770363 # occ.  2.00000000
 
ion      s      p      d    tot
  1  0.152  0.013  0.065  0.230
  2  0.091  0.251  0.002  0.343
tot  0.243  0.264  0.066  0.572
 
band   8 # energy    1.59400569 # occ.  2.00000000
 
ion      s      p      d    tot
  1  0.000  0.054  0.059  0.113
  2  0.000  0.433  0.002  0.436
tot  0.000  0.487  0.061  0.548
 
band   9 # energy    1.59400574 # occ.  2.00000000
 
ion      s      p      d    tot
  1  0.000  0.054  0.059  0.113
  2  0.000  0.433  0.002  0.436
tot  0.000  0.487  0.061  0.548
 
band  10 # energy    4.64105524 # occ.  0.00000000
 
ion      s      p      d    tot
  1  0.203  0.008  0.016  0.227
  2  0.105  0.244  0.004  0.354
tot  0.308  0.253  0.020  0.581
 
band  11 # energy    5.82939142 # occ.  0.00000000
 
ion      s      p      d    tot
  1  0.037  0.164  0.004  0.205
  2  0.019  0.000  0.064  0.084
tot  0.056  0.165  0.068  0.289
 
band  12 # energy    7.70563028 # occ.  0.00000000
 
ion      s      p      d    tot
  1  0.000  0.211  0.011  0.223
  2  0.000  0.077  0.092  0.169
tot  0.000  0.288  0.103  0.392
 
band  13 # energy    7.70563051 # occ.  0.00000000
 
ion      s      p      d    tot
  1  0.000  0.211  0.011  0.223
  2  0.000  0.077  0.092  0.169
tot  0.000  0.288  0.103  0.392
 
band  14 # energy    9.29742805 # occ.  0.00000000
 
ion      s      p      d    tot
  1  0.000  0.007  0.064  0.071
  2  0.009  0.011  0.088  0.107
tot  0.009  0.017  0.152  0.179
 
band  15 # energy   11.27599674 # occ.  0.00000000
 
ion      s      p      d    tot
  1  0.158  0.094  0.005  0.256
  2  0.000  0.005  0.029  0.035
tot  0.158  0.099  0.034  0.291
 
band  16 # energy   11.79014276 # occ.  0.00000000
 
ion      s      p      d    tot
  1  0.000  0.000  0.089  0.089
  2  0.000  0.000  0.250  0.250
tot  0.000  0.000  0.339  0.339
 

 k-point    6 :    0.33333333 0.16666667 0.00000000     weight = 0.11111111

band   1 # energy   -8.69584467 # occ.  2.00000000
 
ion      s      p      d    tot
  1  0.030  0.008  0.064  0.102
  2  0.580  0.000  0.000  0.580
tot  0.610  0.008  0.064  0.682
 
band   2 # energy   -5.98683724 # occ.  2.00000000
 
ion      s      p      d    tot
  1  0.000  0.000  0.912  0.913
  2  0.000  0.017  0.001  0.018
tot  0.001  0.017  0.913  0.931
 
band   3 # energy   -5.97523822 # occ.  2.00000000
 
ion      s      p      d    tot
  1  0.000  0.001  0.916  0.917
  2  0.000  0.016  0.001  0.017
tot  0.000  0.016  0.917  0.933
 
band   4 # energy   -5.83923170 # occ.  2.00000000
 
ion      s      p      d    tot
  1  0.003  0.000  0.912  0.916
  2  0.004  0.008  0.001  0.013
tot  0.007  0.008  0.913  0.928
 
band   5 # energy   -5.77241348 # occ.  2.00000000
 
ion      s      p      d    tot
  1  0.000  0.000  0.948  0.948
  2  0.000  0.000  0.001  0.001
tot  0.000  0.000  0.949  0.949
 
band   6 # energy   -5.71535518 # occ.  2.00000000
 
ion      s      p      d    tot
  1  0.009  0.000  0.872  0.881
  2  0.027  0.009  0.001  0.037
tot  0.036  0.010  0.873  0.918
 
band   7 # energy   -0.95742154 # occ.  2.00000000
 
ion      s      p      d    tot
  1  0.164  0.020  0.053  0.236
  2  0.058  0.229  0.002  0.290
tot  0.222  0.249  0.055  0.526
 
band   8 # energy    1.06456992 # occ.  2.00000000
 
ion      s      p      d    tot
  1  0.022  0.058  0.048  0.128
  2  0.008  0.376  0.003  0.387
tot  0.030  0.434  0.051  0.515
 
band   9 # energy    1.18189017 # occ.  2.00000000
 
ion      s      p      d    tot
  1  0.000  0.066  0.045  0.111
  2  0.000  0.410  0.002  0.412
tot  0.000  0.476  0.047  0.523
 
band  10 # energy    5.00903298 # occ.  0.00000000
 
ion      s      p      d    tot
  1  0.200  0.030  0.015  0.245
  2  0.061  0.172  0.026  0.259
tot  0.261  0.202  0.041  0.504
 
band  11 # energy    6.17275535 # occ.  0.00000000
 
ion      s      p      d    tot
  1  0.044  0.129  0.012  0.185
  2  0.035  0.075  0.048  0.158
tot  0.080  0.203  0.060  0.343
 
band  12 # energy    7.84256134 # occ.  0.00000000
 
ion      s      p      d    tot
  1  0.000  0.094  0.033  0.128
  2  0.009  0.072  0.074  0.155
tot  0.009  0.166  0.107  0.283
 
band  13 # energy    8.27209910 # occ.  0.00000000
 
ion      s      p      d    tot
  1  0.000  0.178  0.022  0.200
  2  0.000  0.091  0.093  0.184
tot  0.000  0.269  0.115  0.384
 
band  14 # energy   10.02035297 # occ.  0.00000000
 
ion      s      p      d    tot
  1  0.012  0.071  0.042  0.125
  2  0.011  0.122  0.076  0.210
tot  0.023  0.193  0.119  0.335
 
band  15 # energy   11.86795534 # occ.  0.00000000
 
ion      s      p      d    tot
  1  0.058  0.050  0.023  0.132
  2  0.002  0.005  0.052  0.059
tot  0.060  0.055  0.076  0.191
 
band  16 # energy   11.92646981 # occ.  0.00000000
 
ion      s      p      d    tot
  1  0.000  0.029  0.063  0.092
  2  0.000  0.013  0.205  0.218
tot  0.000  0.041  0.268  0.310
 

 k-point    7 :    0.50000000 0.16666667 0.00000000     weight = 0.11111111

band   1 # energy   -8.56373663 # occ.  2.00000000
 
ion      s      p      d    tot
  1  0.013  0.011  0.108  0.132
  2  0.578  0.000  0.000  0.578
tot  0.591  0.011  0.108  0.710
 
band   2 # energy   -5.97199339 # occ.  2.00000000
 
ion      s      p      d    tot
  1  0.000  0.000  0.915  0.916
  2  0.000  0.015  0.001  0.016
tot  0.000  0.015  0.916  0.931
 
band   3 # energy   -5.95956015 # occ.  2.00000000
 
ion      s      p      d    tot
  1  0.000  0.001  0.919  0.919
  2  0.000  0.015  0.001  0.016
tot  0.000  0.015  0.920  0.935
 
band   4 # energy   -5.80281917 # occ.  2.00000000
 
ion      s      p      d    tot
  1  0.000  0.000  0.941  0.942
  2  0.000  0.001  0.001  0.002
tot  0.000  0.001  0.942  0.943
 
band   5 # energy   -5.77403400 # occ.  2.00000000
 
ion      s      p      d    tot
  1  0.000  0.000  0.948  0.948
  2  0.000  0.000  0.001  0.001
tot  0.000  0.000  0.949  0.949
 
band   6 # energy   -5.41612798 # occ.  2.00000000
 
ion      s      p      d    tot
  1  0.007  0.002  0.837  0.847
  2  0.073  0.003  0.001  0.077
tot  0.081  0.005  0.838  0.924
 
band   7 # energy   -2.04998786 # occ.  2.00000000
 
ion      s      p      d    tot
  1  0.183  0.021  0.010  0.215
  2  0.013  0.227  0.002  0.242
tot  0.196  0.248  0.012  0.457
 
band   8 # energy    0.53218212 # occ.  2.00000000
 
ion      s      p      d    tot
  1  0.035  0.059  0.041  0.135
  2  0.011  0.339  0.003  0.353
tot  0.046  0.398  0.044  0.488
 
band   9 # energy    1.09984203 # occ.  2.00000000
 
ion      s      p      d    tot
  1  0.000  0.069  0.040  0.109
  2  0.000  0.411  0.001  0.413
tot  0.000  0.480  0.042  0.522
 
band  10 # energy    4.91416071 # occ.  0.00000000
 
ion      s      p      d    tot
  1  0.194  0.039  0.016  0.249
  2  0.062  0.133  0.031  0.225
tot  0.256  0.172  0.046  0.475
 
band  11 # energy    6.82927045 # occ.  0.00000000
 
ion      s      p      d    tot
  1  0.029  0.094  0.027  0.150
  2  0.009  0.084  0.061  0.154
tot  0.038  0.178  0.088  0.304
 
band  12 # energy    8.08891174 # occ.  0.00000000
 
ion      s      p      d    tot
  1  0.000  0.147  0.031  0.179
  2  0.000  0.067  0.094  0.162
tot  0.000  0.215  0.126  0.340
 
band  13 # energy    8.70375719 # occ.  0.00000000
 
ion      s      p      d    tot
  1  0.021  0.081  0.030  0.132
  2  0.018  0.157  0.051  0.226
tot  0.039  0.238  0.081  0.358
 
band  14 # energy   10.92049852 # occ.  0.00000000
 
ion      s      p      d    tot
  1  0.009  0.076  0.028  0.113
  2  0.002  0.111  0.035  0.148
tot  0.011  0.187  0.063  0.262
 
band  15 # energy   12.11612396 # occ.  0.00000000
 
ion      s      p      d    tot
  1  0.057  0.032  0.026  0.115
  2  0.007  0.077  0.043  0.127
tot  0.065  0.109  0.068  0.242
 
band  16 # energy   12.55682997 # occ.  0.00000000
 
ion      s      p      d    tot
  1  0.000  0.090  0.031  0.121
  2  0.000  0.028  0.194  0.222
tot  0.000  0.118  0.225  0.343
 

 k-point    8 :   -0.33333333 0.16666667 0.00000000     weight = 0.11111111

band   1 # energy   -8.59626905 # occ.  2.00000000
 
ion      s      p      d    tot
  1  0.017  0.010  0.097  0.124
  2  0.579  0.000  0.000  0.579
tot  0.596  0.010  0.097  0.703
 
band   2 # energy   -5.97370471 # occ.  2.00000000
 
ion      s      p      d    tot
  1  0.000  0.001  0.916  0.917
  2  0.000  0.016  0.001  0.017
tot  0.000  0.017  0.917  0.934
 
band   3 # energy   -5.97305294 # occ.  2.00000000
 
ion      s      p      d    tot
  1  0.000  0.000  0.916  0.916
  2  0.000  0.014  0.001  0.015
tot  0.000  0.015  0.917  0.932
 
band   4 # energy   -5.78972547 # occ.  2.00000000
 
ion      s      p      d    tot
  1  0.000  0.000  0.945  0.945
  2  0.000  0.000  0.001  0.001
tot  0.000  0.000  0.946  0.946
 
band   5 # energy   -5.78879246 # occ.  2.00000000
 
ion      s      p      d    tot
  1  0.000  0.000  0.943  0.944
  2  0.000  0.000  0.001  0.002
tot  0.001  0.001  0.944  0.945
 
band   6 # energy   -5.50031623 # occ.  2.00000000
 
ion      s      p      d    tot
  1  0.010  0.001  0.837  0.849
  2  0.060  0.008  0.001  0.068
tot  0.070  0.009  0.838  0.917
 
band   7 # energy   -1.78358155 # occ.  2.00000000
 
ion      s      p      d    tot
  1  0.176  0.022  0.024  0.222
  2  0.026  0.226  0.002  0.254
tot  0.203  0.248  0.026  0.476
 
band   8 # energy    0.39586569 # occ.  2.00000000
 
ion      s      p      d    tot
  1  0.030  0.062  0.038  0.130
  2  0.008  0.334  0.003  0.345
tot  0.037  0.396  0.041  0.475
 
band   9 # energy    1.40057428 # occ.  2.00000000
 
ion      s      p      d    tot
  1  0.000  0.062  0.049  0.111
  2  0.000  0.432  0.001  0.434
tot  0.000  0.495  0.050  0.545
 
band  10 # energy    4.97052838 # occ.  0.00000000
 
ion      s      p      d    tot
  1  0.207  0.045  0.010  0.262
  2  0.070  0.135  0.028  0.233
tot  0.277  0.180  0.039  0.495
 
band  11 # energy    7.07263741 # occ.  0.00000000
 
ion      s      p      d    tot
  1  0.014  0.089  0.030  0.133
  2  0.006  0.077  0.065  0.148
tot  0.020  0.167  0.095  0.282
 
band  12 # energy    7.78520689 # occ.  0.00000000
 
ion      s      p      d    tot
  1  0.000  0.174  0.023  0.197
  2  0.000  0.052  0.090  0.142
tot  0.000  0.226  0.113  0.339
 
band  13 # energy    8.47281104 # occ.  0.00000000
 
ion      s      p      d    tot
  1  0.035  0.064  0.024  0.123
  2  0.024  0.215  0.036  0.276
tot  0.059  0.279  0.060  0.398
 
band  14 # energy   10.62636699 # occ.  0.00000000
 
ion      s      p      d    tot
  1  0.000  0.042  0.067  0.109
  2  0.000  0.015  0.147  0.163
tot  0.000  0.057  0.214  0.271
 
band  15 # energy   11.28459077 # occ.  0.00000000
 
ion      s      p      d    tot
  1  0.025  0.119  0.017  0.162
  2  0.003  0.047  0.032  0.082
tot  0.029  0.166  0.049  0.244
 
band  16 # energy   12.46487587 # occ.  0.00000000
 
ion      s      p      d    tot
  1  0.031  0.047  0.037  0.116
  2  0.020  0.033  0.067  0.119
tot  0.051  0.080  0.104  0.235
 

 k-point    9 :   -0.16666667 0.16666667 0.00000000     weight = 0.05555556

band   1 # energy   -8.76269412 # occ.  2.00000000
 
ion      s      p      d    tot
  1  0.038  0.006  0.047  0.091
  2  0.579  0.000  0.000  0.579
tot  0.617  0.006  0.047  0.670
 
band   2 # energy   -6.00956817 # occ.  2.00000000
 
ion      s      p      d    tot
  1  0.000  0.000  0.910  0.911
  2  0.000  0.019  0.001  0.019
tot  0.000  0.019  0.911  0.930
 
band   3 # energy   -5.99522979 # occ.  2.00000000
 
ion      s      p      d    tot
  1  0.000  0.000  0.912  0.913
  2  0.000  0.016  0.001  0.017
tot  0.000  0.017  0.913  0.930
 
band   4 # energy   -5.84130334 # occ.  2.00000000
 
ion      s      p      d    tot
  1  0.008  0.000  0.875  0.883
  2  0.014  0.016  0.001  0.030
tot  0.022  0.016  0.875  0.913
 
band   5 # energy   -5.79600579 # occ.  2.00000000
 
ion      s      p      d    tot
  1  0.000  0.000  0.944  0.944
  2  0.000  0.000  0.001  0.001
tot  0.000  0.000  0.945  0.945
 
band   6 # energy   -5.76353348 # occ.  2.00000000
 
ion      s      p      d    tot
  1  0.002  0.000  0.930  0.932
  2  0.006  0.003  0.001  0.010
tot  0.009  0.003  0.930  0.942
 
band   7 # energy   -0.54878628 # occ.  2.00000000
 
ion      s      p      d    tot
  1  0.152  0.022  0.056  0.229
  2  0.069  0.237  0.002  0.308
tot  0.220  0.259  0.058  0.537
 
band   8 # energy    0.93607212 # occ.  2.00000000
 
ion      s      p      d    tot
  1  0.013  0.063  0.045  0.122
  2  0.001  0.369  0.004  0.374
tot  0.014  0.432  0.049  0.495
 
band   9 # energy    1.85547505 # occ.  2.00000000
 
ion      s      p      d    tot
  1  0.000  0.046  0.064  0.110
  2  0.000  0.467  0.001  0.468
tot  0.000  0.513  0.065  0.578
 
band  10 # energy    4.81031940 # occ.  0.00000000
 
ion      s      p      d    tot
  1  0.216  0.041  0.004  0.261
  2  0.097  0.169  0.015  0.281
tot  0.313  0.210  0.019  0.542
 
band  11 # energy    6.82130313 # occ.  0.00000000
 
ion      s      p      d    tot
  1  0.041  0.106  0.022  0.169
  2  0.026  0.101  0.057  0.183
tot  0.067  0.206  0.079  0.351
 
band  12 # energy    7.32192124 # occ.  0.00000000
 
ion      s      p      d    tot
  1  0.000  0.228  0.008  0.236
  2  0.000  0.029  0.089  0.118
tot  0.000  0.258  0.096  0.354
 
band  13 # energy    7.63089894 # occ.  0.00000000
 
ion      s      p      d    tot
  1  0.003  0.115  0.020  0.139
  2  0.002  0.108  0.069  0.179
tot  0.005  0.224  0.089  0.318
 
band  14 # energy    9.87005595 # occ.  0.00000000
 
ion      s      p      d    tot
  1  0.000  0.001  0.078  0.080
  2  0.000  0.002  0.136  0.138
tot  0.000  0.003  0.214  0.218
 
band  15 # energy   11.10422022 # occ.  0.00000000
 
ion      s      p      d    tot
  1  0.001  0.094  0.045  0.140
  2  0.007  0.053  0.068  0.129
tot  0.008  0.147  0.113  0.269
 
band  16 # energy   11.86667339 # occ.  0.00000000
 
ion      s      p      d    tot
  1  0.103  0.084  0.006  0.193
  2  0.001  0.020  0.046  0.067
tot  0.103  0.105  0.051  0.259
 

 k-point   10 :    0.33333333 0.33333333 0.00000000     weight = 0.02777778

band   1 # energy   -8.59758650 # occ.  2.00000000
 
ion      s      p      d    tot
  1  0.018  0.010  0.093  0.121
  2  0.580  0.000  0.000  0.580
tot  0.598  0.011  0.093  0.702
 
band   2 # energy   -5.92938203 # occ.  2.00000000
 
ion      s      p      d    tot
  1  0.000  0.001  0.925  0.926
  2  0.000  0.013  0.001  0.014
tot  0.000  0.013  0.926  0.940
 
band   3 # energy   -5.92938184 # occ.  2.00000000
 
ion      s      p      d    tot
  1  0.000  0.001  0.925  0.926
  2  0.000  0.013  0.001  0.014
tot  0.000  0.013  0.926  0.940
 
band   4 # energy   -5.88010528 # occ.  2.00000000
 
ion      s      p      d    tot
  1  0.003  0.000  0.907  0.909
  2  0.002  0.010  0.000  0.012
tot  0.005  0.010  0.907  0.922
 
band   5 # energy   -5.76276362 # occ.  2.00000000
 
ion      s      p      d    tot
  1  0.000  0.000  0.950  0.950
  2  0.000  0.000  0.000  0.000
tot  0.000  0.000  0.950  0.950
 
band   6 # energy   -5.60142325 # occ.  2.00000000
 
ion      s      p      d    tot
  1  0.011  0.001  0.836  0.848
  2  0.050  0.008  0.001  0.059
tot  0.060  0.010  0.838  0.908
 
band   7 # energy   -1.30728630 # occ.  2.00000000
 
ion      s      p      d    tot
  1  0.206  0.006  0.060  0.272
  2  0.050  0.216  0.003  0.268
tot  0.256  0.222  0.062  0.540
 
band   8 # energy    0.69290711 # occ.  2.00000000
 
ion      s      p      d    tot
  1  0.000  0.075  0.031  0.106
  2  0.000  0.385  0.001  0.386
tot  0.000  0.460  0.032  0.492
 
band   9 # energy    0.69290716 # occ.  2.00000000
 
ion      s      p      d    tot
  1  0.000  0.075  0.031  0.106
  2  0.000  0.385  0.001  0.386
tot  0.000  0.460  0.032  0.492
 
band  10 # energy    4.85257410 # occ.  0.00000000
 
ion      s      p      d    tot
  1  0.136  0.063  0.025  0.224
  2  0.007  0.046  0.054  0.107
tot  0.143  0.109  0.079  0.331
 
band  11 # energy    5.27415225 # occ.  0.00000000
 
ion      s      p      d    tot
  1  0.086  0.055  0.027  0.169
  2  0.055  0.103  0.029  0.188
tot  0.141  0.159  0.056  0.356
 
band  12 # energy    9.45478023 # occ.  0.00000000
 
ion      s      p      d    tot
  1  0.045  0.005  0.034  0.083
  2  0.039  0.185  0.040  0.265
tot  0.084  0.190  0.074  0.348
 
band  13 # energy    9.65833023 # occ.  0.00000000
 
ion      s      p      d    tot
  1  0.000  0.185  0.019  0.204
  2  0.000  0.145  0.090  0.235
tot  0.000  0.330  0.109  0.439
 
band  14 # energy    9.65833047 # occ.  0.00000000
 
ion      s      p      d    tot
  1  0.000  0.185  0.019  0.204
  2  0.000  0.145  0.090  0.235
tot  0.000  0.330  0.109  0.439
 
band  15 # energy   12.45774783 # occ.  0.00000000
 
ion      s      p      d    tot
  1  0.000  0.000  0.051  0.051
  2  0.000  0.000  0.289  0.289
tot  0.000  0.000  0.340  0.340
 