  96  96   0   0
  0.2080188E+02  0.1257760E-08  0.1245754E-08  0.1274818E-08  0.5000000E-15
  1.000000000000000E-004
  CAR 
 MAPbI3-Cubic                            
      9.88320780    -22.30603460  301      1.21893672      1.00000000
    -22.306  0.0000E+00  0.0000E+00
    -22.199  0.0000E+00  0.0000E+00
    -22.091  0.0000E+00  0.0000E+00
    -21.984  0.0000E+00  0.0000E+00
    -21.877  0.0000E+00  0.0000E+00
    -21.770  0.0000E+00  0.0000E+00
    -21.662  0.0000E+00  0.0000E+00
    -21.555  0.0000E+00  0.0000E+00
    -21.448  0.0000E+00  0.0000E+00
    -21.340  0.0000E+00  0.0000E+00
    -21.233  0.0000E+00  0.0000E+00
    -21.126  0.0000E+00  0.0000E+00
    -21.018  0.0000E+00  0.0000E+00
    -20.911  0.0000E+00  0.0000E+00
    -20.804  0.0000E+00  0.1600E+02
    -20.697  0.0000E+00  0.1600E+02
    -20.589  0.0000E+00  0.1600E+02
    -20.482  0.0000E+00  0.1600E+02
    -20.375  0.0000E+00  0.1600E+02
    -20.267  0.0000E+00  0.1600E+02
    -20.160  0.0000E+00  0.1600E+02
    -20.053  0.0000E+00  0.1600E+02
    -19.945  0.0000E+00  0.1600E+02
    -19.838  0.0000E+00  0.1600E+02
    -19.731  0.0000E+00  0.1600E+02
    -19.624  0.0000E+00  0.1600E+02
    -19.516  0.0000E+00  0.1600E+02
    -19.409  0.0000E+00  0.1600E+02
    -19.302  0.0000E+00  0.1600E+02
    -19.194  0.0000E+00  0.1600E+02
    -19.087  0.0000E+00  0.1600E+02
    -18.980  0.0000E+00  0.1600E+02
    -18.873  0.0000E+00  0.1600E+02
    -18.765  0.0000E+00  0.1600E+02
    -18.658  0.0000E+00  0.1600E+02
    -18.551  0.0000E+00  0.1600E+02
    -18.443  0.0000E+00  0.1600E+02
    -18.336  0.0000E+00  0.1600E+02
    -18.229  0.0000E+00  0.1600E+02
    -18.121  0.0000E+00  0.1600E+02
    -18.014  0.0000E+00  0.1600E+02
    -17.907  0.0000E+00  0.1600E+02
    -17.800  0.0000E+00  0.1600E+02
    -17.692  0.0000E+00  0.1600E+02
    -17.585  0.0000E+00  0.1600E+02
    -17.478  0.0000E+00  0.1600E+02
    -17.370  0.0000E+00  0.1600E+02
    -17.263  0.0000E+00  0.1600E+02
    -17.156  0.8989E-01  0.4801E+02
    -17.048  0.0000E+00  0.9600E+02
    -16.941  0.0000E+00  0.9600E+02
    -16.834  0.0000E+00  0.9600E+02
    -16.727  0.0000E+00  0.9600E+02
    -16.619  0.0000E+00  0.9600E+02
    -16.512  0.0000E+00  0.9600E+02
    -16.405  0.0000E+00  0.9600E+02
    -16.297  0.0000E+00  0.9600E+02
    -16.190  0.0000E+00  0.9600E+02
    -16.083  0.0000E+00  0.9600E+02
    -15.975  0.0000E+00  0.9600E+02
    -15.868  0.0000E+00  0.9600E+02
    -15.761  0.0000E+00  0.9600E+02
    -15.654  0.0000E+00  0.9600E+02
    -15.546  0.0000E+00  0.9600E+02
    -15.439  0.0000E+00  0.9600E+02
    -15.332  0.0000E+00  0.9600E+02
    -15.224  0.0000E+00  0.9600E+02
    -15.117  0.0000E+00  0.9600E+02
    -15.010  0.0000E+00  0.9600E+02
    -14.903  0.0000E+00  0.9600E+02
    -14.795  0.0000E+00  0.9600E+02
    -14.688  0.0000E+00  0.9600E+02
    -14.581  0.0000E+00  0.9600E+02
    -14.473  0.0000E+00  0.9600E+02
    -14.366  0.0000E+00  0.9600E+02
    -14.259  0.0000E+00  0.9600E+02
    -14.151  0.0000E+00  0.9600E+02
    -14.044  0.0000E+00  0.9600E+02
    -13.937  0.0000E+00  0.9600E+02
    -13.830  0.0000E+00  0.9600E+02
    -13.722  0.0000E+00  0.9600E+02
    -13.615  0.0000E+00  0.9600E+02
    -13.508  0.0000E+00  0.9600E+02
    -13.400  0.0000E+00  0.9600E+02
    -13.293  0.6181E+02  0.1106E+03
    -13.186  0.0000E+00  0.1120E+03
    -13.078  0.0000E+00  0.1120E+03
    -12.971  0.0000E+00  0.1120E+03
    -12.864  0.0000E+00  0.1120E+03
    -12.757  0.0000E+00  0.1120E+03
    -12.649  0.0000E+00  0.1120E+03
    -12.542  0.0000E+00  0.1120E+03
    -12.435  0.0000E+00  0.1120E+03
    -12.327  0.7049E-01  0.1121E+03
    -12.220  0.5072E-01  0.1142E+03
    -12.113  0.2298E+01  0.1190E+03
    -12.005  0.4833E+01  0.1253E+03
    -11.898  0.1381E+01  0.1288E+03
    -11.791  0.4110E+01  0.1344E+03
    -11.684  0.0000E+00  0.1400E+03
    -11.576  0.2155E+01  0.1439E+03
    -11.469  0.7673E+01  0.1516E+03
    -11.362  0.6904E+01  0.1591E+03
    -11.254  0.0000E+00  0.1600E+03
    -11.147  0.0000E+00  0.1600E+03
    -11.040  0.0000E+00  0.1600E+03
    -10.933  0.0000E+00  0.1600E+03
    -10.825  0.0000E+00  0.1600E+03
    -10.718  0.0000E+00  0.1600E+03
    -10.611  0.0000E+00  0.1600E+03
    -10.503  0.0000E+00  0.1600E+03
    -10.396  0.0000E+00  0.1600E+03
    -10.289  0.0000E+00  0.1600E+03
    -10.181  0.0000E+00  0.1600E+03
    -10.074  0.0000E+00  0.1600E+03
     -9.967  0.0000E+00  0.1600E+03
     -9.860  0.0000E+00  0.1600E+03
     -9.752  0.0000E+00  0.1600E+03
     -9.645  0.0000E+00  0.1600E+03
     -9.538  0.0000E+00  0.1600E+03
     -9.430  0.0000E+00  0.1600E+03
     -9.323  0.0000E+00  0.1600E+03
     -9.216  0.1392E+02  0.1642E+03
     -9.108  0.1450E+02  0.1853E+03
     -9.001  0.0000E+00  0.1920E+03
     -8.894  0.0000E+00  0.1920E+03
     -8.787  0.0000E+00  0.1920E+03
     -8.679  0.0000E+00  0.1920E+03
     -8.572  0.0000E+00  0.1920E+03
     -8.465  0.0000E+00  0.1920E+03
     -8.357  0.0000E+00  0.1920E+03
     -8.250  0.0000E+00  0.1920E+03
     -8.143  0.0000E+00  0.1920E+03
     -8.035  0.2044E-12  0.1920E+03
     -7.928  0.0000E+00  0.1921E+03
     -7.821  0.0000E+00  0.1925E+03
     -7.714  0.0000E+00  0.1934E+03
     -7.606  0.2761E+01  0.1937E+03
     -7.499  0.0000E+00  0.1944E+03
     -7.392  0.1148E+00  0.1960E+03
     -7.284  0.1273E+01  0.1978E+03
     -7.177  0.0000E+00  0.1991E+03
     -7.070  0.1592E+02  0.2079E+03
     -6.962  0.0000E+00  0.2178E+03
     -6.855  0.0000E+00  0.2196E+03
     -6.748  0.1381E+01  0.2214E+03
     -6.641  0.0000E+00  0.2223E+03
     -6.533  0.0000E+00  0.2226E+03
     -6.426  0.0000E+00  0.2235E+03
     -6.319  0.2214E+00  0.2235E+03
     -6.211  0.0000E+00  0.2239E+03
     -6.104  0.1012E-04  0.2239E+03
     -5.997  0.0000E+00  0.2240E+03
     -5.890  0.0000E+00  0.2240E+03
     -5.782  0.0000E+00  0.2240E+03
     -5.675  0.0000E+00  0.2240E+03
     -5.568  0.0000E+00  0.2240E+03
     -5.460  0.0000E+00  0.2240E+03
     -5.353  0.0000E+00  0.2240E+03
     -5.246  0.0000E+00  0.2240E+03
     -5.138  0.0000E+00  0.2240E+03
     -5.031  0.0000E+00  0.2240E+03
     -4.924  0.0000E+00  0.2240E+03
     -4.817  0.1236E+02  0.2280E+03
     -4.709  0.0000E+00  0.2560E+03
     -4.602  0.0000E+00  0.2560E+03
     -4.495  0.0000E+00  0.2560E+03
     -4.387  0.0000E+00  0.2560E+03
     -4.280  0.0000E+00  0.2560E+03
     -4.173  0.0000E+00  0.2560E+03
     -4.065  0.0000E+00  0.2560E+03
     -3.958  0.0000E+00  0.2560E+03
     -3.851  0.0000E+00  0.2560E+03
     -3.744  0.0000E+00  0.2560E+03
     -3.636  0.0000E+00  0.2560E+03
     -3.529  0.0000E+00  0.2560E+03
     -3.422  0.0000E+00  0.2560E+03
     -3.314  0.0000E+00  0.2560E+03
     -3.207  0.0000E+00  0.2560E+03
     -3.100  0.0000E+00  0.2560E+03
     -2.992  0.0000E+00  0.2560E+03
     -2.885  0.0000E+00  0.2560E+03
     -2.778  0.2759E+01  0.2569E+03
     -2.671  0.5196E+01  0.2593E+03
     -2.563  0.2761E+01  0.2619E+03
     -2.456  0.4577E-02  0.2641E+03
     -2.349  0.2071E+01  0.2668E+03
     -2.241  0.7574E+01  0.2700E+03
     -2.134  0.2779E+01  0.2735E+03
     -2.027  0.2248E+01  0.2771E+03
     -1.920  0.0000E+00  0.2796E+03
     -1.812  0.0000E+00  0.2800E+03
     -1.705  0.1381E+01  0.2802E+03
     -1.598  0.1381E+01  0.2819E+03
     -1.490  0.4073E+01  0.2855E+03
     -1.383  0.3959E+01  0.2940E+03
     -1.276  0.1811E+01  0.3003E+03
     -1.168  0.2762E+01  0.3049E+03
     -1.061  0.4860E+01  0.3086E+03
     -0.954  0.3459E+01  0.3140E+03
     -0.847  0.2769E+01  0.3192E+03
     -0.739  0.5091E+01  0.3277E+03
     -0.632  0.1381E+01  0.3339E+03
     -0.525  0.1551E+02  0.3407E+03
     -0.417  0.8372E+00  0.3491E+03
     -0.310  0.1080E+02  0.3586E+03
     -0.203  0.9883E+01  0.3668E+03
     -0.095  0.4059E+01  0.3767E+03
      0.012  0.1097E+02  0.3827E+03
      0.119  0.1870E-01  0.3888E+03
      0.226  0.6904E+00  0.3923E+03
      0.334  0.0000E+00  0.3941E+03
      0.441  0.2993E-03  0.3960E+03
      0.548  0.0000E+00  0.3973E+03
      0.656  0.2244E-05  0.3985E+03
      0.763  0.0000E+00  0.3993E+03
      0.870  0.2761E+01  0.3996E+03
      0.978  0.2395E+00  0.3998E+03
      1.085  0.0000E+00  0.3999E+03
      1.192  0.0000E+00  0.4000E+03
      1.299  0.0000E+00  0.4000E+03
      1.407  0.0000E+00  0.4000E+03
      1.514  0.0000E+00  0.4000E+03
      1.621  0.0000E+00  0.4000E+03
      1.729  0.0000E+00  0.4000E+03
      1.836  0.0000E+00  0.4000E+03
      1.943  0.0000E+00  0.4000E+03
      2.050  0.0000E+00  0.4000E+03
      2.158  0.0000E+00  0.4000E+03
      2.265  0.0000E+00  0.4000E+03
      2.372  0.0000E+00  0.4000E+03
      2.480  0.0000E+00  0.4000E+03
      2.587  0.0000E+00  0.4000E+03
      2.694  0.0000E+00  0.4000E+03
      2.802  0.0000E+00  0.4000E+03
      2.909  0.0000E+00  0.4000E+03
      3.016  0.0000E+00  0.4000E+03
      3.123  0.0000E+00  0.4000E+03
      3.231  0.0000E+00  0.4000E+03
      3.338  0.0000E+00  0.4005E+03
      3.445  0.0000E+00  0.4007E+03
      3.553  0.0000E+00  0.4024E+03
      3.660  0.1616E-06  0.4033E+03
      3.767  0.4735E+01  0.4047E+03
      3.875  0.4152E+00  0.4062E+03
      3.982  0.1380E+01  0.4077E+03
      4.089  0.4035E-01  0.4082E+03
      4.196  0.0000E+00  0.4090E+03
      4.304  0.2761E+01  0.4099E+03
      4.411  0.3093E-11  0.4108E+03
      4.518  0.1884E-11  0.4135E+03
      4.626  0.1381E+01  0.4151E+03
      4.733  0.1432E+01  0.4175E+03
      4.840  0.3828E-10  0.4207E+03
      4.948  0.0000E+00  0.4227E+03
      5.055  0.0000E+00  0.4239E+03
      5.162  0.0000E+00  0.4240E+03
      5.269  0.0000E+00  0.4240E+03
      5.377  0.0000E+00  0.4240E+03
      5.484  0.0000E+00  0.4240E+03
      5.591  0.0000E+00  0.4241E+03
      5.699  0.0000E+00  0.4247E+03
      5.806  0.0000E+00  0.4270E+03
      5.913  0.3143E+01  0.4295E+03
      6.020  0.6364E+01  0.4343E+03
      6.128  0.4142E+01  0.4378E+03
      6.235  0.1764E-08  0.4394E+03
      6.342  0.6904E+00  0.4420E+03
      6.450  0.2764E+01  0.4448E+03
      6.557  0.2771E+01  0.4479E+03
      6.664  0.6654E+01  0.4523E+03
      6.772  0.5956E+01  0.4575E+03
      6.879  0.1849E-09  0.4614E+03
      6.986  0.6904E+01  0.4663E+03
      7.093  0.7580E+01  0.4721E+03
      7.201  0.4491E+01  0.4758E+03
      7.308  0.2752E+01  0.4798E+03
      7.415  0.3012E+01  0.4840E+03
      7.523  0.1380E+01  0.4881E+03
      7.630  0.2058E+01  0.4921E+03
      7.737  0.2761E+01  0.4964E+03
      7.845  0.6903E+01  0.5010E+03
      7.952  0.5526E+01  0.5044E+03
      8.059  0.0000E+00  0.5070E+03
      8.166  0.0000E+00  0.5096E+03
      8.274  0.2541E-05  0.5114E+03
      8.381  0.0000E+00  0.5119E+03
      8.488  0.0000E+00  0.5120E+03
      8.596  0.0000E+00  0.5120E+03
      8.703  0.0000E+00  0.5120E+03
      8.810  0.0000E+00  0.5120E+03
      8.918  0.0000E+00  0.5120E+03
      9.025  0.0000E+00  0.5120E+03
      9.132  0.0000E+00  0.5120E+03
      9.239  0.0000E+00  0.5120E+03
      9.347  0.0000E+00  0.5120E+03
      9.454  0.0000E+00  0.5120E+03
      9.561  0.0000E+00  0.5120E+03
      9.669  0.0000E+00  0.5120E+03
      9.776  0.0000E+00  0.5120E+03
      9.883  0.0000E+00  0.5120E+03
