       N       E                     dE             d eps       ncg     rms          ort
DAV:   1     0.270831372975E+05    0.27083E+05   -0.13434E+06  3584   0.486E+03
DAV:   2     0.400775128999E+04   -0.23075E+05   -0.22996E+05  3584   0.134E+03
DAV:   3     0.654049166451E+03   -0.33537E+04   -0.33326E+04  3584   0.307E+02
DAV:   4     0.277190569754E+03   -0.37686E+03   -0.37561E+03  3584   0.944E+01
DAV:   5     0.264924581658E+03   -0.12266E+02   -0.12262E+02  3584   0.188E+01
SDA:   6    -0.463542082074E+03   -0.72847E+03   -0.12262E+02  3584   0.764E+02 0.000E+00
CGA:   7    -0.473747387538E+03   -0.10205E+02   -0.10295E+02  3584   0.194E+02 0.975E-01
CGA:   8    -0.477692441873E+03   -0.39451E+01   -0.39430E+01  3584   0.336E+01 0.194E+00
CGA:   9    -0.478820816609E+03   -0.11284E+01   -0.11199E+01  3584   0.105E+01 0.573E-01
CGA:  10    -0.479161322586E+03   -0.34051E+00   -0.33876E+00  3584   0.489E+00 0.132E-01
CGA:  11    -0.479260191435E+03   -0.98869E-01   -0.98903E-01  3584   0.156E+00 0.259E-02
CGA:  12    -0.479308276494E+03   -0.48085E-01   -0.48029E-01  3584   0.390E-01 0.360E-03
CGA:  13    -0.479320312380E+03   -0.12036E-01   -0.12038E-01  3584   0.109E-01-0.293E-04
CGA:  14    -0.479323606699E+03   -0.32943E-02   -0.32938E-02  3584   0.293E-02 0.419E-05
CGA:  15    -0.479324389679E+03   -0.78298E-03   -0.78647E-03  3584   0.126E-02-0.778E-04
CGA:  16    -0.479324618401E+03   -0.22872E-03   -0.23033E-03  3584   0.391E-03 0.436E-04
CGA:  17    -0.479324741589E+03   -0.12319E-03   -0.12493E-03  3584   0.130E-03-0.203E-04
CGA:  18    -0.479324782854E+03   -0.41265E-04   -0.42016E-04  3584   0.515E-04-0.660E-05
CGA:  19    -0.479324791664E+03   -0.88101E-05   -0.91753E-05  3584   0.189E-04 0.804E-05
CGA:  20    -0.479324797523E+03   -0.58583E-05   -0.59850E-05  3584   0.101E-04-0.294E-05
CGA:  21    -0.479324799888E+03   -0.23658E-05   -0.23635E-05  3584   0.454E-05 0.581E-07
CGA:  22    -0.479324800632E+03   -0.74393E-06   -0.81330E-06  3584   0.196E-05 0.122E-05
CGA:  23    -0.479324801400E+03   -0.76808E-06   -0.92285E-06  3584   0.276E-05-0.111E-05
CGA:  24    -0.479324801656E+03   -0.25539E-06   -0.34214E-06  3584   0.501E-06 0.752E-06
CGA:  25    -0.479324801831E+03   -0.17516E-06   -0.18205E-06  3584   0.470E-06-0.130E-06
CGA:  26    -0.479324801916E+03   -0.84707E-07   -0.84597E-07  3584   0.473E-06 0.232E-07
CGA:  27    -0.479324801978E+03   -0.62519E-07   -0.77125E-07  3584   0.283E-06 0.180E-06
CGA:  28    -0.479324802071E+03   -0.92830E-07   -0.93016E-07  3584   0.194E-06-0.208E-07
CGA:  29    -0.479324802178E+03   -0.10736E-06    0.73415E-07  3584   0.173E-06 0.158E-07
CGA:  30    -0.479324802229E+03   -0.50652E-07   -0.51204E-07  3584   0.165E-06-0.105E-07
CGA:  31    -0.479324802235E+03   -0.59226E-08   -0.16811E-07  3584   0.121E-06 0.867E-07
CGA:  32    -0.479324802258E+03   -0.23210E-07   -0.23902E-07  3584   0.275E-07 0.233E-07
CGA:  33    -0.479324802257E+03    0.12187E-08   -0.26457E-08  3584   0.195E-07 0.260E-07
   1 F= -.47932480E+03 E0= -.47932480E+03  d E =0.000000E+00
