 vasp.5.4.1 24Jun15 (build Nov 25 2015 16:01:35) complex                        
  
 executed on         CrayXC-Intel date 2016.06.26  03:25:39
 running on 1536 total cores
 distrk:  each k-point on 1536 cores,    1 groups
 distr:  one band on NCORES_PER_BAND=  12 cores,  128 groups


--------------------------------------------------------------------------------------------------------


 INCAR:
 POTCAR:    PAW_PBE C 08Apr2002                   
 POTCAR:    PAW_PBE N 08Apr2002                   
 POTCAR:    PAW_PBE H 15Jun2001                   
 POTCAR:    PAW_PBE Pb_d 06Sep2000                
 POTCAR:    PAW_PBE I 08Apr2002                   

 ----------------------------------------------------------------------------- 
|                                                                             |
|           W    W    AA    RRRRR   N    N  II  N    N   GGGG   !!!           |
|           W    W   A  A   R    R  NN   N  II  NN   N  G    G  !!!           |
|           W    W  A    A  R    R  N N  N  II  N N  N  G       !!!           |
|           W WW W  AAAAAA  RRRRR   N  N N  II  N  N N  G  GGG   !            |
|           WW  WW  A    A  R   R   N   NN  II  N   NN  G    G                |
|           W    W  A    A  R    R  N    N  II  N    N   GGGG   !!!           |
|                                                                             |
|      For optimal performance we recommend to set                            |
|        NCORE= 4 - approx SQRT( number of cores)                             |
|      NCORE specifies how many cores store one orbital (NPAR=cpu/NCORE).     |
|      This setting can  greatly improve the performance of VASP for DFT.     |
|      The default, NPAR=number of cores might be grossly inefficient         |
|      on modern multi-core architectures or massively parallel machines.     |
|      Do your own testing !!!!                                               |
|      Unfortunately you need to use the default for GW and RPA calculations. |
|      (for HF NCORE is supported but not extensively tested yet)             |
|                                                                             |
 ----------------------------------------------------------------------------- 

 POTCAR:    PAW_PBE C 08Apr2002                   
   VRHFIN =C: s2p2                                                              
   LEXCH  = PE                                                                  
   EATOM  =   147.1560 eV,   10.8157 Ry                                         
                                                                                
   TITEL  = PAW_PBE C 08Apr2002                                                 
   LULTRA =        F    use ultrasoft PP ?                                      
   IUNSCR =        1    unscreen: 0-lin 1-nonlin 2-no                           
   RPACOR =    1.200    partial core radius                                     
   POMASS =   12.011; ZVAL   =    4.000    mass and valenz                      
   RCORE  =    1.500    outmost cutoff radius                                   
   RWIGS  =    1.630; RWIGS  =    0.863    wigner-seitz radius (au A)           
   ENMAX  =  400.000; ENMIN  =  300.000 eV                                      
   ICORE  =        2    local potential                                         
   LCOR   =        T    correct aug charges                                     
   LPAW   =        T    paw PP                                                  
   EAUG   =  644.873                                                            
   DEXC   =    0.000                                                            
   RMAX   =    1.529    core radius for proj-oper                               
   RAUG   =    1.300    factor for augmentation sphere                          
   RDEP   =    1.501    radius for radial grids                                 
   RDEPT  =    1.300    core radius for aug-charge                              
                                                                                
   Atomic configuration                                                         
    4 entries                                                                   
     n  l   j            E        occ.                                          
     1  0  0.50      -273.3789   2.0000                                         
     2  0  0.50       -13.7508   2.0000                                         
     2  1  0.50        -5.2854   2.0000                                         
     3  2  1.50        -5.4423   0.0000                                         
   Description                                                                  
     l       E           TYP  RCUT    TYP  RCUT                                 
     0    -13.7508458     23  1.200                                             
     0     -8.2022199     23  1.200                                             
     1     -5.2854383     23  1.500                                             
     1     34.0145650     23  1.500                                             
     2     -5.4423304      7  1.500                                             
  local pseudopotential read in
  partial core-charges read in
  partial kinetic energy density read in
  atomic valenz-charges read in
  non local Contribution for L=           0  read in
    real space projection operators read in
  non local Contribution for L=           0  read in
    real space projection operators read in
  non local Contribution for L=           1  read in
    real space projection operators read in
  non local Contribution for L=           1  read in
    real space projection operators read in
    PAW grid and wavefunctions read in
 
   number of l-projection  operators is LMAX  =           4
   number of lm-projection operators is LMMAX =           8
 
 POTCAR:    PAW_PBE N 08Apr2002                   
   VRHFIN =N: s2p3                                                              
   LEXCH  = PE                                                                  
   EATOM  =   264.5486 eV,   19.4438 Ry                                         
                                                                                
   TITEL  = PAW_PBE N 08Apr2002                                                 
   LULTRA =        F    use ultrasoft PP ?                                      
   IUNSCR =        1    unscreen: 0-lin 1-nonlin 2-no                           
   RPACOR =    1.200    partial core radius                                     
   POMASS =   14.001; ZVAL   =    5.000    mass and valenz                      
   RCORE  =    1.500    outmost cutoff radius                                   
   RWIGS  =    1.400; RWIGS  =    0.741    wigner-seitz radius (au A)           
   ENMAX  =  400.000; ENMIN  =  300.000 eV                                      
   ICORE  =        2    local potential                                         
   LCOR   =        T    correct aug charges                                     
   LPAW   =        T    paw PP                                                  
   EAUG   =  627.112                                                            
   DEXC   =    0.000                                                            
   RMAX   =    1.529    core radius for proj-oper                               
   RAUG   =    1.300    factor for augmentation sphere                          
   RDEP   =    1.514    radius for radial grids                                 
   RDEPT  =    1.338    core radius for aug-charge                              
                                                                                
   Atomic configuration                                                         
    4 entries                                                                   
     n  l   j            E        occ.                                          
     1  0  0.50      -384.7179   2.0000                                         
     2  0  0.50       -18.5828   2.0000                                         
     2  1  0.50        -7.0898   3.0000                                         
     3  2  1.50        -6.8029   0.0000                                         
   Description                                                                  
     l       E           TYP  RCUT    TYP  RCUT                                 
     0    -18.5828119     23  1.200                                             
     0    -13.5018863     23  1.200                                             
     1     -7.0897853     23  1.500                                             
     1      9.5240782     23  1.500                                             
     2     -6.8029130      7  1.500                                             
  local pseudopotential read in
  partial core-charges read in
  partial kinetic energy density read in
  atomic valenz-charges read in
  non local Contribution for L=           0  read in
    real space projection operators read in
  non local Contribution for L=           0  read in
    real space projection operators read in
  non local Contribution for L=           1  read in
    real space projection operators read in
  non local Contribution for L=           1  read in
    real space projection operators read in
    PAW grid and wavefunctions read in
 
   number of l-projection  operators is LMAX  =           4
   number of lm-projection operators is LMMAX =           8
 
 POTCAR:    PAW_PBE H 15Jun2001                   
   VRHFIN =H: ultrasoft test                                                    
   LEXCH  = PE                                                                  
   EATOM  =    12.4884 eV,    0.9179 Ry                                         
                                                                                
   TITEL  = PAW_PBE H 15Jun2001                                                 
   LULTRA =        F    use ultrasoft PP ?                                      
   IUNSCR =        0    unscreen: 0-lin 1-nonlin 2-no                           
   RPACOR =    0.000    partial core radius                                     
   POMASS =    1.000; ZVAL   =    1.000    mass and valenz                      
   RCORE  =    1.100    outmost cutoff radius                                   
   RWIGS  =    0.700; RWIGS  =    0.370    wigner-seitz radius (au A)           
   ENMAX  =  250.000; ENMIN  =  200.000 eV                                      
   RCLOC  =    0.701    cutoff for local pot                                    
   LCOR   =        T    correct aug charges                                     
   LPAW   =        T    paw PP                                                  
   EAUG   =  400.000                                                            
   RMAX   =    1.123    core radius for proj-oper                               
   RAUG   =    1.200    factor for augmentation sphere                          
   RDEP   =    1.112    radius for radial grids                                 
   RDEPT  =    0.926    core radius for aug-charge                              
                                                                                
   Atomic configuration                                                         
    2 entries                                                                   
     n  l   j            E        occ.                                          
     1  0  0.50        -6.4927   1.0000                                         
     2  1  0.50        -3.4015   0.0000                                         
   Description                                                                  
     l       E           TYP  RCUT    TYP  RCUT                                 
     0     -6.4927494     23  1.100                                             
     0      6.8029130     23  1.100                                             
     1     -4.0817478     23  1.100                                             
  local pseudopotential read in
  atomic valenz-charges read in
  non local Contribution for L=           0  read in
    real space projection operators read in
  non local Contribution for L=           0  read in
    real space projection operators read in
  non local Contribution for L=           1  read in
    real space projection operators read in
    PAW grid and wavefunctions read in
 
   number of l-projection  operators is LMAX  =           3
   number of lm-projection operators is LMMAX =           5
 
 POTCAR:    PAW_PBE Pb_d 06Sep2000                
   VRHFIN =Pb:                                                                  
   LEXCH  = PE                                                                  
   EATOM  =  1661.6185 eV,  122.1255 Ry                                         
                                                                                
   TITEL  = PAW_PBE Pb_d 06Sep2000                                              
   LULTRA =        F    use ultrasoft PP ?                                      
   IUNSCR =        1    unscreen: 0-lin 1-nonlin 2-no                           
   RPACOR =    2.200    partial core radius                                     
   POMASS =  207.200; ZVAL   =   14.000    mass and valenz                      
   RCORE  =    2.500    outmost cutoff radius                                   
   RWIGS  =    3.260; RWIGS  =    1.725    wigner-seitz radius (au A)           
   ENMAX  =  237.835; ENMIN  =  178.376 eV                                      
   ICORE  =        3    local potential                                         
   LCOR   =        T    correct aug charges                                     
   LPAW   =        T    paw PP                                                  
   EAUG   =  391.914                                                            
   DEXC   =    0.000                                                            
   RMAX   =    2.565    core radius for proj-oper                               
   RAUG   =    1.300    factor for augmentation sphere                          
   RDEP   =    2.643    radius for radial grids                                 
   RDEPT  =    2.092    core radius for aug-charge                              
                                                                                
   Atomic configuration                                                         
   16 entries                                                                   
     n  l   j            E        occ.                                          
     1  0  0.50    -88091.8466   2.0000                                         
     2  0  0.50    -15753.4197   2.0000                                         
     2  1  1.50    -13508.1797   6.0000                                         
     3  0  0.50     -3781.7194   2.0000                                         
     3  1  1.50     -3138.2529   6.0000                                         
     3  2  2.50     -2483.2977  10.0000                                         
     4  0  0.50      -856.2895   2.0000                                         
     4  1  1.50      -645.4942   6.0000                                         
     4  2  2.50      -401.8768  10.0000                                         
     4  3  3.50      -132.9059  14.0000                                         
     5  0  0.50      -144.0950   2.0000                                         
     5  1  1.50       -85.7879   6.0000                                         
     5  2  2.50       -21.1769  10.0000                                         
     6  0  0.50       -12.0372   2.0000                                         
     6  1  1.50        -3.4971   2.0000                                         
     5  3  2.50        -2.7212   0.0000                                         
   Description                                                                  
     l       E           TYP  RCUT    TYP  RCUT                                 
     2    -21.1768523     23  2.500                                             
     2      1.3605826     23  2.500                                             
     0    -12.0371562     23  2.500                                             
     0     13.6058260     23  2.500                                             
     1     -3.4971339     23  2.500                                             
     1     13.6058260     23  2.500                                             
     3     -1.3605826      7  2.500                                             
  local pseudopotential read in
  partial core-charges read in
  partial kinetic energy density read in
  atomic valenz-charges read in
  non local Contribution for L=           2  read in
    real space projection operators read in
  non local Contribution for L=           2  read in
    real space projection operators read in
  non local Contribution for L=           0  read in
    real space projection operators read in
  non local Contribution for L=           0  read in
    real space projection operators read in
  non local Contribution for L=           1  read in
    real space projection operators read in
  non local Contribution for L=           1  read in
    real space projection operators read in
    PAW grid and wavefunctions read in
 
   number of l-projection  operators is LMAX  =           6
   number of lm-projection operators is LMMAX =          18
 
 POTCAR:    PAW_PBE I 08Apr2002                   
   VRHFIN =I : s2p5                                                             
   LEXCH  = PE                                                                  
   EATOM  =   315.8678 eV,   23.2156 Ry                                         
                                                                                
   TITEL  = PAW_PBE I 08Apr2002                                                 
   LULTRA =        F    use ultrasoft PP ?                                      
   IUNSCR =        1    unscreen: 0-lin 1-nonlin 2-no                           
   RPACOR =    2.200    partial core radius                                     
   POMASS =  126.904; ZVAL   =    7.000    mass and valenz                      
   RCORE  =    2.300    outmost cutoff radius                                   
   RWIGS  =    2.810; RWIGS  =    1.487    wigner-seitz radius (au A)           
   ENMAX  =  175.647; ENMIN  =  131.735 eV                                      
   ICORE  =        3    local potential                                         
   LCOR   =        T    correct aug charges                                     
   LPAW   =        T    paw PP                                                  
   EAUG   =  370.139                                                            
   DEXC   =    0.000                                                            
   RMAX   =    2.359    core radius for proj-oper                               
   RAUG   =    1.300    factor for augmentation sphere                          
   RDEP   =    2.392    radius for radial grids                                 
   RDEPT  =    2.170    core radius for aug-charge                              
                                                                                
   Atomic configuration                                                         
   13 entries                                                                   
     n  l   j            E        occ.                                          
     1  0  0.50    -32976.3739   2.0000                                         
     2  0  0.50     -5094.5933   2.0000                                         
     2  1  1.50     -4572.0131   6.0000                                         
     3  0  0.50     -1028.2813   2.0000                                         
     3  1  1.50      -859.0250   6.0000                                         
     3  2  2.50      -605.7620  10.0000                                         
     4  0  0.50      -180.5540   2.0000                                         
     4  1  1.50      -127.5306   6.0000                                         
     4  2  2.50       -50.2720  10.0000                                         
     5  0  0.50       -17.4058   2.0000                                         
     5  1  0.50        -7.0851   5.0000                                         
     5  2  1.50        -7.0750   0.0000                                         
     4  3  2.50        -7.0750   0.0000                                         
   Description                                                                  
     l       E           TYP  RCUT    TYP  RCUT                                 
     0    -17.4058016     23  2.300                                             
     0    -18.7663842     23  2.300                                             
     1     -7.0850686     23  2.300                                             
     1     -4.2150896     23  2.300                                             
     2     -7.0750295     23  2.300                                             
     3     -1.3605826     23  2.300                                             
  local pseudopotential read in
  partial core-charges read in
  partial kinetic energy density read in
  atomic valenz-charges read in
  non local Contribution for L=           0  read in
    real space projection operators read in
  non local Contribution for L=           0  read in
    real space projection operators read in
  non local Contribution for L=           1  read in
    real space projection operators read in
  non local Contribution for L=           1  read in
    real space projection operators read in
  non local Contribution for L=           2  read in
    real space projection operators read in
    PAW grid and wavefunctions read in
 
   number of l-projection  operators is LMAX  =           5
   number of lm-projection operators is LMMAX =          13
 

 ----------------------------------------------------------------------------- 
|                                                                             |
|  ADVICE TO THIS USER RUNNING 'VASP/VAMP'   (HEAR YOUR MASTER'S VOICE ...):  |
|                                                                             |
|      You have a (more or less) 'large supercell' and for larger cells       |
|      it might be more efficient to use real space projection opertators     |
|      So try LREAL= Auto  in the INCAR   file.                               |
|      Mind: At the moment your POTCAR file does not contain real space       |
|       projectors, and has to be modified,  BUT if you                       |
|      want to do an extremely  accurate calculation you might also keep the  |
|      reciprocal projection scheme          (i.e. LREAL=.FALSE.)             |
|                                                                             |
 ----------------------------------------------------------------------------- 

  PAW_PBE C 08Apr2002                   :
 energy of atom  1       EATOM= -147.1560
 kinetic energy error for atom=    0.0032 (will be added to EATOM!!)
  PAW_PBE N 08Apr2002                   :
 energy of atom  2       EATOM= -264.5486
 kinetic energy error for atom=    0.0061 (will be added to EATOM!!)
  PAW_PBE H 15Jun2001                   :
 energy of atom  3       EATOM=  -12.4884
 kinetic energy error for atom=    0.0002 (will be added to EATOM!!)
  PAW_PBE Pb_d 06Sep2000                :
 energy of atom  4       EATOM=-1661.6185
 kinetic energy error for atom=    0.0012 (will be added to EATOM!!)
  PAW_PBE I 08Apr2002                   :
 energy of atom  5       EATOM= -315.8678
 kinetic energy error for atom=    0.0003 (will be added to EATOM!!)
 
 
 POSCAR: C N H Pb I                              
  positions in direct lattice
  No initial velocities read in
 exchange correlation table for  LEXCH =        8
   RHO(1)=    0.500       N(1)  =     2000
   RHO(2)=  100.500       N(2)  =     4000
 


--------------------------------------------------------------------------------------------------------


 ion  position               nearest neighbor table
   1  0.201  0.250  0.222-  25 1.10  33 1.10  17 1.10   9 1.48
   2  0.693  0.250  0.236-  26 1.10  34 1.10  18 1.10  10 1.48
   3  0.193  0.750  0.236-  27 1.10  35 1.10  19 1.10  11 1.48
   4  0.701  0.750  0.222-  28 1.10  36 1.10  20 1.10  12 1.48
   5  0.201  0.250  0.722-  29 1.10  37 1.10  21 1.10  13 1.48
   6  0.693  0.250  0.736-  30 1.10  38 1.10  22 1.10  14 1.48
   7  0.193  0.750  0.736-  31 1.10  39 1.10  23 1.10  15 1.48
   8  0.701  0.750  0.722-  32 1.10  40 1.10  24 1.10  16 1.48
   9  0.306  0.250  0.274-  57 1.04  41 1.05  49 1.05   1 1.48
  10  0.803  0.250  0.273-  42 1.05  50 1.05  58 1.05   2 1.48
  11  0.303  0.750  0.273-  43 1.05  51 1.05  59 1.05   3 1.48
  12  0.806  0.750  0.274-  60 1.04  44 1.05  52 1.05   4 1.48
  13  0.306  0.250  0.774-  61 1.04  45 1.05  53 1.05   5 1.48
  14  0.803  0.250  0.773-  46 1.05  54 1.05  62 1.05   6 1.48
  15  0.303  0.750  0.773-  47 1.05  55 1.05  63 1.05   7 1.48
  16  0.806  0.750  0.774-  64 1.04  48 1.05  56 1.05   8 1.48
  17  0.216  0.250  0.136-   1 1.10
  18  0.695  0.250  0.149-   2 1.10
  19  0.195  0.750  0.149-   3 1.10
  20  0.716  0.750  0.136-   4 1.10
  21  0.216  0.250  0.636-   5 1.10
  22  0.695  0.250  0.649-   6 1.10
  23  0.195  0.750  0.649-   7 1.10
  24  0.716  0.750  0.636-   8 1.10
  25  0.157  0.322  0.246-   1 1.10
  26  0.652  0.322  0.265-   2 1.10
  27  0.152  0.822  0.265-   3 1.10
  28  0.657  0.822  0.246-   4 1.10
  29  0.157  0.322  0.746-   5 1.10
  30  0.652  0.322  0.765-   6 1.10
  31  0.152  0.822  0.765-   7 1.10
  32  0.657  0.822  0.746-   8 1.10
  33  0.157  0.177  0.246-   1 1.10
  34  0.652  0.177  0.265-   2 1.10
  35  0.152  0.677  0.265-   3 1.10
  36  0.657  0.677  0.246-   4 1.10
  37  0.157  0.177  0.746-   5 1.10
  38  0.652  0.177  0.765-   6 1.10
  39  0.152  0.677  0.765-   7 1.10
  40  0.657  0.677  0.746-   8 1.10
  41  0.351  0.318  0.254-   9 1.05
  42  0.845  0.318  0.247-  10 1.05
  43  0.345  0.818  0.247-  11 1.05
  44  0.851  0.818  0.254-  12 1.05
  45  0.351  0.318  0.754-  13 1.05
  46  0.845  0.318  0.747-  14 1.05
  47  0.345  0.818  0.747-  15 1.05
  48  0.851  0.818  0.754-  16 1.05
  49  0.351  0.182  0.254-   9 1.05
  50  0.846  0.182  0.248-  10 1.05
  51  0.346  0.682  0.248-  11 1.05
  52  0.851  0.682  0.254-  12 1.05
  53  0.351  0.182  0.754-  13 1.05
  54  0.846  0.182  0.748-  14 1.05
  55  0.346  0.682  0.748-  15 1.05
  56  0.851  0.682  0.754-  16 1.05
  57  0.298  0.250  0.356-   9 1.04
  58  0.808  0.250  0.355-  10 1.05
  59  0.308  0.750  0.355-  11 1.05
  60  0.798  0.750  0.356-  12 1.04
  61  0.298  0.250  0.856-  13 1.04
  62  0.808  0.250  0.855-  14 1.05
  63  0.308  0.750  0.855-  15 1.05
  64  0.798  0.750  0.856-  16 1.04
  65  0.472  0.501  0.489-  90 3.08  85 3.14  87 3.16  77 3.17  73 3.22  89 3.26
  66  0.972  0.499  0.489-  89 3.08  88 3.14  86 3.16  78 3.17  74 3.22  90 3.26
  67  0.472  0.999  0.489-  92 3.08  85 3.14  87 3.16  79 3.17  75 3.22  91 3.26
  68  0.972  0.001  0.489-  91 3.08  88 3.14  86 3.16  80 3.17  76 3.22  92 3.26
  69  0.472  0.501  0.989-  94 3.08  81 3.14  83 3.16  73 3.17  77 3.22  93 3.26
  70  0.972  0.499  0.989-  93 3.08  84 3.14  82 3.16  74 3.17  78 3.22  94 3.26
  71  0.472  0.999  0.989-  96 3.08  81 3.14  83 3.16  75 3.17  79 3.22  95 3.26
  72  0.972  0.001  0.989-  95 3.08  84 3.14  82 3.16  76 3.17  80 3.22  96 3.26
  73  0.455  0.500  0.238-  69 3.17  65 3.22
  74  0.955  0.500  0.238-  70 3.17  66 3.22
  75  0.455  1.000  0.238-  71 3.17  67 3.22
  76  0.955  0.000  0.238-  72 3.17  68 3.22
  77  0.455  0.500  0.738-  65 3.17  69 3.22
  78  0.955  0.500  0.738-  66 3.17  70 3.22
  79  0.455  1.000  0.738-  67 3.17  71 3.22
  80  0.955  0.000  0.738-  68 3.17  72 3.22
  81  0.464  0.250  0.009-  71 3.14  69 3.14
  82  0.936  0.250  0.014-  72 3.16  70 3.16
  83  0.436  0.750  0.014-  69 3.16  71 3.16
  84  0.964  0.750  0.009-  70 3.14  72 3.14
  85  0.464  0.250  0.509-  67 3.14  65 3.14
  86  0.936  0.250  0.514-  68 3.16  66 3.16
  87  0.436  0.750  0.514-  65 3.16  67 3.16
  88  0.964  0.750  0.509-  66 3.14  68 3.14
  89  0.216  0.483  0.461-  66 3.08  65 3.26
  90  0.716  0.517  0.461-  65 3.08  66 3.26
  91  0.216  0.017  0.461-  68 3.08  67 3.26
  92  0.716  0.983  0.461-  67 3.08  68 3.26
  93  0.216  0.483  0.961-  70 3.08  69 3.26
  94  0.716  0.517  0.961-  69 3.08  70 3.26
  95  0.216  0.017  0.961-  72 3.08  71 3.26
  96  0.716  0.983  0.961-  71 3.08  72 3.26
 
  LATTYP: Found a triclinic cell.
 ALAT       =    17.8238589327
 B/A-ratio  =     0.6989248630
 C/A-ratio  =     1.0156975818
 COS(alpha) =     0.0001355172
 COS(beta)  =     0.5146378593
 COS(gamma) =     0.6988877578
  
  Lattice vectors:
  
 A1 = (  -0.1406063366, -12.4576271275, -12.7466742118)
 A2 = (  -0.0011956322, -12.4575380825,   0.0007464135)
 A3 = ( -12.7162481321,  -0.0020049566, -12.8856194186)


Analysis of symmetry for initial positions (statically):
=====================================================================
 Subroutine PRICEL returns following result:
 
  LATTYP: Found a triclinic cell.
 ALAT       =     8.8502626515
 B/A-ratio  =     1.4075896561
 C/A-ratio  =     0.7202149489
 COS(alpha) =     0.0000518785
 COS(beta)  =     0.0156138721
 COS(gamma) =     0.7036188608
  
  Lattice vectors:
  
 A1 = (  -6.2878208978,   6.2278110854,  -0.0694726034)
 A2 = (   0.0011956322,  12.4575380825,  -0.0007464135)
 A3 = (  -0.0697053522,  -0.0000445225,  -6.3737103126)
 
   4 primitive cells build up your supercell.
 

 Routine SETGRP: Setting up the symmetry group for a 
 triclinic supercell.


 Subroutine GETGRP returns: Found  1 space group operations
 (whereof  1 operations were pure point group operations)
 out of a pool of  2 trial point group operations.


The static configuration has the point symmetry C_1 .


Analysis of symmetry for dynamics (positions and initial velocities):
=====================================================================
 Subroutine PRICEL returns following result:
 
  LATTYP: Found a triclinic cell.
 ALAT       =     8.8502626515
 B/A-ratio  =     1.4075896561
 C/A-ratio  =     0.7202149489
 COS(alpha) =     0.0000518785
 COS(beta)  =     0.0156138721
 COS(gamma) =     0.7036188608
  
  Lattice vectors:
  
 A1 = (  -6.2878208978,   6.2278110854,  -0.0694726034)
 A2 = (   0.0011956322,  12.4575380825,  -0.0007464135)
 A3 = (  -0.0697053522,  -0.0000445225,  -6.3737103126)
 
   4 primitive cells build up your supercell.
 

 Routine SETGRP: Setting up the symmetry group for a 
 triclinic supercell.


 Subroutine GETGRP returns: Found  1 space group operations
 (whereof  1 operations were pure point group operations)
 out of a pool of  2 trial point group operations.


The dynamic configuration has the point symmetry C_1 .


 Subroutine INISYM returns: Found  1 space group operations
 (whereof  1 operations are pure point group operations),
 and found     4 'primitive' translations

 
 
 KPOINTS: Automatic 3x3x3                         

Automatic generation of k-mesh.
Space group operators:
 irot       det(A)        alpha          n_x          n_y          n_z        tau_x        tau_y        tau_z
    1     1.000000     0.000000     1.000000     0.000000     0.000000     0.000000     0.000000     0.000000
 
 Subroutine IBZKPT returns following result:
 ===========================================
 
 Found     14 irreducible k-points:
 
 Following reciprocal coordinates:
            Coordinates               Weight
  0.000000  0.000000  0.000000      1.000000
  0.333333 -0.000000 -0.000000      2.000000
  0.000000  0.333333 -0.000000      2.000000
  0.333333  0.333333  0.000000      2.000000
 -0.333333  0.333333  0.000000      2.000000
  0.000000  0.000000  0.333333      2.000000
  0.333333  0.000000  0.333333      2.000000
 -0.333333  0.000000  0.333333      2.000000
  0.000000  0.333333  0.333333      2.000000
  0.333333  0.333333  0.333333      2.000000
 -0.333333  0.333333  0.333333      2.000000
  0.000000 -0.333333  0.333333      2.000000
  0.333333 -0.333333  0.333333      2.000000
 -0.333333 -0.333333  0.333333      2.000000
 
 Following cartesian coordinates:
            Coordinates               Weight
  0.000000  0.000000  0.000000      1.000000
  0.026507 -0.000003 -0.000290      2.000000
 -0.000004  0.026758 -0.000000      2.000000
  0.026503  0.026755 -0.000290      2.000000
 -0.026511  0.026760  0.000290      2.000000
 -0.000287  0.000002  0.026152      2.000000
  0.026220 -0.000001  0.025862      2.000000
 -0.026794  0.000004  0.026442      2.000000
 -0.000291  0.026759  0.026152      2.000000
  0.026215  0.026757  0.025862      2.000000
 -0.026798  0.026762  0.026442      2.000000
 -0.000283 -0.026756  0.026152      2.000000
  0.026224 -0.026759  0.025862      2.000000
 -0.026790 -0.026753  0.026442      2.000000
 
 
 Subroutine IBZKPT_HF returns following result:
 ==============================================
 
 Found     27 k-points in 1st BZ
 the following     27 k-points will be used (e.g. in the exchange kernel)
 Following reciprocal coordinates:   # in IRBZ
  0.000000  0.000000  0.000000    0.03703704   1 t-inv F
  0.333333 -0.000000 -0.000000    0.03703704   2 t-inv F
  0.000000  0.333333 -0.000000    0.03703704   3 t-inv F
  0.333333  0.333333  0.000000    0.03703704   4 t-inv F
 -0.333333  0.333333  0.000000    0.03703704   5 t-inv F
  0.000000  0.000000  0.333333    0.03703704   6 t-inv F
  0.333333  0.000000  0.333333    0.03703704   7 t-inv F
 -0.333333  0.000000  0.333333    0.03703704   8 t-inv F
  0.000000  0.333333  0.333333    0.03703704   9 t-inv F
  0.333333  0.333333  0.333333    0.03703704  10 t-inv F
 -0.333333  0.333333  0.333333    0.03703704  11 t-inv F
  0.000000 -0.333333  0.333333    0.03703704  12 t-inv F
  0.333333 -0.333333  0.333333    0.03703704  13 t-inv F
 -0.333333 -0.333333  0.333333    0.03703704  14 t-inv F
 -0.333333  0.000000  0.000000    0.03703704   2 t-inv T
 -0.000000 -0.333333  0.000000    0.03703704   3 t-inv T
 -0.333333 -0.333333 -0.000000    0.03703704   4 t-inv T
  0.333333 -0.333333 -0.000000    0.03703704   5 t-inv T
 -0.000000  0.000000 -0.333333    0.03703704   6 t-inv T
 -0.333333 -0.000000 -0.333333    0.03703704   7 t-inv T
  0.333333 -0.000000 -0.333333    0.03703704   8 t-inv T
 -0.000000 -0.333333 -0.333333    0.03703704   9 t-inv T
 -0.333333 -0.333333 -0.333333    0.03703704  10 t-inv T
  0.333333 -0.333333 -0.333333    0.03703704  11 t-inv T
 -0.000000  0.333333 -0.333333    0.03703704  12 t-inv T
 -0.333333  0.333333 -0.333333    0.03703704  13 t-inv T
  0.333333  0.333333 -0.333333    0.03703704  14 t-inv T


--------------------------------------------------------------------------------------------------------




 Dimension of arrays:
   k-points           NKPTS =     14   k-points in BZ     NKDIM =     27   number of bands    NBANDS=    256
   number of dos      NEDOS =    301   number of ions     NIONS =     96
   non local maximal  LDIM  =      6   non local SUM 2l+1 LMDIM =     18
   total plane-waves  NPLWV = ******
   max r-space proj   IRMAX =      1   max aug-charges    IRDMAX= 314103
   dimension x,y,z NGX =   112 NGY =  108 NGZ =  112
   dimension x,y,z NGXF=   224 NGYF=  216 NGZF=  224
   support grid    NGXF=   448 NGYF=  432 NGZF=  448
   ions per type =               8   8  48   8  24
 NGX,Y,Z   is equivalent  to a cutoff of  14.80, 14.41, 14.61 a.u.
 NGXF,Y,Z  is equivalent  to a cutoff of  29.61, 28.83, 29.21 a.u.


 I would recommend the setting:
   dimension x,y,z NGX =   109 NGY =  107 NGZ =  110
 SYSTEM =  MAPbI3-Cubic                            
 POSCAR =  C N H Pb I                              

 Startparameter for this run:
   NWRITE =      2    write-flag & timer
   PREC   = accura    normal or accurate (medium, high low for compatibility)
   ISTART =      0    job   : 0-new  1-cont  2-samecut
   ICHARG =      2    charge: 1-file 2-atom 10-const
   ISPIN  =      1    spin polarized calculation?
   LNONCOLLINEAR =      F non collinear calculations
   LSORBIT =      F    spin-orbit coupling
   INIWAV =      1    electr: 0-lowe 1-rand  2-diag
   LASPH  =      F    aspherical Exc in radial PAW
   METAGGA=      F    non-selfconsistent MetaGGA calc.

 Electronic Relaxation 1
   ENCUT  =  700.0 eV  51.45 Ry    7.17 a.u.  27.13 26.87 27.50*2*pi/ulx,y,z
   ENINI  =  700.0     initial cutoff
   ENAUG  =  644.9 eV  augmentation charge cutoff
   NELM   =     60;   NELMIN=  2; NELMDL= -5     # of ELM steps 
   EDIFF  = 0.1E-07   stopping-criterion for ELM
   LREAL  =      F    real-space projection
   NLSPLINE    = F    spline interpolate recip. space projectors
   LCOMPAT=      F    compatible to vasp.4.4
   GGA_COMPAT  = T    GGA compatible to vasp.4.4-vasp.4.6
   LMAXPAW     = -100 max onsite density
   LMAXMIX     =    2 max onsite mixed and CHGCAR
   VOSKOWN=      0    Vosko Wilk Nusair interpolation
   ROPT   =    0.00000   0.00000   0.00000   0.00000
   ROPT   =    0.00000
 Ionic relaxation
   EDIFFG = 0.1E-06   stopping-criterion for IOM
   NSW    =      0    number of steps for IOM
   NBLOCK =      1;   KBLOCK =      1    inner block; outer block 
   IBRION =     -1    ionic relax: 0-MD 1-quasi-New 2-CG
   NFREE  =      0    steps in history (QN), initial steepest desc. (CG)
   ISIF   =      2    stress and relaxation
   IWAVPR =     10    prediction:  0-non 1-charg 2-wave 3-comb
   ISYM   =      3    0-nonsym 1-usesym 2-fastsym
   LCORR  =      T    Harris-Foulkes like correction to forces

   POTIM  = 0.5000    time-step for ionic-motion
   TEIN   =    0.0    initial temperature
   TEBEG  =    0.0;   TEEND  =   0.0 temperature during run
   SMASS  =  -3.00    Nose mass-parameter (am)
   estimated Nose-frequenzy (Omega)   =  0.10E-29 period in steps =****** mass=  -0.362E-26a.u.
   SCALEE = 1.0000    scale energy and forces
   NPACO  =    256;   APACO  = 16.0  distance and # of slots for P.C.
   PSTRESS=    0.0 pullay stress

  Mass of Ions in am
   POMASS =  12.01 14.00  1.00207.20126.90
  Ionic Valenz
   ZVAL   =   4.00  5.00  1.00 14.00  7.00
  Atomic Wigner-Seitz radii
   RWIGS  =  -1.00 -1.00 -1.00 -1.00 -1.00
  virtual crystal weights 
   VCA    =   1.00  1.00  1.00  1.00  1.00
   NELECT =     400.0000    total number of electrons
   NUPDOWN=      -1.0000    fix difference up-down

 DOS related values:
   EMIN   =  10.00;   EMAX   =-10.00  energy-range for DOS
   EFERMI =   0.00
   ISMEAR =     0;   SIGMA  =   0.00  broadening in eV -4-tet -1-fermi 0-gaus

 Electronic relaxation 2 (details)
   IALGO  =     58    algorithm
   LDIAG  =      T    sub-space diagonalisation (order eigenvalues)
   LSUBROT=      F    optimize rotation matrix (better conditioning)
   TURBO    =      0    0=normal 1=particle mesh
   IRESTART =      0    0=no restart 2=restart with 2 vectors
   NREBOOT  =      0    no. of reboots
   NMIN     =      0    reboot dimension
   EREF     =   0.00    reference energy to select bands
   IMIX   =      4    mixing-type and parameters
     AMIX     =   0.40;   BMIX     =  1.00
     AMIX_MAG =   1.60;   BMIX_MAG =  1.00
     AMIN     =   0.10
     WC   =   100.;   INIMIX=   1;  MIXPRE=   1;  MAXMIX= -45

 Intra band minimization:
   WEIMIN = 0.0000     energy-eigenvalue tresh-hold
   EBREAK =  0.98E-11  absolut break condition
   DEPER  =   0.30     relativ break condition  

   TIME   =   0.40     timestep for ELM

  volume/ion in A,a.u.               =      20.80       140.38
  Fermi-wavevector in a.u.,A,eV,Ry     =   0.957863  1.810099 12.483376  0.917502
  Thomas-Fermi vector in A             =   2.086919
 
 Write flags
   LWAVE  =      F    write WAVECAR
   LCHARG =      F    write CHGCAR
   LVTOT  =      F    write LOCPOT, total local potential
   LVHAR  =      F    write LOCPOT, Hartree potential only
   LELF   =      F    write electronic localiz. function (ELF)
   LORBIT =      0    0 simple, 1 ext, 2 COOP (PROOUT)


 Dipole corrections
   LMONO  =      F    monopole corrections only (constant potential shift)
   LDIPOL =      F    correct potential (dipole corrections)
   IDIPOL =      0    1-x, 2-y, 3-z, 4-all directions 
   EPSILON=  1.0000000 bulk dielectric constant

 Core level calculations are selected ICORELEVEL =  1
 Exchange correlation treatment:
   GGA     =    PE    GGA type
   LEXCH   =     8    internal setting for exchange type
   VOSKOWN=      0    Vosko Wilk Nusair interpolation
   EXXOEP  =     0    0=HF, 1=EXX-LHF (local Hartree Fock) 2=EXX OEP
   LHFCALC =     T    Hartree Fock is set to
   LSYMGRAD=     F    symmetrize gradient (conserves proper symmetry)
   PRECFOCK=fast      Normal, Fast or Accurate (Low or Medium for compatibility)
   LRHFCALC=     F    long range Hartree Fock
   LRSCOR  =     F    long range correlation only (use DFT for short range part)
   LTHOMAS =     F    Thomas Fermi screening in HF
   LMODELHF=     F    short range full HF, long range fraction AEXX
   ENCUT4O =  -1.0   cutoff for four orbital integrals eV
   LMAXFOCK=     4    L truncation for augmentation on plane wave grid
   LMAXFOCKAE=  -1    L truncation for all-electron charge restoration on plane wave grid
   NMAXFOCKAE=   1    number of basis functions for all-electron charge restoration
   LFOCKAEDFT=     F  apply the AE augmentation even for DFT
   NKREDX  =     1    reduce k-point grid by
   NKREDY  =     1    reduce k-point grid by
   NKREDZ  =     1    reduce k-point grid by
   SHIFTRED=     F    shift reduced grid of Gamma
   HFKIDENT=     F    idential grid for each k-point
   ODDONLY =     F    use only odd q-grid points
   EVENONLY=     F    use only even q-grid points
   HFALPHA =   -1.0000 decay constant for conv. correction
   MCALPHA =    0.0000 extent of test-charge in conv. correction in multipole expansion
   AEXX    =    0.2500 exact exchange contribution
   HFSCREEN=    0.2070 screening length (either q_TF or 0.3 A-1)
   HFSCREENC=   0.2070 screening length for correlation (either q_TF or 0.3 A-1)
   HFRCUT  =    0.0000 spherical cutoff for potential kernel
   ALDAX   =    0.7500 LDA exchange part
   AGGAX   =    0.7500 GGA exchange part
   ALDAC   =    1.0000 LDA correlation
   AGGAC   =    1.0000 GGA correlation
   NBANDSGWLOW=     1    first orbital included in HF term
   ENCUTFOCK=  -1.0 apply spherical cutoff to Coloumb kernel
 Linear response parameters
   LEPSILON=     F    determine dielectric tensor
   LRPA    =     F    only Hartree local field effects (RPA)
   LNABLA  =     F    use nabla operator in PAW spheres
   LVEL    =     F    velocity operator in full k-point grid
   LINTERFAST=   F  fast interpolation
   KINTER  =     0    interpolate to denser k-point grid
   CSHIFT  =0.1000    complex shift for real part using Kramers Kronig
   OMEGAMAX=  -1.0    maximum frequency
   DEG_THRESHOLD= 0.2000000E-02 threshold for treating states as degnerate
   RTIME   =    0.100 relaxation time in fs

 Orbital magnetization related:
   ORBITALMAG=     F  switch on orbital magnetization
   LCHIMAG   =     F  perturbation theory with respect to B field
   DQ        =  0.001000  dq finite difference perturbation B field



--------------------------------------------------------------------------------------------------------


 Static calculation
 charge density and potential will be updated during run
 non-spin polarized calculation
 Conjugate gradient for all bands (Freysoldt, et al. PRB 79, 241103 (2009))
 preconditioned conjugated gradient                                        
 perform sub-space diagonalisation
    before iterative eigenvector-optimisation
 modified Broyden-mixing scheme, WC =      100.0
 initial mixing is a Kerker type mixing with AMIX =  0.4000 and BMIX =      1.0000
 Hartree-type preconditioning will be used
 using additional bands           56
 reciprocal scheme for non local part
 use partial core corrections
 no Harris-corrections to forces 
 use gradient corrections 
 use of overlap-Matrix (Vanderbilt PP)
 Gauss-broadening in eV      SIGMA  =   0.00


--------------------------------------------------------------------------------------------------------


  energy-cutoff  :      700.00
  volume of cell :     1996.98
      direct lattice vectors                 reciprocal lattice vectors
    12.576837428  0.001915912  0.138198793     0.079520802 -0.000007684 -0.000869670
     0.001195632 12.457538083 -0.000746413    -0.000012224  0.080272684 -0.000000427
     0.139410704  0.000089045 12.747420625    -0.000862111  0.000004784  0.078456671

  length of vectors
    12.577596840 12.457538162 12.748182927     0.079525558  0.080272685  0.078461408


 
 k-points in units of 2pi/SCALE and weight: Automatic 3x3x3                         
   0.00000000  0.00000000  0.00000000       0.037
   0.02650693 -0.00000256 -0.00028989       0.074
  -0.00000407  0.02675756 -0.00000014       0.074
   0.02650286  0.02675500 -0.00029003       0.074
  -0.02651101  0.02676012  0.00028975       0.074
  -0.00028737  0.00000159  0.02615222       0.074
   0.02621956 -0.00000097  0.02586233       0.074
  -0.02679430  0.00000416  0.02644211       0.074
  -0.00029144  0.02675916  0.02615208       0.074
   0.02621549  0.02675659  0.02586219       0.074
  -0.02679838  0.02676172  0.02644197       0.074
  -0.00028330 -0.02675597  0.02615237       0.074
   0.02622364 -0.02675853  0.02586248       0.074
  -0.02679023 -0.02675341  0.02644226       0.074
 
 k-points in reciprocal lattice and weights: Automatic 3x3x3                         
   0.00000000  0.00000000  0.00000000       0.037
   0.33333333 -0.00000000 -0.00000000       0.074
   0.00000000  0.33333333 -0.00000000       0.074
   0.33333333  0.33333333  0.00000000       0.074
  -0.33333333  0.33333333  0.00000000       0.074
   0.00000000  0.00000000  0.33333333       0.074
   0.33333333  0.00000000  0.33333333       0.074
  -0.33333333  0.00000000  0.33333333       0.074
   0.00000000  0.33333333  0.33333333       0.074
   0.33333333  0.33333333  0.33333333       0.074
  -0.33333333  0.33333333  0.33333333       0.074
   0.00000000 -0.33333333  0.33333333       0.074
   0.33333333 -0.33333333  0.33333333       0.074
  -0.33333333 -0.33333333  0.33333333       0.074
 
 position of ions in fractional coordinates (direct lattice) 
   0.20145462  0.24992687  0.22196826
   0.69253365  0.24988968  0.23586245
   0.19253365  0.74988968  0.23586245
   0.70145462  0.74992687  0.22196826
   0.20145462  0.24992687  0.72196826
   0.69253365  0.24988968  0.73586245
   0.19253365  0.74988968  0.73586245
   0.70145462  0.74992687  0.72196826
   0.30576470  0.25001775  0.27427725
   0.80330973  0.24998953  0.27349135
   0.30330973  0.74998953  0.27349135
   0.80576470  0.75001775  0.27427725
   0.30576470  0.25001775  0.77427725
   0.80330973  0.24998953  0.77349135
   0.30330973  0.74998953  0.77349135
   0.80576470  0.75001775  0.77427725
   0.21557067  0.24982051  0.13636359
   0.69457966  0.24982169  0.14941367
   0.19457966  0.74982169  0.14941367
   0.71557067  0.74982051  0.13636359
   0.21557067  0.24982051  0.63636359
   0.69457966  0.24982169  0.64941367
   0.19457966  0.74982169  0.64941367
   0.71557067  0.74982051  0.63636359
   0.15712576  0.32242158  0.24578167
   0.65154985  0.32228280  0.26524897
   0.15154985  0.82228280  0.26524897
   0.65712576  0.82242158  0.24578167
   0.15712576  0.32242158  0.74578167
   0.65154985  0.32228280  0.76524897
   0.15154985  0.82228280  0.76524897
   0.65712576  0.82242158  0.74578167
   0.15720247  0.17746542  0.24594995
   0.65168320  0.17748673  0.26535146
   0.15168320  0.67748673  0.26535146
   0.65720247  0.67746542  0.24594995
   0.15720247  0.17746542  0.74594995
   0.65168320  0.17748673  0.76535146
   0.15168320  0.67748673  0.76535146
   0.65720247  0.67746542  0.74594995
   0.35077440  0.31802304  0.25407298
   0.84549475  0.31772552  0.24744000
   0.34549475  0.81772552  0.24744000
   0.85077440  0.81802304  0.25407298
   0.35077440  0.31802304  0.75407298
   0.84549475  0.31772552  0.74744000
   0.34549475  0.81772552  0.74744000
   0.85077440  0.81802304  0.75407298
   0.35081762  0.18196252  0.25424169
   0.84559298  0.18224725  0.24754011
   0.34559298  0.68224725  0.24754011
   0.85081762  0.68196252  0.25424169
   0.35081762  0.18196252  0.75424169
   0.84559298  0.18224725  0.74754011
   0.34559298  0.68224725  0.74754011
   0.85081762  0.68196252  0.75424169
   0.29816098  0.25013208  0.35580797
   0.80817916  0.25005496  0.35541052
   0.30817916  0.75005496  0.35541052
   0.79816098  0.75013208  0.35580797
   0.29816098  0.25013208  0.85580797
   0.80817916  0.25005496  0.85541052
   0.30817916  0.75005496  0.85541052
   0.79816098  0.75013208  0.85580797
   0.47244569  0.50071715  0.48881048
   0.97243787  0.49926244  0.48881242
   0.47243787  0.99926244  0.48881242
   0.97244569  0.00071715  0.48881048
   0.47244569  0.50071715  0.98881048
   0.97243787  0.49926244  0.98881242
   0.47243787  0.99926244  0.98881242
   0.97244569  0.00071715  0.98881048
   0.45475451  0.50037834  0.23757044
   0.95473284  0.49960376  0.23757505
   0.45473284  0.99960376  0.23757505
   0.95475451  0.00037834  0.23757044
   0.45475451  0.50037834  0.73757044
   0.95473284  0.49960376  0.73757505
   0.45473284  0.99960376  0.73757505
   0.95475451  0.00037834  0.73757044
   0.46364666  0.24997624  0.00919919
   0.93562422  0.24998178  0.01446525
   0.43562422  0.74998178  0.01446525
   0.96364666  0.74997624  0.00919919
   0.46364666  0.24997624  0.50919919
   0.93562422  0.24998178  0.51446525
   0.43562422  0.74998178  0.51446525
   0.96364666  0.74997624  0.50919919
   0.21617482  0.48327411  0.46123970
   0.71616806  0.51672076  0.46123970
   0.21616806  0.01672076  0.46123970
   0.71617482  0.98327411  0.46123970
   0.21617482  0.48327411  0.96123970
   0.71616806  0.51672076  0.96123970
   0.21616806  0.01672076  0.96123970
   0.71617482  0.98327411  0.96123970
 
 position of ions in cartesian coordinates  (Angst):
   2.56490553  3.11387929  2.85717699
   8.74306364  3.11435799  3.10215866
   2.45524274  9.34216907  3.03268606
   8.85392206  9.34360629  2.92590318
   2.63461088  3.11392381  9.23088730
   8.81276899  3.11440251  9.47586897
   2.52494809  9.34221359  9.40639637
   8.92362741  9.34365081  9.29961349
   3.88408907  3.11521590  3.53839714
  10.14152246  3.11581751  3.59713906
   3.85370156  9.34362860  3.52766646
  10.17310560  9.34494290  3.60712333
   3.95379442  3.11526042  9.91210745
  10.21122781  3.11586203  9.97084937
   3.92340691  9.34367312  9.90137677
  10.24281095  9.34498742  9.98083364
   2.73050655  3.11257361  1.76788913
   8.75674403  3.11350725  2.00044245
   2.46892314  9.34131833  1.93096984
   9.01952308  9.34230061  1.83661532
   2.80021191  3.11261813  8.14159944
   8.82644939  3.11355177  8.37415276
   2.53862849  9.34136285  8.30468016
   9.08922844  9.34234513  8.21032563
   2.01079525  4.01690199  3.15455630
   8.23180044  4.01612215  3.47104298
   1.94397955 10.24393323  3.40157038
   8.29981178 10.24662899  3.22328249
   2.08050060  4.01694651  9.52826661
   8.30150580  4.01616667  9.84475329
   2.01368490 10.24397776  9.77528069
   8.36951713 10.24667351  9.59699280
   2.01161016  2.21110532  3.15682018
   8.23331865  2.21231986  3.47247609
   1.94549776  8.44013094  3.40300348
   8.30062669  8.44083231  3.22554637
   2.08131551  2.21114984  9.53053049
   8.30302401  2.21236438  9.84618640
   2.01520311  8.44017546  9.77671380
   8.37033204  8.44087683  9.59925668
   4.44743334  3.96247884  3.28701439
  10.66852574  3.95971974  3.27083096
   4.38070485 10.18753082  3.20135836
  10.73644987 10.19220583  3.35574058
   4.51713869  3.96252336  9.66072470
  10.73823110  3.95976426  9.64454128
   4.45041020 10.18757534  9.57506867
  10.80615522 10.19225036  9.72945089
   4.44783776  2.26749985  3.28927255
  10.66961307  2.27199419  3.27222176
   4.38179218  8.49980528  3.20274916
  10.73685429  8.49722685  3.35799874
   4.51754311  2.26754437  9.66298287
  10.73931843  2.27203871  9.64593207
   4.45149753  8.49984980  9.57645947
  10.80655964  8.49727137  9.73170906
   3.79982473  3.11663285  4.57665265
  10.21418494  3.11664927  4.64207012
   3.92636404  9.34446036  4.57259751
  10.08884126  9.34635985  4.64537884
   3.86953008  3.11667737 10.95036296
  10.28389029  3.11669379 11.01578043
   3.99606939  9.34450488 10.94630783
  10.15854661  9.34640437 11.01908915
   6.01061668  6.23865167  6.29599044
  12.29893556  6.22148747  6.36511456
   6.01111467 12.44929855  6.29564196
  12.29843757  0.01084059  6.36546305
   6.08032203  6.23869620 12.66970076
  12.36864092  6.22153199 12.73882488
   6.08082002 12.44934308 12.66935227
  12.36814293  0.01088511 12.73917336
   5.75309171  6.23437466  3.09088332
  12.04123751  6.22568318  3.16003907
   5.75341661 12.45349427  3.09056647
  12.04091261  0.00656357  3.16035593
   5.82279706  6.23441918  9.46459364
  12.11094286  6.22572771  9.53374938
   5.82312196 12.45353879  9.46427678
  12.11061796  0.00660810  9.53406624
   5.83278997  3.11497769  0.18115471
  11.76950923  3.11595138  0.31351017
   5.48168834  9.34376247  0.24403757
  12.12180650  9.34470469  0.24988090
   5.90249532  3.11502221  6.55486502
  11.83921459  3.11599591  6.68722049
   5.55139369  9.34380699  6.61774788
  12.19151185  9.34474921  6.62359121
   2.78367514  6.02086091  5.90913083
   9.07204877  6.43848173  5.97820439
   2.78303224  0.20875474  5.90947820
   9.07269167 12.25058790  5.97785702
   2.85338050  6.02090543 12.28284115
   9.14175413  6.43852626 12.35191471
   2.85273760  0.20879926 12.28318852
   9.14239703 12.25063242 12.35156734
 


--------------------------------------------------------------------------------------------------------


 k-point  1 :   0.0000 0.0000 0.0000  plane waves:   84007
 k-point  2 :   0.3333-0.0000-0.0000  plane waves:   84003
 k-point  3 :   0.0000 0.3333-0.0000  plane waves:   83995
 k-point  4 :   0.3333 0.3333 0.0000  plane waves:   84018
 k-point  5 :  -0.3333 0.3333 0.0000  plane waves:   84019
 k-point  6 :   0.0000 0.0000 0.3333  plane waves:   83960
 k-point  7 :   0.3333 0.0000 0.3333  plane waves:   83937
 k-point  8 :  -0.3333 0.0000 0.3333  plane waves:   83982
 k-point  9 :   0.0000 0.3333 0.3333  plane waves:   83984
 k-point 10 :   0.3333 0.3333 0.3333  plane waves:   84012
 k-point 11 :  -0.3333 0.3333 0.3333  plane waves:   83970
 k-point 12 :   0.0000-0.3333 0.3333  plane waves:   83977
 k-point 13 :   0.3333-0.3333 0.3333  plane waves:   84013
 k-point 14 :  -0.3333-0.3333 0.3333  plane waves:   83973

 maximum and minimum number of plane-waves per node :      7062     6951

 maximum number of plane-waves:     84019
 maximum index in each direction: 
   IXMAX=   27   IYMAX=   27   IZMAX=   27
   IXMIN=  -27   IYMIN=  -27   IZMIN=  -27

 NGX is ok and might be reduce to 110
 WARNING: aliasing errors must be expected set NGY to 110 to avoid them
 NGZ is ok and might be reduce to 110
 aliasing errors are usually negligible using standard VASP settings
 and one can safely disregard these warnings

 parallel 3D FFT for wavefunctions:
    minimum data exchange during FFTs selected (reduces bandwidth)
 parallel 3D FFT for charge:
    minimum data exchange during FFTs selected (reduces bandwidth)


 FFT grid for exact exchange (Hartree Fock) 
  NGX = 56; NGY = 56; NGZ = 60

 
 Radii for the augmentation spheres in the non-local exchange
 for species   1 augmentation radius   0.944 (default was   0.699)
       energy cutoff for augmentation   2800.0
 for species   2 augmentation radius   0.957 (default was   0.709)
       energy cutoff for augmentation   2800.0
 for species   3 augmentation radius   0.702 (default was   0.520)
       energy cutoff for augmentation   2800.0
 for species   4 augmentation radius   1.558 (default was   1.154)
       energy cutoff for augmentation   2800.0
 for species   5 augmentation radius   1.603 (default was   1.188)
       energy cutoff for augmentation   2800.0

 real space projection operators:
  total allocation   :      10785.88 KBytes
  max/ min on nodes  :       1223.84        481.98

 Maximum index for augmentation-charges in exchange          232
  SETUP_FOCK is finished

 total amount of memory used by VASP on root node   144684. kBytes
========================================================================

   base      :      30000. kBytes
   nonl-proj :      83263. kBytes
   fftplans  :       8313. kBytes
   grid      :       8754. kBytes
   one-center:        124. kBytes
   HF        :        259. kBytes
   nonlr-proj:       4167. kBytes
   wavefun   :       9804. kBytes
 
     INWAV:  cpu time    0.0000: real time    0.0000
 Broyden mixing: mesh for mixing (old mesh)
   NGX = 55   NGY = 53   NGZ = 55
  (NGX  =224   NGY  =216   NGZ  =224)
  gives a total of 160325 points

 initial charge density was supplied:
 charge density of overlapping atoms calculated
 number of electron     400.0000000 magnetization 
 keeping initial charge density in first step


--------------------------------------------------------------------------------------------------------


 Maximum index for augmentation-charges         4637 (set IRDMAX)


--------------------------------------------------------------------------------------------------------


 First call to EWALD:  gamma=   0.141
 Maximum number of real-space cells 3x 3x 3
 Maximum number of reciprocal cells 3x 3x 3

 FEWALD executed in parallel
    FEWALD:  cpu time    0.0040: real time    0.0036


----------------------------------------- Iteration    1(   1)  ---------------------------------------


    POTLOK:  cpu time    0.1720: real time    0.1752
    SETDIJ:  cpu time    0.6080: real time    0.6073
    TRIAL :  cpu time   19.4692: real time   19.4816
    CORREC:  cpu time    0.0040: real time    0.0023
    --------------------------------------------
      LOOP:  cpu time   20.2613: real time   20.3938

 eigenvalue-minimisations  :  8960
 total energy-change (2. order) : 0.2708314E+05  (-0.1343358E+06)
 number of electron     400.0000000 magnetization 
 augmentation part      400.0000000 magnetization 

 Free energy of the ion-electron system (eV)
  ---------------------------------------------------
  alpha Z        PSCENC =       370.05370877
  Ewald energy   TEWEN  =    -15521.93473335
  -Hartree energ DENC   =     -8126.22286445
  -exchange      EXHF   =         0.00000000
  -V(xc)+E(xc)   XCENC  =       254.65101804
  PAW double counting   =     20708.16285019   -20051.16882790
  entropy T*S    EENTRO =        -0.00004179
  eigenvalues    EBANDS =     24769.17118146
  atomic energy  EATOM  =     24680.42500649
  ---------------------------------------------------
  free energy    TOTEN  =     27083.13729745 eV

  energy without entropy =    27083.13733924  energy(sigma->0) =    27083.13731835
  exchange ACFDT corr.  =         0.00000000  see jH, gK, PRB 81, 115126


--------------------------------------------------------------------------------------------------------




----------------------------------------- Iteration    1(   2)  ---------------------------------------


    TRIAL :  cpu time   24.6135: real time   24.6832
    CORREC:  cpu time    0.0000: real time    0.0014
    --------------------------------------------
      LOOP:  cpu time   24.6135: real time   24.7402

 eigenvalue-minimisations  : 10752
 total energy-change (2. order) :-0.2307539E+05  (-0.2299628E+05)
 number of electron     400.0000000 magnetization 
 augmentation part      400.0000000 magnetization 

 Free energy of the ion-electron system (eV)
  ---------------------------------------------------
  alpha Z        PSCENC =       370.05370877
  Ewald energy   TEWEN  =    -15521.93473335
  -Hartree energ DENC   =     -8126.22286445
  -exchange      EXHF   =         0.00000000
  -V(xc)+E(xc)   XCENC  =       254.65101804
  PAW double counting   =     20708.16285019   -20051.16882790
  entropy T*S    EENTRO =        -0.00005504
  eigenvalues    EBANDS =      1693.78518725
  atomic energy  EATOM  =     24680.42500649
  ---------------------------------------------------
  free energy    TOTEN  =      4007.75128999 eV

  energy without entropy =     4007.75134503  energy(sigma->0) =     4007.75131751
  exchange ACFDT corr.  =         0.00000000  see jH, gK, PRB 81, 115126


--------------------------------------------------------------------------------------------------------




----------------------------------------- Iteration    1(   3)  ---------------------------------------


    TRIAL :  cpu time   24.1455: real time   27.9047
    CORREC:  cpu time    0.0000: real time    0.0017
    --------------------------------------------
      LOOP:  cpu time   24.1455: real time   27.9521

 eigenvalue-minimisations  : 10368
 total energy-change (2. order) :-0.3353702E+04  (-0.3332647E+04)
 number of electron     400.0000000 magnetization 
 augmentation part      400.0000000 magnetization 

 Free energy of the ion-electron system (eV)
  ---------------------------------------------------
  alpha Z        PSCENC =       370.05370877
  Ewald energy   TEWEN  =    -15521.93473335
  -Hartree energ DENC   =     -8126.22286445
  -exchange      EXHF   =         0.00000000
  -V(xc)+E(xc)   XCENC  =       254.65101804
  PAW double counting   =     20708.16285019   -20051.16882790
  entropy T*S    EENTRO =        -0.00000092
  eigenvalues    EBANDS =     -1659.91699042
  atomic energy  EATOM  =     24680.42500649
  ---------------------------------------------------
  free energy    TOTEN  =       654.04916645 eV

  energy without entropy =      654.04916737  energy(sigma->0) =      654.04916691
  exchange ACFDT corr.  =         0.00000000  see jH, gK, PRB 81, 115126


--------------------------------------------------------------------------------------------------------




----------------------------------------- Iteration    1(   4)  ---------------------------------------


    TRIAL :  cpu time   19.9012: real time   20.0013
    CORREC:  cpu time    0.0000: real time    0.0006
    --------------------------------------------
      LOOP:  cpu time   19.9052: real time   20.0355

 eigenvalue-minimisations  :  8960
 total energy-change (2. order) :-0.3768586E+03  (-0.3756143E+03)
 number of electron     400.0000000 magnetization 
 augmentation part      400.0000000 magnetization 

 Free energy of the ion-electron system (eV)
  ---------------------------------------------------
  alpha Z        PSCENC =       370.05370877
  Ewald energy   TEWEN  =    -15521.93473335
  -Hartree energ DENC   =     -8126.22286445
  -exchange      EXHF   =         0.00000000
  -V(xc)+E(xc)   XCENC  =       254.65101804
  PAW double counting   =     20708.16285019   -20051.16882790
  entropy T*S    EENTRO =         0.00000000
  eigenvalues    EBANDS =     -2036.77558803
  atomic energy  EATOM  =     24680.42500649
  ---------------------------------------------------
  free energy    TOTEN  =       277.19056975 eV

  energy without entropy =      277.19056975  energy(sigma->0) =      277.19056975
  exchange ACFDT corr.  =         0.00000000  see jH, gK, PRB 81, 115126


--------------------------------------------------------------------------------------------------------




----------------------------------------- Iteration    1(   5)  ---------------------------------------


    TRIAL :  cpu time   29.8339: real time   29.8545
    CORREC:  cpu time    0.0000: real time    0.0008
    CHARGE:  cpu time    0.8481: real time    0.8481
    --------------------------------------------
      LOOP:  cpu time   30.6819: real time   30.8024

 eigenvalue-minimisations  : 10752
 total energy-change (2. order) :-0.1226599E+02  (-0.1226154E+02)
 number of electron     400.0000000 magnetization 
 augmentation part       10.4408286 magnetization 

 Free energy of the ion-electron system (eV)
  ---------------------------------------------------
  alpha Z        PSCENC =       370.05370877
  Ewald energy   TEWEN  =    -15521.93473335
  -Hartree energ DENC   =     -8126.22286445
  -exchange      EXHF   =         0.00000000
  -V(xc)+E(xc)   XCENC  =       254.65101804
  PAW double counting   =     20708.16285019   -20051.16882790
  entropy T*S    EENTRO =         0.00000000
  eigenvalues    EBANDS =     -2049.04157613
  atomic energy  EATOM  =     24680.42500649
  ---------------------------------------------------
  free energy    TOTEN  =       264.92458166 eV

  energy without entropy =      264.92458166  energy(sigma->0) =      264.92458166
  exchange ACFDT corr.  =         0.00000000  see jH, gK, PRB 81, 115126


--------------------------------------------------------------------------------------------------------




----------------------------------------- Iteration    1(   6)  ---------------------------------------


    POTLOK:  cpu time    0.1800: real time    0.1805
    SETDIJ:  cpu time    0.6320: real time    0.6306
    TRIAL :  cpu time  319.1999: real time  319.4181
    CORREC:  cpu time  320.3440: real time  320.5442
    CHARGE:  cpu time    0.8521: real time    0.8554
    --------------------------------------------
      LOOP:  cpu time  641.2121: real time  641.6745

 eigenvalue-minimisations  :     0
 total energy-change (2. order) :-0.7284667E+03  (-0.1029471E+02)
 number of electron     400.0000000 magnetization 
 augmentation part       11.5608295 magnetization 

 Free energy of the ion-electron system (eV)
  ---------------------------------------------------
  alpha Z        PSCENC =       370.05370877
  Ewald energy   TEWEN  =    -15521.93473335
  -Hartree energ DENC   =     -8234.55538211
  -exchange      EXHF   =       757.76346743
  -V(xc)+E(xc)   XCENC  =       273.26491316
  PAW double counting   =     38198.78518426   -37530.81152713
  entropy T*S    EENTRO =         0.00000000
  eigenvalues    EBANDS =     -3456.53271960
  atomic energy  EATOM  =     24680.42500649
  ---------------------------------------------------
  free energy    TOTEN  =      -463.54208207 eV

  energy without entropy =     -463.54208207  energy(sigma->0) =     -463.54208207
  exchange ACFDT corr.  =         0.00000000  see jH, gK, PRB 81, 115126


--------------------------------------------------------------------------------------------------------




----------------------------------------- Iteration    1(   7)  ---------------------------------------


    POTLOK:  cpu time    0.1800: real time    0.1814
    SETDIJ:  cpu time    0.6480: real time    0.6463
    TRIAL :  cpu time  319.8600: real time  320.0735
    CORREC:  cpu time  324.0042: real time  324.2088
    CHARGE:  cpu time    0.8801: real time    0.8800
    --------------------------------------------
      LOOP:  cpu time  645.5763: real time  646.0314

 eigenvalue-minimisations  :     0
 total energy-change (2. order) :-0.1020531E+02  (-0.3942955E+01)
 number of electron     400.0000000 magnetization 
 augmentation part        9.4353814 magnetization 

 Free energy of the ion-electron system (eV)
  ---------------------------------------------------
  alpha Z        PSCENC =       370.05370877
  Ewald energy   TEWEN  =    -15521.93473335
  -Hartree energ DENC   =     -8445.97136540
  -exchange      EXHF   =       763.40125054
  -V(xc)+E(xc)   XCENC  =       278.21069242
  PAW double counting   =     37996.44799760   -37325.40197669
  entropy T*S    EENTRO =         0.00000000
  eigenvalues    EBANDS =     -3268.97796791
  atomic energy  EATOM  =     24680.42500649
  ---------------------------------------------------
  free energy    TOTEN  =      -473.74738754 eV

  energy without entropy =     -473.74738754  energy(sigma->0) =     -473.74738754
  exchange ACFDT corr.  =         0.00000000  see jH, gK, PRB 81, 115126


--------------------------------------------------------------------------------------------------------




----------------------------------------- Iteration    1(   8)  ---------------------------------------


    POTLOK:  cpu time    0.1840: real time    0.1848
    SETDIJ:  cpu time    0.6640: real time    0.6630
    TRIAL :  cpu time  324.7203: real time  324.9360
    CORREC:  cpu time  326.3804: real time  326.5815
    CHARGE:  cpu time    0.8641: real time    0.8649
    --------------------------------------------
      LOOP:  cpu time  652.8128: real time  653.2587

 eigenvalue-minimisations  :     0
 total energy-change (2. order) :-0.3945054E+01  (-0.1119907E+01)
 number of electron     400.0000000 magnetization 
 augmentation part        9.2699827 magnetization 

 Free energy of the ion-electron system (eV)
  ---------------------------------------------------
  alpha Z        PSCENC =       370.05370877
  Ewald energy   TEWEN  =    -15521.93473335
  -Hartree energ DENC   =     -8398.42434234
  -exchange      EXHF   =       765.19794691
  -V(xc)+E(xc)   XCENC  =       277.00765938
  PAW double counting   =     37390.39064766   -36725.63411290
  entropy T*S    EENTRO =         0.00000000
  eigenvalues    EBANDS =     -3314.77422250
  atomic energy  EATOM  =     24680.42500649
  ---------------------------------------------------
  free energy    TOTEN  =      -477.69244187 eV

  energy without entropy =     -477.69244187  energy(sigma->0) =     -477.69244187
  exchange ACFDT corr.  =         0.00000000  see jH, gK, PRB 81, 115126


--------------------------------------------------------------------------------------------------------




----------------------------------------- Iteration    1(   9)  ---------------------------------------


    POTLOK:  cpu time    0.1920: real time    0.1910
    SETDIJ:  cpu time    0.6560: real time    0.6576
    TRIAL :  cpu time  324.4083: real time  324.7069
    CORREC:  cpu time  326.2244: real time  326.4261
    CHARGE:  cpu time    0.8761: real time    0.8771
    --------------------------------------------
      LOOP:  cpu time  652.3568: real time  652.8795

 eigenvalue-minimisations  :     0
 total energy-change (2. order) :-0.1128375E+01  (-0.3387569E+00)
 number of electron     400.0000000 magnetization 
 augmentation part        9.5108641 magnetization 

 Free energy of the ion-electron system (eV)
  ---------------------------------------------------
  alpha Z        PSCENC =       370.05370877
  Ewald energy   TEWEN  =    -15521.93473335
  -Hartree energ DENC   =     -8438.57812954
  -exchange      EXHF   =       768.39857586
  -V(xc)+E(xc)   XCENC  =       279.07859630
  PAW double counting   =     36523.28707403   -35860.20756093
  entropy T*S    EENTRO =         0.00000000
  eigenvalues    EBANDS =     -3279.34335424
  atomic energy  EATOM  =     24680.42500649
  ---------------------------------------------------
  free energy    TOTEN  =      -478.82081661 eV

  energy without entropy =     -478.82081661  energy(sigma->0) =     -478.82081661
  exchange ACFDT corr.  =         0.00000000  see jH, gK, PRB 81, 115126


--------------------------------------------------------------------------------------------------------




----------------------------------------- Iteration    1(  10)  ---------------------------------------


    POTLOK:  cpu time    0.1880: real time    0.1858
    SETDIJ:  cpu time    0.6800: real time    0.6810
    TRIAL :  cpu time  326.2284: real time  326.5379
    CORREC:  cpu time  325.0603: real time  325.2668
    CHARGE:  cpu time    0.8761: real time    0.8760
    --------------------------------------------
      LOOP:  cpu time  653.0328: real time  653.5703

 eigenvalue-minimisations  :     0
 total energy-change (2. order) :-0.3405060E+00  (-0.9890336E-01)
 number of electron     400.0000000 magnetization 
 augmentation part        9.3127483 magnetization 

 Free energy of the ion-electron system (eV)
  ---------------------------------------------------
  alpha Z        PSCENC =       370.05370877
  Ewald energy   TEWEN  =    -15521.93473335
  -Hartree energ DENC   =     -8444.02448802
  -exchange      EXHF   =       768.41540862
  -V(xc)+E(xc)   XCENC  =       279.09559617
  PAW double counting   =     35863.05393631   -35199.31315085
  entropy T*S    EENTRO =         0.00000000
  eigenvalues    EBANDS =     -3274.93260673
  atomic energy  EATOM  =     24680.42500649
  ---------------------------------------------------
  free energy    TOTEN  =      -479.16132259 eV

  energy without entropy =     -479.16132259  energy(sigma->0) =     -479.16132259
  exchange ACFDT corr.  =         0.00000000  see jH, gK, PRB 81, 115126


--------------------------------------------------------------------------------------------------------




----------------------------------------- Iteration    1(  11)  ---------------------------------------


    POTLOK:  cpu time    0.2160: real time    0.2159
    SETDIJ:  cpu time    0.6680: real time    0.6685
    TRIAL :  cpu time  324.9363: real time  325.2731
    CORREC:  cpu time  325.2483: real time  325.4536
    CHARGE:  cpu time    0.8681: real time    0.8659
    --------------------------------------------
      LOOP:  cpu time  651.9367: real time  652.5147

 eigenvalue-minimisations  :     0
 total energy-change (2. order) :-0.9886885E-01  (-0.4802907E-01)
 number of electron     400.0000000 magnetization 
 augmentation part        9.3658055 magnetization 

 Free energy of the ion-electron system (eV)
  ---------------------------------------------------
  alpha Z        PSCENC =       370.05370877
  Ewald energy   TEWEN  =    -15521.93473335
  -Hartree energ DENC   =     -8422.85229196
  -exchange      EXHF   =       767.98483366
  -V(xc)+E(xc)   XCENC  =       278.47456318
  PAW double counting   =     35598.54432252   -34935.09976759
  entropy T*S    EENTRO =         0.00000000
  eigenvalues    EBANDS =     -3294.85583315
  atomic energy  EATOM  =     24680.42500649
  ---------------------------------------------------
  free energy    TOTEN  =      -479.26019143 eV

  energy without entropy =     -479.26019143  energy(sigma->0) =     -479.26019143
  exchange ACFDT corr.  =         0.00000000  see jH, gK, PRB 81, 115126


--------------------------------------------------------------------------------------------------------




----------------------------------------- Iteration    1(  12)  ---------------------------------------


    POTLOK:  cpu time    0.2040: real time    0.2043
    SETDIJ:  cpu time    0.6560: real time    0.6546
    TRIAL :  cpu time  326.6124: real time  326.8366
    CORREC:  cpu time  324.9323: real time  325.1379
    CHARGE:  cpu time    0.8801: real time    0.8784
    --------------------------------------------
      LOOP:  cpu time  653.2848: real time  653.7375

 eigenvalue-minimisations  :     0
 total energy-change (2. order) :-0.4808506E-01  (-0.1203755E-01)
 number of electron     400.0000000 magnetization 
 augmentation part        9.3534938 magnetization 

 Free energy of the ion-electron system (eV)
  ---------------------------------------------------
  alpha Z        PSCENC =       370.05370877
  Ewald energy   TEWEN  =    -15521.93473335
  -Hartree energ DENC   =     -8434.82643075
  -exchange      EXHF   =       768.42210951
  -V(xc)+E(xc)   XCENC  =       278.83638767
  PAW double counting   =     35507.95868014   -34844.20659263
  entropy T*S    EENTRO =         0.00000000
  eigenvalues    EBANDS =     -3284.03641234
  atomic energy  EATOM  =     24680.42500649
  ---------------------------------------------------
  free energy    TOTEN  =      -479.30827649 eV

  energy without entropy =     -479.30827649  energy(sigma->0) =     -479.30827649
  exchange ACFDT corr.  =         0.00000000  see jH, gK, PRB 81, 115126


--------------------------------------------------------------------------------------------------------




----------------------------------------- Iteration    1(  13)  ---------------------------------------


    POTLOK:  cpu time    0.1720: real time    0.1735
    SETDIJ:  cpu time    0.6600: real time    0.6576
    TRIAL :  cpu time  325.3523: real time  325.5770
    CORREC:  cpu time  325.5643: real time  325.7673
    CHARGE:  cpu time    0.8761: real time    0.8748
    --------------------------------------------
      LOOP:  cpu time  652.6248: real time  653.0932

 eigenvalue-minimisations  :     0
 total energy-change (2. order) :-0.1203589E-01  (-0.3293837E-02)
 number of electron     400.0000000 magnetization 
 augmentation part        9.3473898 magnetization 

 Free energy of the ion-electron system (eV)
  ---------------------------------------------------
  alpha Z        PSCENC =       370.05370877
  Ewald energy   TEWEN  =    -15521.93473335
  -Hartree energ DENC   =     -8434.73342391
  -exchange      EXHF   =       768.49490861
  -V(xc)+E(xc)   XCENC  =       278.85801701
  PAW double counting   =     35547.44735868   -34883.67801493
  entropy T*S    EENTRO =         0.00000000
  eigenvalues    EBANDS =     -3284.25313975
  atomic energy  EATOM  =     24680.42500649
  ---------------------------------------------------
  free energy    TOTEN  =      -479.32031238 eV

  energy without entropy =     -479.32031238  energy(sigma->0) =     -479.32031238
  exchange ACFDT corr.  =         0.00000000  see jH, gK, PRB 81, 115126


--------------------------------------------------------------------------------------------------------




----------------------------------------- Iteration    1(  14)  ---------------------------------------


    POTLOK:  cpu time    0.2040: real time    0.2050
    SETDIJ:  cpu time    0.6480: real time    0.6463
    TRIAL :  cpu time  325.5483: real time  325.7849
    CORREC:  cpu time  324.5803: real time  324.7827
    CHARGE:  cpu time    0.8561: real time    0.8598
    --------------------------------------------
      LOOP:  cpu time  651.8367: real time  652.3233

 eigenvalue-minimisations  :     0
 total energy-change (2. order) :-0.3294319E-02  (-0.7864734E-03)
 number of electron     400.0000000 magnetization 
 augmentation part        9.3609068 magnetization 

 Free energy of the ion-electron system (eV)
  ---------------------------------------------------
  alpha Z        PSCENC =       370.05370877
  Ewald energy   TEWEN  =    -15521.93473335
  -Hartree energ DENC   =     -8434.21945535
  -exchange      EXHF   =       768.50136080
  -V(xc)+E(xc)   XCENC  =       278.85377510
  PAW double counting   =     35600.92289111   -34937.16833381
  entropy T*S    EENTRO =         0.00000000
  eigenvalues    EBANDS =     -3284.75782646
  atomic energy  EATOM  =     24680.42500649
  ---------------------------------------------------
  free energy    TOTEN  =      -479.32360670 eV

  energy without entropy =     -479.32360670  energy(sigma->0) =     -479.32360670
  exchange ACFDT corr.  =         0.00000000  see jH, gK, PRB 81, 115126


--------------------------------------------------------------------------------------------------------




----------------------------------------- Iteration    1(  15)  ---------------------------------------


    POTLOK:  cpu time    0.1760: real time    0.1780
    SETDIJ:  cpu time    0.6680: real time    0.6655
    TRIAL :  cpu time  323.8002: real time  324.6209
    CORREC:  cpu time  323.8282: real time  324.0315
    CHARGE:  cpu time    0.8961: real time    0.8985
    --------------------------------------------
      LOOP:  cpu time  649.3726: real time  650.4302

 eigenvalue-minimisations  :     0
 total energy-change (2. order) :-0.7829803E-03  (-0.2303335E-03)
 number of electron     400.0000000 magnetization 
 augmentation part        9.3513245 magnetization 

 Free energy of the ion-electron system (eV)
  ---------------------------------------------------
  alpha Z        PSCENC =       370.05370877
[...]


 FORCES acting on ions:
    Electron-Ion                     Ewald-Force                    Non-Local-Force
 -----------------------------------------------------------------------------------------------
   0.862E+02 0.565E-01 0.419E+02   -.933E+02 -.647E-01 -.456E+02   0.652E+01 0.747E-02 0.346E+01
   0.855E+02 0.543E-01 0.318E+02   -.930E+02 -.631E-01 -.345E+02   0.691E+01 0.812E-02 0.250E+01
   0.855E+02 0.543E-01 0.318E+02   -.930E+02 -.631E-01 -.345E+02   0.691E+01 0.812E-02 0.250E+01
   0.862E+02 0.565E-01 0.419E+02   -.933E+02 -.647E-01 -.456E+02   0.652E+01 0.747E-02 0.346E+01
   0.862E+02 0.565E-01 0.419E+02   -.933E+02 -.647E-01 -.456E+02   0.652E+01 0.747E-02 0.346E+01
   0.855E+02 0.543E-01 0.318E+02   -.930E+02 -.631E-01 -.345E+02   0.691E+01 0.812E-02 0.250E+01
   0.855E+02 0.543E-01 0.318E+02   -.930E+02 -.631E-01 -.345E+02   0.691E+01 0.812E-02 0.250E+01
   0.862E+02 0.565E-01 0.419E+02   -.933E+02 -.647E-01 -.456E+02   0.652E+01 0.747E-02 0.346E+01
   -.365E+02 -.768E-01 -.197E+02   0.357E+02 0.726E-01 0.187E+02   0.113E+01 0.399E-02 0.110E+01
   -.389E+02 -.111E+00 -.148E+02   0.379E+02 0.108E+00 0.146E+02   0.142E+01 0.225E-02 0.430E+00
   -.389E+02 -.111E+00 -.148E+02   0.379E+02 0.108E+00 0.146E+02   0.142E+01 0.225E-02 0.430E+00
   -.365E+02 -.768E-01 -.197E+02   0.357E+02 0.726E-01 0.187E+02   0.113E+01 0.399E-02 0.110E+01
   -.365E+02 -.768E-01 -.197E+02   0.357E+02 0.726E-01 0.187E+02   0.113E+01 0.399E-02 0.110E+01
   -.389E+02 -.111E+00 -.148E+02   0.379E+02 0.108E+00 0.146E+02   0.142E+01 0.225E-02 0.430E+00
   -.389E+02 -.111E+00 -.148E+02   0.379E+02 0.108E+00 0.146E+02   0.142E+01 0.225E-02 0.430E+00
   -.365E+02 -.768E-01 -.197E+02   0.357E+02 0.726E-01 0.187E+02   0.113E+01 0.399E-02 0.110E+01
   0.292E+01 0.563E-01 0.520E+02   -.225E+01 -.629E-01 -.574E+02   -.698E+00 0.681E-02 0.557E+01
   0.801E+01 0.383E-01 0.522E+02   -.808E+01 -.426E-01 -.576E+02   0.825E-01 0.447E-02 0.561E+01
   0.801E+01 0.383E-01 0.522E+02   -.808E+01 -.426E-01 -.576E+02   0.825E-01 0.447E-02 0.561E+01
   0.292E+01 0.563E-01 0.520E+02   -.225E+01 -.629E-01 -.574E+02   -.698E+00 0.681E-02 0.557E+01
   0.292E+01 0.563E-01 0.520E+02   -.225E+01 -.629E-01 -.574E+02   -.698E+00 0.681E-02 0.557E+01
   0.801E+01 0.383E-01 0.522E+02   -.808E+01 -.426E-01 -.576E+02   0.825E-01 0.447E-02 0.561E+01
   0.801E+01 0.383E-01 0.522E+02   -.808E+01 -.426E-01 -.576E+02   0.825E-01 0.447E-02 0.561E+01
   0.292E+01 0.563E-01 0.520E+02   -.225E+01 -.629E-01 -.574E+02   -.698E+00 0.681E-02 0.557E+01
   0.321E+02 -.394E+02 -.834E+01   -.350E+02 0.438E+02 0.973E+01   0.293E+01 -.458E+01 -.143E+01
   0.289E+02 -.394E+02 -.121E+02   -.315E+02 0.438E+02 0.139E+02   0.273E+01 -.457E+01 -.181E+01
   0.289E+02 -.394E+02 -.121E+02   -.315E+02 0.438E+02 0.139E+02   0.273E+01 -.457E+01 -.181E+01
   0.321E+02 -.394E+02 -.834E+01   -.350E+02 0.438E+02 0.973E+01   0.293E+01 -.458E+01 -.143E+01
   0.321E+02 -.394E+02 -.834E+01   -.350E+02 0.438E+02 0.973E+01   0.293E+01 -.458E+01 -.143E+01
   0.289E+02 -.394E+02 -.121E+02   -.315E+02 0.438E+02 0.139E+02   0.273E+01 -.457E+01 -.181E+01
   0.289E+02 -.394E+02 -.121E+02   -.315E+02 0.438E+02 0.139E+02   0.273E+01 -.457E+01 -.181E+01
   0.321E+02 -.394E+02 -.834E+01   -.350E+02 0.438E+02 0.973E+01   0.293E+01 -.458E+01 -.143E+01
   0.321E+02 0.394E+02 -.843E+01   -.349E+02 -.438E+02 0.983E+01   0.293E+01 0.458E+01 -.144E+01
   0.288E+02 0.394E+02 -.122E+02   -.315E+02 -.439E+02 0.139E+02   0.272E+01 0.457E+01 -.182E+01
   0.288E+02 0.394E+02 -.122E+02   -.315E+02 -.439E+02 0.139E+02   0.272E+01 0.457E+01 -.182E+01
   0.321E+02 0.394E+02 -.843E+01   -.349E+02 -.438E+02 0.983E+01   0.293E+01 0.458E+01 -.144E+01
   0.321E+02 0.394E+02 -.843E+01   -.349E+02 -.438E+02 0.983E+01   0.293E+01 0.458E+01 -.144E+01
   0.288E+02 0.394E+02 -.122E+02   -.315E+02 -.439E+02 0.139E+02   0.272E+01 0.457E+01 -.182E+01
   0.288E+02 0.394E+02 -.122E+02   -.315E+02 -.439E+02 0.139E+02   0.272E+01 0.457E+01 -.182E+01
   0.321E+02 0.394E+02 -.843E+01   -.349E+02 -.438E+02 0.983E+01   0.293E+01 0.458E+01 -.144E+01
   -.347E+02 -.482E+02 0.153E+02   0.381E+02 0.534E+02 -.168E+02   -.363E+01 -.546E+01 0.161E+01
   -.324E+02 -.488E+02 0.195E+02   0.356E+02 0.540E+02 -.215E+02   -.343E+01 -.546E+01 0.211E+01
   -.324E+02 -.488E+02 0.195E+02   0.356E+02 0.540E+02 -.215E+02   -.343E+01 -.546E+01 0.211E+01
   -.347E+02 -.482E+02 0.153E+02   0.381E+02 0.534E+02 -.168E+02   -.363E+01 -.546E+01 0.161E+01
   -.347E+02 -.482E+02 0.153E+02   0.381E+02 0.534E+02 -.168E+02   -.363E+01 -.546E+01 0.161E+01
   -.324E+02 -.488E+02 0.195E+02   0.356E+02 0.540E+02 -.215E+02   -.343E+01 -.546E+01 0.211E+01
   -.324E+02 -.488E+02 0.195E+02   0.356E+02 0.540E+02 -.215E+02   -.343E+01 -.546E+01 0.211E+01
   -.347E+02 -.482E+02 0.153E+02   0.381E+02 0.534E+02 -.168E+02   -.363E+01 -.546E+01 0.161E+01
   -.347E+02 0.482E+02 0.151E+02   0.382E+02 -.534E+02 -.167E+02   -.364E+01 0.546E+01 0.159E+01
   -.324E+02 0.488E+02 0.194E+02   0.357E+02 -.539E+02 -.214E+02   -.343E+01 0.546E+01 0.210E+01
   -.324E+02 0.488E+02 0.194E+02   0.357E+02 -.539E+02 -.214E+02   -.343E+01 0.546E+01 0.210E+01
   -.347E+02 0.482E+02 0.151E+02   0.382E+02 -.534E+02 -.167E+02   -.364E+01 0.546E+01 0.159E+01
   -.347E+02 0.482E+02 0.151E+02   0.382E+02 -.534E+02 -.167E+02   -.364E+01 0.546E+01 0.159E+01
   -.324E+02 0.488E+02 0.194E+02   0.357E+02 -.539E+02 -.214E+02   -.343E+01 0.546E+01 0.210E+01
   -.324E+02 0.488E+02 0.194E+02   0.357E+02 -.539E+02 -.214E+02   -.343E+01 0.546E+01 0.210E+01
   -.347E+02 0.482E+02 0.151E+02   0.382E+02 -.534E+02 -.167E+02   -.364E+01 0.546E+01 0.159E+01
   0.818E+01 -.854E-01 -.654E+02   -.871E+01 0.945E-01 0.720E+02   0.517E+00 -.953E-02 -.695E+01
   -.821E+00 -.604E-01 -.628E+02   0.126E+01 0.656E-01 0.691E+02   -.517E+00 -.536E-02 -.676E+01
   -.821E+00 -.604E-01 -.628E+02   0.126E+01 0.656E-01 0.691E+02   -.517E+00 -.536E-02 -.676E+01
   0.818E+01 -.854E-01 -.654E+02   -.871E+01 0.945E-01 0.720E+02   0.517E+00 -.953E-02 -.695E+01
   0.818E+01 -.854E-01 -.654E+02   -.871E+01 0.945E-01 0.720E+02   0.517E+00 -.953E-02 -.695E+01
   -.821E+00 -.604E-01 -.628E+02   0.126E+01 0.656E-01 0.691E+02   -.517E+00 -.536E-02 -.676E+01
   -.821E+00 -.604E-01 -.628E+02   0.126E+01 0.656E-01 0.691E+02   -.517E+00 -.536E-02 -.676E+01
   0.818E+01 -.854E-01 -.654E+02   -.871E+01 0.945E-01 0.720E+02   0.517E+00 -.953E-02 -.695E+01
   -.313E+02 -.575E+01 -.118E+02   0.300E+02 0.579E+01 0.114E+02   0.125E+01 -.428E-01 0.324E+00
   -.313E+02 0.588E+01 -.118E+02   0.299E+02 -.594E+01 0.114E+02   0.125E+01 0.539E-01 0.324E+00
   -.313E+02 0.588E+01 -.118E+02   0.299E+02 -.594E+01 0.114E+02   0.125E+01 0.539E-01 0.324E+00
   -.313E+02 -.575E+01 -.118E+02   0.300E+02 0.579E+01 0.114E+02   0.125E+01 -.428E-01 0.324E+00
   -.313E+02 -.575E+01 -.118E+02   0.300E+02 0.579E+01 0.114E+02   0.125E+01 -.428E-01 0.324E+00
   -.313E+02 0.588E+01 -.118E+02   0.299E+02 -.594E+01 0.114E+02   0.125E+01 0.539E-01 0.324E+00
   -.313E+02 0.588E+01 -.118E+02   0.299E+02 -.594E+01 0.114E+02   0.125E+01 0.539E-01 0.324E+00
   -.313E+02 -.575E+01 -.118E+02   0.300E+02 0.579E+01 0.114E+02   0.125E+01 -.428E-01 0.324E+00
   -.173E+02 -.300E+01 0.561E+01   0.175E+02 0.301E+01 -.555E+01   -.106E+00 -.602E-02 -.767E-01
   -.173E+02 0.307E+01 0.562E+01   0.174E+02 -.309E+01 -.556E+01   -.105E+00 0.716E-02 -.765E-01
   -.173E+02 0.307E+01 0.562E+01   0.174E+02 -.309E+01 -.556E+01   -.105E+00 0.716E-02 -.765E-01
   -.173E+02 -.300E+01 0.561E+01   0.175E+02 0.301E+01 -.555E+01   -.106E+00 -.602E-02 -.767E-01
   -.173E+02 -.300E+01 0.561E+01   0.175E+02 0.301E+01 -.555E+01   -.106E+00 -.602E-02 -.767E-01
   -.173E+02 0.307E+01 0.562E+01   0.174E+02 -.309E+01 -.556E+01   -.105E+00 0.716E-02 -.765E-01
   -.173E+02 0.307E+01 0.562E+01   0.174E+02 -.309E+01 -.556E+01   -.105E+00 0.716E-02 -.765E-01
   -.173E+02 -.300E+01 0.561E+01   0.175E+02 0.301E+01 -.555E+01   -.106E+00 -.602E-02 -.767E-01
   -.237E+02 -.497E-01 -.161E+02   0.237E+02 0.511E-01 0.166E+02   0.443E-01 -.106E-02 -.538E+00
   -.470E+01 -.584E-01 -.163E+02   0.452E+01 0.598E-01 0.169E+02   0.198E+00 -.110E-02 -.645E+00
   -.470E+01 -.584E-01 -.163E+02   0.452E+01 0.598E-01 0.169E+02   0.198E+00 -.110E-02 -.645E+00
   -.237E+02 -.497E-01 -.161E+02   0.237E+02 0.511E-01 0.166E+02   0.443E-01 -.106E-02 -.538E+00
   -.237E+02 -.497E-01 -.161E+02   0.237E+02 0.511E-01 0.166E+02   0.443E-01 -.106E-02 -.538E+00
   -.470E+01 -.584E-01 -.163E+02   0.452E+01 0.598E-01 0.169E+02   0.198E+00 -.110E-02 -.645E+00
   -.470E+01 -.584E-01 -.163E+02   0.452E+01 0.598E-01 0.169E+02   0.198E+00 -.110E-02 -.645E+00
   -.237E+02 -.497E-01 -.161E+02   0.237E+02 0.511E-01 0.166E+02   0.443E-01 -.106E-02 -.538E+00
   0.416E+01 0.330E+01 -.265E+01   -.360E+01 -.346E+01 0.224E+01   -.561E+00 0.139E+00 0.424E+00
   0.416E+01 -.328E+01 -.263E+01   -.360E+01 0.344E+01 0.222E+01   -.561E+00 -.140E+00 0.424E+00
   0.416E+01 -.328E+01 -.263E+01   -.360E+01 0.344E+01 0.222E+01   -.561E+00 -.140E+00 0.424E+00
   0.416E+01 0.330E+01 -.265E+01   -.360E+01 -.346E+01 0.224E+01   -.561E+00 0.139E+00 0.424E+00
   0.416E+01 0.330E+01 -.265E+01   -.360E+01 -.346E+01 0.224E+01   -.561E+00 0.139E+00 0.424E+00
   0.416E+01 -.328E+01 -.263E+01   -.360E+01 0.344E+01 0.222E+01   -.561E+00 -.140E+00 0.424E+00
   0.416E+01 -.328E+01 -.263E+01   -.360E+01 0.344E+01 0.222E+01   -.561E+00 -.140E+00 0.424E+00
   0.416E+01 0.330E+01 -.265E+01   -.360E+01 -.346E+01 0.224E+01   -.561E+00 0.139E+00 0.424E+00
 -----------------------------------------------------------------------------------------------
   -.596E+02 -.119E+00 -.257E+02   -.302E-13 0.135E-12 0.144E-12   0.558E+02 0.111E+00 0.241E+02
 
 
 POSITION                                       TOTAL-FORCE (eV/Angst)
 -----------------------------------------------------------------------------------
      2.56491      3.11388      2.85718        -0.195939     -0.000378     -0.150784
      8.74306      3.11436      3.10216        -0.215816     -0.000366     -0.121002
      2.45524      9.34217      3.03269        -0.215816     -0.000366     -0.121002
      8.85392      9.34361      2.92590        -0.195939     -0.000378     -0.150784
      2.63461      3.11392      9.23089        -0.195939     -0.000378     -0.150784
      8.81277      3.11440      9.47587        -0.215816     -0.000366     -0.121002
      2.52495      9.34221      9.40640        -0.215816     -0.000366     -0.121002
      8.92363      9.34365      9.29961        -0.195939     -0.000378     -0.150784
      3.88409      3.11522      3.53840         0.418713      0.000088      0.242804
     10.14152      3.11582      3.59714         0.464572      0.000001      0.195776
      3.85370      9.34363      3.52767         0.464572      0.000001      0.195776
     10.17311      9.34494      3.60712         0.418713      0.000088      0.242804
      3.95379      3.11526      9.91211         0.418713      0.000088      0.242804
     10.21123      3.11586      9.97085         0.464572      0.000001      0.195776
      3.92341      9.34367      9.90138         0.464572      0.000001      0.195776
     10.24281      9.34499      9.98083         0.418713      0.000088      0.242804
      2.73051      3.11257      1.76789        -0.062611      0.000598      0.479094
      8.75674      3.11351      2.00044         0.011851      0.000368      0.479202
      2.46892      9.34132      1.93097         0.011851      0.000368      0.479202
      9.01952      9.34230      1.83662        -0.062611      0.000598      0.479094
      2.80021      3.11262      8.14160        -0.062611      0.000598      0.479094
      8.82645      3.11355      8.37415         0.011851      0.000368      0.479202
      2.53863      9.34136      8.30468         0.011851      0.000368      0.479202
      9.08923      9.34235      8.21033        -0.062611      0.000598      0.479094
      2.01080      4.01690      3.15456         0.237353     -0.338318     -0.105903
      8.23180      4.01612      3.47104         0.224692     -0.337048     -0.133731
      1.94398     10.24393      3.40157         0.224692     -0.337048     -0.133731
      8.29981     10.24663      3.22328         0.237353     -0.338318     -0.105903
      2.08050      4.01695      9.52827         0.237353     -0.338318     -0.105903
      8.30151      4.01617      9.84475         0.224692     -0.337048     -0.133731
      2.01368     10.24398      9.77528         0.224692     -0.337048     -0.133731
      8.36952     10.24667      9.59699         0.237353     -0.338318     -0.105903
      2.01161      2.21111      3.15682         0.236682      0.338431     -0.106956
      8.23332      2.21232      3.47248         0.223801      0.337405     -0.134480
      1.94550      8.44013      3.40300         0.223801      0.337405     -0.134480
      8.30063      8.44083      3.22555         0.236682      0.338431     -0.106956
      2.08132      2.21115      9.53053         0.236682      0.338431     -0.106956
      8.30302      2.21236      9.84619         0.223801      0.337405     -0.134480
      2.01520      8.44018      9.77671         0.223801      0.337405     -0.134480
      8.37033      8.44088      9.59926         0.236682      0.338431     -0.106956
      4.44743      3.96248      3.28701        -0.360387     -0.514729      0.138987
     10.66853      3.95972      3.27083        -0.344404     -0.508537      0.187731
      4.38070     10.18753      3.20136        -0.344404     -0.508537      0.187731
     10.73645     10.19221      3.35574        -0.360387     -0.514729      0.138987
      4.51714      3.96252      9.66072        -0.360387     -0.514729      0.138987
     10.73823      3.95976      9.64454        -0.344404     -0.508537      0.187731
      4.45041     10.18758      9.57507        -0.344404     -0.508537      0.187731
     10.80616     10.19225      9.72945        -0.360387     -0.514729      0.138987
      4.44784      2.26750      3.28927        -0.360937      0.515451      0.137341
     10.66961      2.27199      3.27222        -0.345366      0.508979      0.186604
      4.38179      8.49981      3.20275        -0.345366      0.508979      0.186604
     10.73685      8.49723      3.35800        -0.360937      0.515451      0.137341
      4.51754      2.26754      9.66298        -0.360937      0.515451      0.137341
     10.73932      2.27204      9.64593        -0.345366      0.508979      0.186604
      4.45150      8.49985      9.57646        -0.345366      0.508979      0.186604
     10.80656      8.49727      9.73171        -0.360937      0.515451      0.137341
      3.79982      3.11663      4.57665         0.009858     -0.000897     -0.663535
     10.21418      3.11665      4.64207        -0.105018     -0.000426     -0.680527
      3.92636      9.34446      4.57260        -0.105018     -0.000426     -0.680527
     10.08884      9.34636      4.64538         0.009858     -0.000897     -0.663535
      3.86953      3.11668     10.95036         0.009858     -0.000897     -0.663535
     10.28389      3.11669     11.01578        -0.105018     -0.000426     -0.680527
      3.99607      9.34450     10.94631        -0.105018     -0.000426     -0.680527
     10.15855      9.34640     11.01909         0.009858     -0.000897     -0.663535
      6.01062      6.23865      6.29599         0.012527      0.003526      0.009057
     12.29894      6.22149      6.36511         0.012510     -0.003902      0.009058
      6.01111     12.44930      6.29564         0.012510     -0.003902      0.009058
     12.29844      0.01084      6.36546         0.012527      0.003526      0.009057
      6.08032      6.23870     12.66970         0.012527      0.003526      0.009057
     12.36864      6.22153     12.73882         0.012510     -0.003902      0.009058
      6.08082     12.44934     12.66935         0.012510     -0.003902      0.009058
     12.36814      0.01089     12.73917         0.012527      0.003526      0.009057
      5.75309      6.23437      3.09088         0.046232      0.003663     -0.015051
     12.04124      6.22568      3.16004         0.046197     -0.004093     -0.015054
      5.75342     12.45349      3.09057         0.046197     -0.004093     -0.015054
     12.04091      0.00656      3.16036         0.046232      0.003663     -0.015051
      5.82280      6.23442      9.46459         0.046232      0.003663     -0.015051
     12.11094      6.22573      9.53375         0.046197     -0.004093     -0.015054
      5.82312     12.45354      9.46428         0.046197     -0.004093     -0.015054
     12.11062      0.00661      9.53407         0.046232      0.003663     -0.015051
      5.83279      3.11498      0.18115         0.069473      0.000254     -0.007479
     11.76951      3.11595      0.31351         0.031963      0.000261      0.000922
      5.48169      9.34376      0.24404         0.031963      0.000261      0.000922
     12.12181      9.34470      0.24988         0.069473      0.000254     -0.007479
      5.90250      3.11502      6.55487         0.069473      0.000254     -0.007479
     11.83921      3.11600      6.68722         0.031963      0.000261      0.000922
      5.55139      9.34381      6.61775         0.031963      0.000261      0.000922
     12.19151      9.34475      6.62359         0.069473      0.000254     -0.007479
      2.78368      6.02086      5.90913        -0.027973     -0.010735      0.033985
      9.07205      6.43848      5.97820        -0.027972      0.010406      0.033943
      2.78303      0.20875      5.90948        -0.027972      0.010406      0.033943
      9.07269     12.25059      5.97786        -0.027973     -0.010735      0.033985
      2.85338      6.02091     12.28284        -0.027973     -0.010735      0.033985
      9.14175      6.43853     12.35191        -0.027972      0.010406      0.033943
      2.85274      0.20880     12.28319        -0.027972      0.010406      0.033943
      9.14240     12.25063     12.35157        -0.027973     -0.010735      0.033985
 -----------------------------------------------------------------------------------
    total drift:                                0.007399      0.000418     -0.000711


--------------------------------------------------------------------------------------------------------



  FREE ENERGIE OF THE ION-ELECTRON SYSTEM (eV)
  ---------------------------------------------------
  free  energy   TOTEN  =      -479.32480226 eV

  energy  without entropy=     -479.32480226  energy(sigma->0) =     -479.32480226
 


--------------------------------------------------------------------------------------------------------


    POTLOK:  cpu time    0.8401: real time    0.8369


--------------------------------------------------------------------------------------------------------


     LOOP+:  cpu time19405.6888: real time19424.5466
    4ORBIT:  cpu time    0.0000: real time    0.0000

 total amount of memory used by VASP on root node   169497. kBytes
========================================================================

   base      :      30000. kBytes
   nonl-proj :      83263. kBytes
   fftplans  :       8313. kBytes
   grid      :       8754. kBytes
   one-center:        124. kBytes
   HF        :        259. kBytes
   nonlr-proj:      28980. kBytes
   wavefun   :       9804. kBytes
 
  
  
 General timing and accounting informations for this job:
 ========================================================
  
                  Total CPU time used (sec):    19460.660
                            User time (sec):    19441.155
                          System time (sec):       19.505
                         Elapsed time (sec):    19482.948
  
                   Maximum memory used (kb):      322368.
                   Average memory used (kb):           0.
  
                          Minor page faults:       318268
                          Major page faults:            0
                 Voluntary context switches:         1101
