 running on 1536 total cores
 distrk:  each k-point on 1536 cores,    1 groups
 distr:  one band on   12 cores,  128 groups
 using from now: INCAR     
 vasp.5.4.1 24Jun15 (build Nov 25 2015 16:01:35) complex                        
  
 POSCAR found type information on POSCAR  C  N  H  Pb I 
 POSCAR found :  5 types and      96 ions
 scaLAPACK will be used

 ----------------------------------------------------------------------------- 
|                                                                             |
|           W    W    AA    RRRRR   N    N  II  N    N   GGGG   !!!           |
|           W    W   A  A   R    R  NN   N  II  NN   N  G    G  !!!           |
|           W    W  A    A  R    R  N N  N  II  N N  N  G       !!!           |
|           W WW W  AAAAAA  RRRRR   N  N N  II  N  N N  G  GGG   !            |
|           WW  WW  A    A  R   R   N   NN  II  N   NN  G    G                |
|           W    W  A    A  R    R  N    N  II  N    N   GGGG   !!!           |
|                                                                             |
|      For optimal performance we recommend to set                            |
|        NCORE= 4 - approx SQRT( number of cores)                             |
|      NCORE specifies how many cores store one orbital (NPAR=cpu/NCORE).     |
|      This setting can  greatly improve the performance of VASP for DFT.     |
|      The default, NPAR=number of cores might be grossly inefficient         |
|      on modern multi-core architectures or massively parallel machines.     |
|      Do your own testing !!!!                                               |
|      Unfortunately you need to use the default for GW and RPA calculations. |
|      (for HF NCORE is supported but not extensively tested yet)             |
|                                                                             |
 ----------------------------------------------------------------------------- 


 ----------------------------------------------------------------------------- 
|                                                                             |
|  ADVICE TO THIS USER RUNNING 'VASP/VAMP'   (HEAR YOUR MASTER'S VOICE ...):  |
|                                                                             |
|      You have a (more or less) 'large supercell' and for larger cells       |
|      it might be more efficient to use real space projection opertators     |
|      So try LREAL= Auto  in the INCAR   file.                               |
|      Mind: At the moment your POTCAR file does not contain real space       |
|       projectors, and has to be modified,  BUT if you                       |
|      want to do an extremely  accurate calculation you might also keep the  |
|      reciprocal projection scheme          (i.e. LREAL=.FALSE.)             |
|                                                                             |
 ----------------------------------------------------------------------------- 

 LDA part: xc-table for Pade appr. of Perdew
 POSCAR, INCAR and KPOINTS ok, starting setup
 WARNING: small aliasing (wrap around) errors must be expected
 FFT: planning ...
 WAVECAR not read
  WARNING: DENMP: can't reach specified precision
  Number of Electrons is NELECT =   399.999999999859     
 entering main loop
       N       E                     dE             d eps       ncg     rms          ort
DAV:   1     0.270831372975E+05    0.27083E+05   -0.13434E+06  3584   0.486E+03
DAV:   2     0.400775128999E+04   -0.23075E+05   -0.22996E+05  3584   0.134E+03
DAV:   3     0.654049166451E+03   -0.33537E+04   -0.33326E+04  3584   0.307E+02
DAV:   4     0.277190569754E+03   -0.37686E+03   -0.37561E+03  3584   0.944E+01
DAV:   5     0.264924581658E+03   -0.12266E+02   -0.12262E+02  3584   0.188E+01
 gam= 0.000 g(H,U,f)=  0.709E+02 0.549E+01 0.000E+00 ort(H,U,f) = 0.000E+00 0.000E+00 0.000E+00
SDA:   6    -0.463542082074E+03   -0.72847E+03   -0.12262E+02  3584   0.764E+02 0.000E+00
 gam= 0.000 trial= 0.400  step= 0.269 mean= 0.400
 gam= 0.253 g(H,U,f)=  0.172E+02 0.221E+01 0.000E+00 ort(H,U,f) =-0.312E+01 0.322E+01 0.000E+00
CGA:   7    -0.473747387538E+03   -0.10205E+02   -0.10295E+02  3584   0.194E+02 0.975E-01
 gam= 0.253 trial= 0.393  step= 0.407 mean= 0.393
 gam= 0.173 g(H,U,f)=  0.283E+01 0.529E+00 0.000E+00 ort(H,U,f) =-0.108E+01 0.128E+01 0.000E+00
CGA:   8    -0.477692441873E+03   -0.39451E+01   -0.39430E+01  3584   0.336E+01 0.194E+00
 gam= 0.173 trial= 0.394  step= 0.661 mean= 0.394
 gam= 0.313 g(H,U,f)=  0.864E+00 0.186E+00 0.000E+00 ort(H,U,f) =-0.352E+00 0.409E+00 0.000E+00
CGA:   9    -0.478820816609E+03   -0.11284E+01   -0.11199E+01  3584   0.105E+01 0.573E-01
 gam= 0.313 trial= 0.407  step= 0.635 mean= 0.407
 gam= 0.465 g(H,U,f)=  0.433E+00 0.556E-01 0.000E+00 ort(H,U,f) =-0.143E+00 0.157E+00 0.000E+00
CGA:  10    -0.479161322586E+03   -0.34051E+00   -0.33876E+00  3584   0.489E+00 0.132E-01
 gam= 0.465 trial= 0.419  step= 0.400 mean= 0.419
 gam= 0.320 g(H,U,f)=  0.136E+00 0.203E-01 0.000E+00 ort(H,U,f) =-0.688E-01 0.714E-01 0.000E+00
CGA:  11    -0.479260191435E+03   -0.98869E-01   -0.98903E-01  3584   0.156E+00 0.259E-02
 gam= 0.320 trial= 0.418  step= 0.611 mean= 0.418
 gam= 0.249 g(H,U,f)=  0.352E-01 0.377E-02 0.000E+00 ort(H,U,f) =-0.167E-01 0.171E-01 0.000E+00
CGA:  12    -0.479308276494E+03   -0.48085E-01   -0.48029E-01  3584   0.390E-01 0.360E-03
 gam= 0.249 trial= 0.428  step= 0.616 mean= 0.428
 gam= 0.279 g(H,U,f)=  0.997E-02 0.917E-03 0.000E+00 ort(H,U,f) =-0.360E-02 0.357E-02 0.000E+00
CGA:  13    -0.479320312380E+03   -0.12036E-01   -0.12038E-01  3584   0.109E-01-0.293E-04
 gam= 0.279 trial= 0.437  step= 0.606 mean= 0.437
 gam= 0.270 g(H,U,f)=  0.267E-02 0.260E-03 0.000E+00 ort(H,U,f) =-0.905E-03 0.909E-03 0.000E+00
CGA:  14    -0.479323606699E+03   -0.32943E-02   -0.32938E-02  3584   0.293E-02 0.419E-05
 gam= 0.270 trial= 0.445  step= 0.536 mean= 0.445
 gam= 0.429 g(H,U,f)=  0.118E-02 0.745E-04 0.000E+00 ort(H,U,f) =-0.331E-03 0.253E-03 0.000E+00
CGA:  15    -0.479324389679E+03   -0.78298E-03   -0.78647E-03  3584   0.126E-02-0.778E-04
 gam= 0.429 trial= 0.450  step= 0.376 mean= 0.450
 gam= 0.311 g(H,U,f)=  0.355E-03 0.360E-04 0.000E+00 ort(H,U,f) =-0.763E-04 0.120E-03 0.000E+00
CGA:  16    -0.479324618401E+03   -0.22872E-03   -0.23033E-03  3584   0.391E-03 0.436E-04
 gam= 0.311 trial= 0.446  step= 0.618 mean= 0.446
 gam= 0.332 g(H,U,f)=  0.122E-03 0.785E-05 0.000E+00 ort(H,U,f) =-0.523E-04 0.320E-04 0.000E+00
CGA:  17    -0.479324741589E+03   -0.12319E-03   -0.12493E-03  3584   0.130E-03-0.203E-04
 gam= 0.332 trial= 0.455  step= 0.682 mean= 0.455
 gam= 0.396 g(H,U,f)=  0.503E-04 0.125E-05 0.000E+00 ort(H,U,f) =-0.122E-04 0.557E-05 0.000E+00
CGA:  18    -0.479324782854E+03   -0.41265E-04   -0.42016E-04  3584   0.515E-04-0.660E-05
 gam= 0.396 trial= 0.466  step= 0.375 mean= 0.466
 gam= 0.367 g(H,U,f)=  0.184E-04 0.507E-06 0.000E+00 ort(H,U,f) = 0.620E-05 0.184E-05 0.000E+00
CGA:  19    -0.479324791664E+03   -0.88101E-05   -0.91753E-05  3584   0.189E-04 0.804E-05
 gam= 0.367 trial= 0.462  step= 0.548 mean= 0.462
 gam= 0.535 g(H,U,f)=  0.994E-05 0.164E-06 0.297-303 ort(H,U,f) =-0.330E-05 0.360E-06 0.324-303
CGA:  20    -0.479324797523E+03   -0.58583E-05   -0.59850E-05  3584   0.101E-04-0.294E-05
 gam= 0.535 trial= 0.466  step= 0.554 mean= 0.466
 gam= 0.449 g(H,U,f)=  0.446E-05 0.830E-07 0.830-194 ort(H,U,f) = 0.534E-07 0.472E-08 0.204-193
CGA:  21    -0.479324799888E+03   -0.23658E-05   -0.23635E-05  3584   0.454E-05 0.581E-07
 gam= 0.449 trial= 0.470  step= 0.356 mean= 0.470
 gam= 0.431 g(H,U,f)=  0.190E-05 0.582E-07 0.209-146 ort(H,U,f) = 0.119E-05 0.253E-07 0.653-146
CGA:  22    -0.479324800632E+03   -0.74393E-06   -0.81330E-06  3584   0.196E-05 0.122E-05
 gam= 0.431 trial= 0.465  step= 0.744 mean= 0.465
 gam= 0.000 g(H,U,f)=  0.273E-05 0.350E-07 0.194E-81 ort(H,U,f) =-0.114E-05 0.309E-07 0.123E-80
CGA:  23    -0.479324801400E+03   -0.76808E-06   -0.92285E-06  3584   0.276E-05-0.111E-05
 gam= 0.000 trial= 0.479  step= 0.248 mean= 0.479
 gam= 0.181 g(H,U,f)=  0.475E-06 0.256E-07 0.114E-74 ort(H,U,f) = 0.722E-06 0.296E-07 0.142E-74
CGA:  24    -0.479324801656E+03   -0.25539E-06   -0.34214E-06  3584   0.501E-06 0.752E-06
 gam= 0.181 trial= 0.467  step= 0.571 mean= 0.467
 gam= 0.938 g(H,U,f)=  0.455E-06 0.144E-07 0.355E-58 ort(H,U,f) =-0.153E-06 0.230E-07 0.617E-58
CGA:  25    -0.479324801831E+03   -0.17516E-06   -0.18205E-06  3584   0.470E-06-0.130E-06
 gam= 0.938 trial= 0.472  step= 0.487 mean= 0.472
 gam= 1.006 g(H,U,f)=  0.468E-06 0.404E-08 0.897E-39 ort(H,U,f) = 0.475E-08 0.185E-07 0.525E-38
CGA:  26    -0.479324801916E+03   -0.84707E-07   -0.84597E-07  3584   0.473E-06 0.232E-07
 gam= 1.006 trial= 0.473  step= 0.311 mean= 0.473
 gam= 0.600 g(H,U,f)=  0.283E-06 0.379E-09 0.121E-27 ort(H,U,f) = 0.175E-06 0.509E-08 0.158E-25
CGA:  27    -0.479324801978E+03   -0.62519E-07   -0.77125E-07  3584   0.283E-06 0.180E-06
 gam= 0.600 trial= 0.465  step= 0.476 mean= 0.465
 gam= 0.684 g(H,U,f)=  0.193E-06 0.113E-08 0.000E+00 ort(H,U,f) =-0.137E-07-0.717E-08 0.000E+00
CGA:  28    -0.479324802071E+03   -0.92830E-07   -0.93016E-07  3584   0.194E-06-0.208E-07
 gam= 0.684 trial= 0.465  step=-0.817 mean= 0.465
 BOPT < 0, no correction made
 gam= 0.891 g(H,U,f)=  0.170E-06 0.280E-08 0.000E+00 ort(H,U,f) = 0.224E-07-0.657E-08 0.000E+00
CGA:  29    -0.479324802178E+03   -0.10736E-06    0.73415E-07  3584   0.173E-06 0.158E-07
 gam= 0.891 trial= 0.465  step= 0.548 mean= 0.465
 gam= 0.957 g(H,U,f)=  0.161E-06 0.435E-08 0.000E+00 ort(H,U,f) =-0.660E-08-0.395E-08 0.000E+00
CGA:  30    -0.479324802229E+03   -0.50652E-07   -0.51204E-07  3584   0.165E-06-0.105E-07
 gam= 0.957 trial= 0.470  step= 0.217 mean= 0.470
 gam= 0.000 g(H,U,f)=  0.116E-06 0.437E-08 0.000E+00 ort(H,U,f) = 0.862E-07 0.514E-09 0.000E+00
CGA:  31    -0.479324802235E+03   -0.59226E-08   -0.16811E-07  3584   0.121E-06 0.867E-07
 gam= 0.000 trial= 0.457  step= 0.396 mean= 0.457
 gam= 0.228 g(H,U,f)=  0.244E-07 0.309E-08 0.000E+00 ort(H,U,f) = 0.196E-07 0.365E-08 0.000E+00
CGA:  32    -0.479324802258E+03   -0.23210E-07   -0.23902E-07  3584   0.275E-07 0.233E-07
 gam= 0.228 trial= 0.454  step= 0.161 mean= 0.454
 gam= 0.000 g(H,U,f)=  0.169E-07 0.262E-08 0.000E+00 ort(H,U,f) = 0.224E-07 0.361E-08 0.000E+00
CGA:  33    -0.479324802257E+03    0.12187E-08   -0.26457E-08  3584   0.195E-07 0.260E-07
 gam= 0.000 trial= 0.439  step= 0.271 mean= 0.439
   1 F= -.47932480E+03 E0= -.47932480E+03  d E =0.000000E+00
Application 22292928 resources: utime ~29792327s, stime ~111053s, Rss ~322368, inblocks ~42216395, outblocks ~15501181
