 running on 1344 total cores
 distrk:  each k-point on  192 cores,    7 groups
 distr:  one band on   12 cores,   16 groups
 using from now: INCAR     
 vasp.5.4.1 24Jun15 (build Nov 25 2015 16:01:35) complex                        
  
 POSCAR found type information on POSCAR  C  N  H  Pb I 
 POSCAR found :  5 types and      96 ions
 scaLAPACK will be used

 ----------------------------------------------------------------------------- 
|                                                                             |
|           W    W    AA    RRRRR   N    N  II  N    N   GGGG   !!!           |
|           W    W   A  A   R    R  NN   N  II  NN   N  G    G  !!!           |
|           W    W  A    A  R    R  N N  N  II  N N  N  G       !!!           |
|           W WW W  AAAAAA  RRRRR   N  N N  II  N  N N  G  GGG   !            |
|           WW  WW  A    A  R   R   N   NN  II  N   NN  G    G                |
|           W    W  A    A  R    R  N    N  II  N    N   GGGG   !!!           |
|                                                                             |
|      For optimal performance we recommend to set                            |
|        NCORE= 4 - approx SQRT( number of cores)                             |
|      NCORE specifies how many cores store one orbital (NPAR=cpu/NCORE).     |
|      This setting can  greatly improve the performance of VASP for DFT.     |
|      The default, NPAR=number of cores might be grossly inefficient         |
|      on modern multi-core architectures or massively parallel machines.     |
|      Do your own testing !!!!                                               |
|      Unfortunately you need to use the default for GW and RPA calculations. |
|      (for HF NCORE is supported but not extensively tested yet)             |
|                                                                             |
 ----------------------------------------------------------------------------- 


 ----------------------------------------------------------------------------- 
|                                                                             |
|           W    W    AA    RRRRR   N    N  II  N    N   GGGG   !!!           |
|           W    W   A  A   R    R  NN   N  II  NN   N  G    G  !!!           |
|           W    W  A    A  R    R  N N  N  II  N N  N  G       !!!           |
|           W WW W  AAAAAA  RRRRR   N  N N  II  N  N N  G  GGG   !            |
|           WW  WW  A    A  R   R   N   NN  II  N   NN  G    G                |
|           W    W  A    A  R    R  N    N  II  N    N   GGGG   !!!           |
|                                                                             |
|      You have enabled k-point parallelism (KPAR>1).                         |
|      This developmental code was originally  written by Paul Kent at ORNL,  |
|      and carefully double checked in Vienna.                                |
|      GW as well as linear response parallelism added by Martijn Marsman     |
|      and Georg Kresse.                                                      |
|      Carefully verify results versus KPAR=1.                                |
|      Report problems to Paul Kent and Vienna.                               |
|                                                                             |
 ----------------------------------------------------------------------------- 


 ----------------------------------------------------------------------------- 
|                                                                             |
|  ADVICE TO THIS USER RUNNING 'VASP/VAMP'   (HEAR YOUR MASTER'S VOICE ...):  |
|                                                                             |
|      You have a (more or less) 'large supercell' and for larger cells       |
|      it might be more efficient to use real space projection opertators     |
|      So try LREAL= Auto  in the INCAR   file.                               |
|      Mind: At the moment your POTCAR file does not contain real space       |
|       projectors, and has to be modified,  BUT if you                       |
|      want to do an extremely  accurate calculation you might also keep the  |
|      reciprocal projection scheme          (i.e. LREAL=.FALSE.)             |
|                                                                             |
 ----------------------------------------------------------------------------- 

 LDA part: xc-table for Pade appr. of Perdew
 POSCAR, INCAR and KPOINTS ok, starting setup
 WARNING: small aliasing (wrap around) errors must be expected
 FFT: planning ...
 WAVECAR not read
  WARNING: DENMP: can't reach specified precision
  Number of Electrons is NELECT =   399.999999999859     
 entering main loop
       N       E                     dE             d eps       ncg     rms          ort
DAV:   1     0.347444324923E+05    0.34744E+05   -0.11440E+06  3584   0.486E+03
DAV:   2     0.864326075671E+04   -0.26101E+05   -0.25374E+05  3584   0.168E+03
DAV:   3     0.178716203615E+04   -0.68561E+04   -0.67522E+04  3584   0.500E+02
DAV:   4     0.437879124175E+03   -0.13493E+04   -0.12953E+04  3584   0.207E+02
DAV:   5     0.274106265664E+03   -0.16377E+03   -0.16114E+03  3584   0.775E+01
 gam= 0.000 g(H,U,f)=  0.105E+03 0.521E+01 0.000E+00 ort(H,U,f) = 0.000E+00 0.000E+00 0.000E+00
SDA:   6    -0.449199080523E+03   -0.72331E+03   -0.16114E+03  3584   0.110E+03 0.000E+00
 gam= 0.000 trial= 0.400  step= 0.337 mean= 0.400
 gam= 0.352 g(H,U,f)=  0.370E+02 0.170E+01 0.000E+00 ort(H,U,f) =-0.202E+01 0.264E+01 0.000E+00
CGA:   7    -0.467687001095E+03   -0.18488E+02   -0.18553E+02  3584   0.387E+02 0.620E+00
 gam= 0.352 trial= 0.397  step= 0.391 mean= 0.397
 gam= 0.211 g(H,U,f)=  0.775E+01 0.407E+00 0.000E+00 ort(H,U,f) =-0.987E+00 0.998E+00 0.000E+00
CGA:   8    -0.475307100391E+03   -0.76201E+01   -0.76204E+01  3584   0.816E+01 0.104E-01
 gam= 0.211 trial= 0.397  step= 0.670 mean= 0.397
 gam= 0.334 g(H,U,f)=  0.258E+01 0.151E+00 0.000E+00 ort(H,U,f) =-0.348E+00 0.339E+00 0.000E+00
CGA:   9    -0.478042322052E+03   -0.27352E+01   -0.27349E+01  3584   0.273E+01-0.879E-02
 gam= 0.334 trial= 0.410  step= 0.635 mean= 0.410
 gam= 0.371 g(H,U,f)=  0.966E+00 0.452E-01 0.000E+00 ort(H,U,f) =-0.140E+00 0.132E+00 0.000E+00
CGA:  10    -0.478906637148E+03   -0.86432E+00   -0.86520E+00  3584   0.101E+01-0.821E-02
 gam= 0.371 trial= 0.421  step= 0.437 mean= 0.421
 gam= 0.399 g(H,U,f)=  0.384E+00 0.189E-01 0.000E+00 ort(H,U,f) =-0.551E-01 0.536E-01 0.000E+00
CGA:  11    -0.479126829926E+03   -0.22019E+00   -0.22021E+00  3584   0.403E+00-0.150E-02
 gam= 0.399 trial= 0.422  step= 0.553 mean= 0.422
 gam= 0.250 g(H,U,f)=  0.964E-01 0.419E-02 0.173-243 ort(H,U,f) =-0.184E-01 0.167E-01 0.952-243
CGA:  12    -0.479237948919E+03   -0.11112E+00   -0.11123E+00  3584   0.101E+00-0.169E-02
 gam= 0.250 trial= 0.429  step= 0.688 mean= 0.429
 gam= 0.303 g(H,U,f)=  0.295E-01 0.998E-03 0.135E-35 ort(H,U,f) =-0.420E-02 0.374E-02 0.877E-35
CGA:  13    -0.479272334171E+03   -0.34385E-01   -0.34449E-01  3584   0.305E-01-0.459E-03
 gam= 0.303 trial= 0.442  step= 0.653 mean= 0.442
 gam= 0.394 g(H,U,f)=  0.117E-01 0.286E-03 0.000E+00 ort(H,U,f) =-0.102E-02 0.977E-03 0.000E+00
CGA:  14    -0.479282241888E+03   -0.99077E-02   -0.99140E-02  3584   0.120E-01-0.479E-04
 gam= 0.394 trial= 0.452  step= 0.465 mean= 0.452
 gam= 0.497 g(H,U,f)=  0.588E-02 0.856E-04 0.000E+00 ort(H,U,f) =-0.486E-03 0.242E-03 0.000E+00
CGA:  15    -0.479285028387E+03   -0.27865E-02   -0.27881E-02  3584   0.596E-02-0.243E-03
 gam= 0.497 trial= 0.453  step= 0.494 mean= 0.453
 gam= 0.303 g(H,U,f)=  0.177E-02 0.300E-04 0.453-293 ort(H,U,f) =-0.276E-04 0.691E-04-0.219-292
CGA:  16    -0.479286471696E+03   -0.14433E-02   -0.14425E-02  3584   0.180E-02 0.416E-04
 gam= 0.303 trial= 0.455  step= 0.745 mean= 0.455
 gam= 0.383 g(H,U,f)=  0.679E-03 0.122E-04 0.000E+00 ort(H,U,f) =-0.592E-04 0.473E-05 0.000E+00
CGA:  17    -0.479287141069E+03   -0.66937E-03   -0.67731E-03  3584   0.691E-03-0.544E-04
 gam= 0.383 trial= 0.469  step= 0.678 mean= 0.469
 gam= 0.375 g(H,U,f)=  0.252E-03 0.660E-05 0.000E+00 ort(H,U,f) = 0.287E-05 0.398E-05 0.000E+00
CGA:  18    -0.479287368986E+03   -0.22792E-03   -0.22722E-03  3584   0.259E-03 0.685E-05
 gam= 0.375 trial= 0.480  step= 0.659 mean= 0.480
 gam= 0.399 g(H,U,f)=  0.997E-04 0.370E-05 0.000E+00 ort(H,U,f) =-0.794E-05 0.439E-05 0.000E+00
CGA:  19    -0.479287454861E+03   -0.85875E-04   -0.86191E-04  3584   0.103E-03-0.355E-05
 gam= 0.399 trial= 0.489  step= 0.506 mean= 0.489
 gam= 0.411 g(H,U,f)=  0.408E-04 0.164E-05 0.000E+00 ort(H,U,f) = 0.930E-05 0.306E-05 0.000E+00
CGA:  20    -0.479287480757E+03   -0.25895E-04   -0.25791E-04  3584   0.425E-04 0.124E-04
 gam= 0.411 trial= 0.490  step= 0.676 mean= 0.490
 gam= 0.775 g(H,U,f)=  0.323E-04 0.648E-06 0.462E-86 ort(H,U,f) =-0.112E-04 0.154E-05 0.259E-85
CGA:  21    -0.479287495931E+03   -0.15175E-04   -0.16071E-04  3584   0.329E-04-0.964E-05
 gam= 0.775 trial= 0.499  step= 0.384 mean= 0.499
 gam= 0.336 g(H,U,f)=  0.109E-04 0.180E-06 0.000E+00 ort(H,U,f) = 0.351E-05 0.725E-06 0.000E+00
CGA:  22    -0.479287500569E+03   -0.46375E-05   -0.48821E-05  3584   0.111E-04 0.424E-05
 gam= 0.336 trial= 0.493  step= 0.392 mean= 0.493
 gam= 0.501 g(H,U,f)=  0.547E-05 0.799E-07 0.000E+00 ort(H,U,f) = 0.189E-05 0.176E-06 0.000E+00
CGA:  23    -0.479287502916E+03   -0.23473E-05   -0.24515E-05  3584   0.555E-05 0.207E-05
 gam= 0.501 trial= 0.488  step= 0.645 mean= 0.488
 gam= 0.000 g(H,U,f)=  0.666E-05 0.267E-07 0.000E+00 ort(H,U,f) =-0.392E-05 0.166E-07 0.000E+00
CGA:  24    -0.479287504734E+03   -0.18185E-05   -0.21249E-05  3584   0.669E-05-0.390E-05
 gam= 0.000 trial= 0.496  step= 0.202 mean= 0.496
 gam= 0.209 g(H,U,f)=  0.137E-05 0.215E-07 0.000E+00 ort(H,U,f) = 0.198E-05 0.187E-07 0.000E+00
CGA:  25    -0.479287505114E+03   -0.37978E-06   -0.67485E-06  3584   0.140E-05 0.200E-05
 gam= 0.209 trial= 0.481  step= 0.345 mean= 0.481
 gam= 0.423 g(H,U,f)=  0.572E-06 0.186E-07 0.000E+00 ort(H,U,f) = 0.230E-06 0.221E-07 0.000E+00
CGA:  26    -0.479287505411E+03   -0.29641E-06   -0.31348E-06  3584   0.590E-06 0.252E-06
 gam= 0.423 trial= 0.475  step=-0.521 mean= 0.475
 BOPT < 0, no correction made
 gam= 0.781 g(H,U,f)=  0.453E-06 0.824E-08 0.000E+00 ort(H,U,f) =-0.166E-06 0.168E-07 0.000E+00
CGA:  27    -0.479287505892E+03   -0.48120E-06    0.18136E-06  3584   0.461E-06-0.149E-06
 gam= 0.781 trial= 0.475  step= 3.177 mean= 0.475
 gam= 0.781 trial= 3.085  step= 3.085 mean= 0.749
 gam= 0.000 g(H,U,f)=  0.583E-05 0.511E-07 0.000E+00 ort(H,U,f) =-0.147E-05-0.553E-07 0.000E+00
CGA:  28    -0.479287504440E+03    0.14517E-05   -0.78338E-06  3584   0.588E-05-0.152E-05
 gam= 0.000 trial= 0.866  step= 0.462 mean= 0.866
 gam= 0.221 g(H,U,f)=  0.127E-05 0.315E-07 0.000E+00 ort(H,U,f) = 0.137E-06 0.399E-07 0.000E+00
CGA:  29    -0.479287505764E+03   -0.13242E-05   -0.13599E-05  3584   0.130E-05 0.177E-06
 gam= 0.221 trial= 0.845  step= 0.532 mean= 0.845
 gam= 0.233 g(H,U,f)=  0.287E-06 0.161E-07 0.000E+00 ort(H,U,f) = 0.245E-06 0.288E-07 0.000E+00
CGA:  30    -0.479287506078E+03   -0.31326E-06   -0.35621E-06  3584   0.303E-06 0.274E-06
 gam= 0.233 trial= 0.830  step= 0.614 mean= 0.830
 gam= 0.449 g(H,U,f)=  0.129E-06 0.717E-08 0.000E+00 ort(H,U,f) = 0.666E-07 0.152E-07 0.000E+00
CGA:  31    -0.479287506181E+03   -0.10375E-06   -0.11257E-06  3584   0.136E-06 0.818E-07
 gam= 0.449 trial= 0.819  step= 0.388 mean= 0.819
 gam= 0.000 g(H,U,f)=  0.473E-07 0.345E-08 0.000E+00 ort(H,U,f) = 0.756E-07 0.968E-08 0.000E+00
CGA:  32    -0.479287506196E+03   -0.15003E-07   -0.33490E-07  3584   0.507E-07 0.853E-07
 gam= 0.000 trial= 0.797  step= 0.562 mean= 0.797
 gam= 0.513 g(H,U,f)=  0.240E-07 0.204E-08 0.000E+00 ort(H,U,f) = 0.182E-07 0.265E-08 0.000E+00
CGA:  33    -0.479287506208E+03   -0.11813E-07   -0.14266E-07  3584   0.260E-07 0.208E-07
 gam= 0.513 trial= 0.786  step= 0.293 mean= 0.786
 gam= 0.000 g(H,U,f)=  0.150E-07 0.131E-08 0.000E+00 ort(H,U,f) = 0.255E-07 0.272E-08 0.000E+00
CGA:  34    -0.479287506207E+03    0.16007E-08   -0.53783E-08  3584   0.163E-07 0.282E-07
 gam= 0.000 trial= 0.761  step= 0.352 mean= 0.761
   1 F= -.47928751E+03 E0= -.47928751E+03  d E =0.000000E+00
Application 22296174 resources: utime ~25261623s, stime ~33850s, Rss ~383820, inblocks ~18925456, outblocks ~10967580
