       N       E                     dE             d eps       ncg     rms          ort
DAV:   1     0.347444324923E+05    0.34744E+05   -0.11440E+06  3584   0.486E+03
DAV:   2     0.864326075671E+04   -0.26101E+05   -0.25374E+05  3584   0.168E+03
DAV:   3     0.178716203615E+04   -0.68561E+04   -0.67522E+04  3584   0.500E+02
DAV:   4     0.437879124175E+03   -0.13493E+04   -0.12953E+04  3584   0.207E+02
DAV:   5     0.274106265664E+03   -0.16377E+03   -0.16114E+03  3584   0.775E+01
SDA:   6    -0.449199080523E+03   -0.72331E+03   -0.16114E+03  3584   0.110E+03 0.000E+00
CGA:   7    -0.467687001095E+03   -0.18488E+02   -0.18553E+02  3584   0.387E+02 0.620E+00
CGA:   8    -0.475307100391E+03   -0.76201E+01   -0.76204E+01  3584   0.816E+01 0.104E-01
CGA:   9    -0.478042322052E+03   -0.27352E+01   -0.27349E+01  3584   0.273E+01-0.879E-02
CGA:  10    -0.478906637148E+03   -0.86432E+00   -0.86520E+00  3584   0.101E+01-0.821E-02
CGA:  11    -0.479126829926E+03   -0.22019E+00   -0.22021E+00  3584   0.403E+00-0.150E-02
CGA:  12    -0.479237948919E+03   -0.11112E+00   -0.11123E+00  3584   0.101E+00-0.169E-02
CGA:  13    -0.479272334171E+03   -0.34385E-01   -0.34449E-01  3584   0.305E-01-0.459E-03
CGA:  14    -0.479282241888E+03   -0.99077E-02   -0.99140E-02  3584   0.120E-01-0.479E-04
CGA:  15    -0.479285028387E+03   -0.27865E-02   -0.27881E-02  3584   0.596E-02-0.243E-03
CGA:  16    -0.479286471696E+03   -0.14433E-02   -0.14425E-02  3584   0.180E-02 0.416E-04
CGA:  17    -0.479287141069E+03   -0.66937E-03   -0.67731E-03  3584   0.691E-03-0.544E-04
CGA:  18    -0.479287368986E+03   -0.22792E-03   -0.22722E-03  3584   0.259E-03 0.685E-05
CGA:  19    -0.479287454861E+03   -0.85875E-04   -0.86191E-04  3584   0.103E-03-0.355E-05
CGA:  20    -0.479287480757E+03   -0.25895E-04   -0.25791E-04  3584   0.425E-04 0.124E-04
CGA:  21    -0.479287495931E+03   -0.15175E-04   -0.16071E-04  3584   0.329E-04-0.964E-05
CGA:  22    -0.479287500569E+03   -0.46375E-05   -0.48821E-05  3584   0.111E-04 0.424E-05
CGA:  23    -0.479287502916E+03   -0.23473E-05   -0.24515E-05  3584   0.555E-05 0.207E-05
CGA:  24    -0.479287504734E+03   -0.18185E-05   -0.21249E-05  3584   0.669E-05-0.390E-05
CGA:  25    -0.479287505114E+03   -0.37978E-06   -0.67485E-06  3584   0.140E-05 0.200E-05
CGA:  26    -0.479287505411E+03   -0.29641E-06   -0.31348E-06  3584   0.590E-06 0.252E-06
CGA:  27    -0.479287505892E+03   -0.48120E-06    0.18136E-06  3584   0.461E-06-0.149E-06
CGA:  28    -0.479287504440E+03    0.14517E-05   -0.78338E-06  3584   0.588E-05-0.152E-05
CGA:  29    -0.479287505764E+03   -0.13242E-05   -0.13599E-05  3584   0.130E-05 0.177E-06
CGA:  30    -0.479287506078E+03   -0.31326E-06   -0.35621E-06  3584   0.303E-06 0.274E-06
CGA:  31    -0.479287506181E+03   -0.10375E-06   -0.11257E-06  3584   0.136E-06 0.818E-07
CGA:  32    -0.479287506196E+03   -0.15003E-07   -0.33490E-07  3584   0.507E-07 0.853E-07
CGA:  33    -0.479287506208E+03   -0.11813E-07   -0.14266E-07  3584   0.260E-07 0.208E-07
CGA:  34    -0.479287506207E+03    0.16007E-08   -0.53783E-08  3584   0.163E-07 0.282E-07
   1 F= -.47928751E+03 E0= -.47928751E+03  d E =0.000000E+00
