 vasp.5.4.1 24Jun15 (build Nov 25 2015 16:01:35) complex                        
  
 executed on         CrayXC-Intel date 2016.06.26  16:04:57
 running on 1344 total cores
 distrk:  each k-point on  192 cores,    7 groups
 distr:  one band on NCORES_PER_BAND=  12 cores,   16 groups


--------------------------------------------------------------------------------------------------------


 INCAR:
 POTCAR:    PAW_PBE C 08Apr2002                   
 POTCAR:    PAW_PBE N 08Apr2002                   
 POTCAR:    PAW_PBE H 15Jun2001                   
 POTCAR:    PAW_PBE Pb_d 06Sep2000                
 POTCAR:    PAW_PBE I 08Apr2002                   

 ----------------------------------------------------------------------------- 
|                                                                             |
|           W    W    AA    RRRRR   N    N  II  N    N   GGGG   !!!           |
|           W    W   A  A   R    R  NN   N  II  NN   N  G    G  !!!           |
|           W    W  A    A  R    R  N N  N  II  N N  N  G       !!!           |
|           W WW W  AAAAAA  RRRRR   N  N N  II  N  N N  G  GGG   !            |
|           WW  WW  A    A  R   R   N   NN  II  N   NN  G    G                |
|           W    W  A    A  R    R  N    N  II  N    N   GGGG   !!!           |
|                                                                             |
|      For optimal performance we recommend to set                            |
|        NCORE= 4 - approx SQRT( number of cores)                             |
|      NCORE specifies how many cores store one orbital (NPAR=cpu/NCORE).     |
|      This setting can  greatly improve the performance of VASP for DFT.     |
|      The default, NPAR=number of cores might be grossly inefficient         |
|      on modern multi-core architectures or massively parallel machines.     |
|      Do your own testing !!!!                                               |
|      Unfortunately you need to use the default for GW and RPA calculations. |
|      (for HF NCORE is supported but not extensively tested yet)             |
|                                                                             |
 ----------------------------------------------------------------------------- 


 ----------------------------------------------------------------------------- 
|                                                                             |
|           W    W    AA    RRRRR   N    N  II  N    N   GGGG   !!!           |
|           W    W   A  A   R    R  NN   N  II  NN   N  G    G  !!!           |
|           W    W  A    A  R    R  N N  N  II  N N  N  G       !!!           |
|           W WW W  AAAAAA  RRRRR   N  N N  II  N  N N  G  GGG   !            |
|           WW  WW  A    A  R   R   N   NN  II  N   NN  G    G                |
|           W    W  A    A  R    R  N    N  II  N    N   GGGG   !!!           |
|                                                                             |
|      You have enabled k-point parallelism (KPAR>1).                         |
|      This developmental code was originally  written by Paul Kent at ORNL,  |
|      and carefully double checked in Vienna.                                |
|      GW as well as linear response parallelism added by Martijn Marsman     |
|      and Georg Kresse.                                                      |
|      Carefully verify results versus KPAR=1.                                |
|      Report problems to Paul Kent and Vienna.                               |
|                                                                             |
 ----------------------------------------------------------------------------- 

 POTCAR:    PAW_PBE C 08Apr2002                   
   VRHFIN =C: s2p2                                                              
   LEXCH  = PE                                                                  
   EATOM  =   147.1560 eV,   10.8157 Ry                                         
                                                                                
   TITEL  = PAW_PBE C 08Apr2002                                                 
   LULTRA =        F    use ultrasoft PP ?                                      
   IUNSCR =        1    unscreen: 0-lin 1-nonlin 2-no                           
   RPACOR =    1.200    partial core radius                                     
   POMASS =   12.011; ZVAL   =    4.000    mass and valenz                      
   RCORE  =    1.500    outmost cutoff radius                                   
   RWIGS  =    1.630; RWIGS  =    0.863    wigner-seitz radius (au A)           
   ENMAX  =  400.000; ENMIN  =  300.000 eV                                      
   ICORE  =        2    local potential                                         
   LCOR   =        T    correct aug charges                                     
   LPAW   =        T    paw PP                                                  
   EAUG   =  644.873                                                            
   DEXC   =    0.000                                                            
   RMAX   =    1.529    core radius for proj-oper                               
   RAUG   =    1.300    factor for augmentation sphere                          
   RDEP   =    1.501    radius for radial grids                                 
   RDEPT  =    1.300    core radius for aug-charge                              
                                                                                
   Atomic configuration                                                         
    4 entries                                                                   
     n  l   j            E        occ.                                          
     1  0  0.50      -273.3789   2.0000                                         
     2  0  0.50       -13.7508   2.0000                                         
     2  1  0.50        -5.2854   2.0000                                         
     3  2  1.50        -5.4423   0.0000                                         
   Description                                                                  
     l       E           TYP  RCUT    TYP  RCUT                                 
     0    -13.7508458     23  1.200                                             
     0     -8.2022199     23  1.200                                             
     1     -5.2854383     23  1.500                                             
     1     34.0145650     23  1.500                                             
     2     -5.4423304      7  1.500                                             
  local pseudopotential read in
  partial core-charges read in
  partial kinetic energy density read in
  atomic valenz-charges read in
  non local Contribution for L=           0  read in
    real space projection operators read in
  non local Contribution for L=           0  read in
    real space projection operators read in
  non local Contribution for L=           1  read in
    real space projection operators read in
  non local Contribution for L=           1  read in
    real space projection operators read in
    PAW grid and wavefunctions read in
 
   number of l-projection  operators is LMAX  =           4
   number of lm-projection operators is LMMAX =           8
 
 POTCAR:    PAW_PBE N 08Apr2002                   
   VRHFIN =N: s2p3                                                              
   LEXCH  = PE                                                                  
   EATOM  =   264.5486 eV,   19.4438 Ry                                         
                                                                                
   TITEL  = PAW_PBE N 08Apr2002                                                 
   LULTRA =        F    use ultrasoft PP ?                                      
   IUNSCR =        1    unscreen: 0-lin 1-nonlin 2-no                           
   RPACOR =    1.200    partial core radius                                     
   POMASS =   14.001; ZVAL   =    5.000    mass and valenz                      
   RCORE  =    1.500    outmost cutoff radius                                   
   RWIGS  =    1.400; RWIGS  =    0.741    wigner-seitz radius (au A)           
   ENMAX  =  400.000; ENMIN  =  300.000 eV                                      
   ICORE  =        2    local potential                                         
   LCOR   =        T    correct aug charges                                     
   LPAW   =        T    paw PP                                                  
   EAUG   =  627.112                                                            
   DEXC   =    0.000                                                            
   RMAX   =    1.529    core radius for proj-oper                               
   RAUG   =    1.300    factor for augmentation sphere                          
   RDEP   =    1.514    radius for radial grids                                 
   RDEPT  =    1.338    core radius for aug-charge                              
                                                                                
   Atomic configuration                                                         
    4 entries                                                                   
     n  l   j            E        occ.                                          
     1  0  0.50      -384.7179   2.0000                                         
     2  0  0.50       -18.5828   2.0000                                         
     2  1  0.50        -7.0898   3.0000                                         
     3  2  1.50        -6.8029   0.0000                                         
   Description                                                                  
     l       E           TYP  RCUT    TYP  RCUT                                 
     0    -18.5828119     23  1.200                                             
     0    -13.5018863     23  1.200                                             
     1     -7.0897853     23  1.500                                             
     1      9.5240782     23  1.500                                             
     2     -6.8029130      7  1.500                                             
  local pseudopotential read in
  partial core-charges read in
  partial kinetic energy density read in
  atomic valenz-charges read in
  non local Contribution for L=           0  read in
    real space projection operators read in
  non local Contribution for L=           0  read in
    real space projection operators read in
  non local Contribution for L=           1  read in
    real space projection operators read in
  non local Contribution for L=           1  read in
    real space projection operators read in
    PAW grid and wavefunctions read in
 
   number of l-projection  operators is LMAX  =           4
   number of lm-projection operators is LMMAX =           8
 
 POTCAR:    PAW_PBE H 15Jun2001                   
   VRHFIN =H: ultrasoft test                                                    
   LEXCH  = PE                                                                  
   EATOM  =    12.4884 eV,    0.9179 Ry                                         
                                                                                
   TITEL  = PAW_PBE H 15Jun2001                                                 
   LULTRA =        F    use ultrasoft PP ?                                      
   IUNSCR =        0    unscreen: 0-lin 1-nonlin 2-no                           
   RPACOR =    0.000    partial core radius                                     
   POMASS =    1.000; ZVAL   =    1.000    mass and valenz                      
   RCORE  =    1.100    outmost cutoff radius                                   
   RWIGS  =    0.700; RWIGS  =    0.370    wigner-seitz radius (au A)           
   ENMAX  =  250.000; ENMIN  =  200.000 eV                                      
   RCLOC  =    0.701    cutoff for local pot                                    
   LCOR   =        T    correct aug charges                                     
   LPAW   =        T    paw PP                                                  
   EAUG   =  400.000                                                            
   RMAX   =    1.123    core radius for proj-oper                               
   RAUG   =    1.200    factor for augmentation sphere                          
   RDEP   =    1.112    radius for radial grids                                 
   RDEPT  =    0.926    core radius for aug-charge                              
                                                                                
   Atomic configuration                                                         
    2 entries                                                                   
     n  l   j            E        occ.                                          
     1  0  0.50        -6.4927   1.0000                                         
     2  1  0.50        -3.4015   0.0000                                         
   Description                                                                  
     l       E           TYP  RCUT    TYP  RCUT                                 
     0     -6.4927494     23  1.100                                             
     0      6.8029130     23  1.100                                             
     1     -4.0817478     23  1.100                                             
  local pseudopotential read in
  atomic valenz-charges read in
  non local Contribution for L=           0  read in
    real space projection operators read in
  non local Contribution for L=           0  read in
    real space projection operators read in
  non local Contribution for L=           1  read in
    real space projection operators read in
    PAW grid and wavefunctions read in
 
   number of l-projection  operators is LMAX  =           3
   number of lm-projection operators is LMMAX =           5
 
 POTCAR:    PAW_PBE Pb_d 06Sep2000                
   VRHFIN =Pb:                                                                  
   LEXCH  = PE                                                                  
   EATOM  =  1661.6185 eV,  122.1255 Ry                                         
                                                                                
   TITEL  = PAW_PBE Pb_d 06Sep2000                                              
   LULTRA =        F    use ultrasoft PP ?                                      
   IUNSCR =        1    unscreen: 0-lin 1-nonlin 2-no                           
   RPACOR =    2.200    partial core radius                                     
   POMASS =  207.200; ZVAL   =   14.000    mass and valenz                      
   RCORE  =    2.500    outmost cutoff radius                                   
   RWIGS  =    3.260; RWIGS  =    1.725    wigner-seitz radius (au A)           
   ENMAX  =  237.835; ENMIN  =  178.376 eV                                      
   ICORE  =        3    local potential                                         
   LCOR   =        T    correct aug charges                                     
   LPAW   =        T    paw PP                                                  
   EAUG   =  391.914                                                            
   DEXC   =    0.000                                                            
   RMAX   =    2.565    core radius for proj-oper                               
   RAUG   =    1.300    factor for augmentation sphere                          
   RDEP   =    2.643    radius for radial grids                                 
   RDEPT  =    2.092    core radius for aug-charge                              
                                                                                
   Atomic configuration                                                         
   16 entries                                                                   
     n  l   j            E        occ.                                          
     1  0  0.50    -88091.8466   2.0000                                         
     2  0  0.50    -15753.4197   2.0000                                         
     2  1  1.50    -13508.1797   6.0000                                         
     3  0  0.50     -3781.7194   2.0000                                         
     3  1  1.50     -3138.2529   6.0000                                         
     3  2  2.50     -2483.2977  10.0000                                         
     4  0  0.50      -856.2895   2.0000                                         
     4  1  1.50      -645.4942   6.0000                                         
     4  2  2.50      -401.8768  10.0000                                         
     4  3  3.50      -132.9059  14.0000                                         
     5  0  0.50      -144.0950   2.0000                                         
     5  1  1.50       -85.7879   6.0000                                         
     5  2  2.50       -21.1769  10.0000                                         
     6  0  0.50       -12.0372   2.0000                                         
     6  1  1.50        -3.4971   2.0000                                         
     5  3  2.50        -2.7212   0.0000                                         
   Description                                                                  
     l       E           TYP  RCUT    TYP  RCUT                                 
     2    -21.1768523     23  2.500                                             
     2      1.3605826     23  2.500                                             
     0    -12.0371562     23  2.500                                             
     0     13.6058260     23  2.500                                             
     1     -3.4971339     23  2.500                                             
     1     13.6058260     23  2.500                                             
     3     -1.3605826      7  2.500                                             
  local pseudopotential read in
  partial core-charges read in
  partial kinetic energy density read in
  atomic valenz-charges read in
  non local Contribution for L=           2  read in
    real space projection operators read in
  non local Contribution for L=           2  read in
    real space projection operators read in
  non local Contribution for L=           0  read in
    real space projection operators read in
  non local Contribution for L=           0  read in
    real space projection operators read in
  non local Contribution for L=           1  read in
    real space projection operators read in
  non local Contribution for L=           1  read in
    real space projection operators read in
    PAW grid and wavefunctions read in
 
   number of l-projection  operators is LMAX  =           6
   number of lm-projection operators is LMMAX =          18
 
 POTCAR:    PAW_PBE I 08Apr2002                   
   VRHFIN =I : s2p5                                                             
   LEXCH  = PE                                                                  
   EATOM  =   315.8678 eV,   23.2156 Ry                                         
                                                                                
   TITEL  = PAW_PBE I 08Apr2002                                                 
   LULTRA =        F    use ultrasoft PP ?                                      
   IUNSCR =        1    unscreen: 0-lin 1-nonlin 2-no                           
   RPACOR =    2.200    partial core radius                                     
   POMASS =  126.904; ZVAL   =    7.000    mass and valenz                      
   RCORE  =    2.300    outmost cutoff radius                                   
   RWIGS  =    2.810; RWIGS  =    1.487    wigner-seitz radius (au A)           
   ENMAX  =  175.647; ENMIN  =  131.735 eV                                      
   ICORE  =        3    local potential                                         
   LCOR   =        T    correct aug charges                                     
   LPAW   =        T    paw PP                                                  
   EAUG   =  370.139                                                            
   DEXC   =    0.000                                                            
   RMAX   =    2.359    core radius for proj-oper                               
   RAUG   =    1.300    factor for augmentation sphere                          
   RDEP   =    2.392    radius for radial grids                                 
   RDEPT  =    2.170    core radius for aug-charge                              
                                                                                
   Atomic configuration                                                         
   13 entries                                                                   
     n  l   j            E        occ.                                          
     1  0  0.50    -32976.3739   2.0000                                         
     2  0  0.50     -5094.5933   2.0000                                         
     2  1  1.50     -4572.0131   6.0000                                         
     3  0  0.50     -1028.2813   2.0000                                         
     3  1  1.50      -859.0250   6.0000                                         
     3  2  2.50      -605.7620  10.0000                                         
     4  0  0.50      -180.5540   2.0000                                         
     4  1  1.50      -127.5306   6.0000                                         
     4  2  2.50       -50.2720  10.0000                                         
     5  0  0.50       -17.4058   2.0000                                         
     5  1  0.50        -7.0851   5.0000                                         
     5  2  1.50        -7.0750   0.0000                                         
     4  3  2.50        -7.0750   0.0000                                         
   Description                                                                  
     l       E           TYP  RCUT    TYP  RCUT                                 
     0    -17.4058016     23  2.300                                             
     0    -18.7663842     23  2.300                                             
     1     -7.0850686     23  2.300                                             
     1     -4.2150896     23  2.300                                             
     2     -7.0750295     23  2.300                                             
     3     -1.3605826     23  2.300                                             
  local pseudopotential read in
  partial core-charges read in
  partial kinetic energy density read in
  atomic valenz-charges read in
  non local Contribution for L=           0  read in
    real space projection operators read in
  non local Contribution for L=           0  read in
    real space projection operators read in
  non local Contribution for L=           1  read in
    real space projection operators read in
  non local Contribution for L=           1  read in
    real space projection operators read in
  non local Contribution for L=           2  read in
    real space projection operators read in
    PAW grid and wavefunctions read in
 
   number of l-projection  operators is LMAX  =           5
   number of lm-projection operators is LMMAX =          13
 

 ----------------------------------------------------------------------------- 
|                                                                             |
|  ADVICE TO THIS USER RUNNING 'VASP/VAMP'   (HEAR YOUR MASTER'S VOICE ...):  |
|                                                                             |
|      You have a (more or less) 'large supercell' and for larger cells       |
|      it might be more efficient to use real space projection opertators     |
|      So try LREAL= Auto  in the INCAR   file.                               |
|      Mind: At the moment your POTCAR file does not contain real space       |
|       projectors, and has to be modified,  BUT if you                       |
|      want to do an extremely  accurate calculation you might also keep the  |
|      reciprocal projection scheme          (i.e. LREAL=.FALSE.)             |
|                                                                             |
 ----------------------------------------------------------------------------- 

  PAW_PBE C 08Apr2002                   :
 energy of atom  1       EATOM= -147.1560
 kinetic energy error for atom=    0.0032 (will be added to EATOM!!)
  PAW_PBE N 08Apr2002                   :
 energy of atom  2       EATOM= -264.5486
 kinetic energy error for atom=    0.0061 (will be added to EATOM!!)
  PAW_PBE H 15Jun2001                   :
 energy of atom  3       EATOM=  -12.4884
 kinetic energy error for atom=    0.0002 (will be added to EATOM!!)
  PAW_PBE Pb_d 06Sep2000                :
 energy of atom  4       EATOM=-1661.6185
 kinetic energy error for atom=    0.0012 (will be added to EATOM!!)
  PAW_PBE I 08Apr2002                   :
 energy of atom  5       EATOM= -315.8678
 kinetic energy error for atom=    0.0003 (will be added to EATOM!!)
 
 
 POSCAR: C N H Pb I                              
  positions in direct lattice
  No initial velocities read in
 exchange correlation table for  LEXCH =        8
   RHO(1)=    0.500       N(1)  =     2000
   RHO(2)=  100.500       N(2)  =     4000
 


--------------------------------------------------------------------------------------------------------


 ion  position               nearest neighbor table
   1  0.203  0.250  0.219-  33 1.10  25 1.10  17 1.10   9 1.49
   2  0.691  0.250  0.239-  34 1.10  26 1.10  18 1.10  10 1.49
   3  0.191  0.750  0.239-  35 1.10  27 1.10  19 1.10  11 1.49
   4  0.703  0.750  0.219-  36 1.10  28 1.10  20 1.10  12 1.49
   5  0.203  0.250  0.719-  37 1.10  29 1.10  21 1.10  13 1.49
   6  0.691  0.250  0.739-  38 1.10  30 1.10  22 1.10  14 1.49
   7  0.191  0.750  0.739-  39 1.10  31 1.10  23 1.10  15 1.49
   8  0.703  0.750  0.719-  40 1.10  32 1.10  24 1.10  16 1.49
   9  0.306  0.250  0.274-  57 1.04  41 1.05  49 1.05   1 1.49
  10  0.803  0.250  0.273-  42 1.05  50 1.05  58 1.05   2 1.49
  11  0.303  0.750  0.273-  43 1.05  51 1.05  59 1.05   3 1.49
  12  0.806  0.750  0.274-  60 1.04  44 1.05  52 1.05   4 1.49
  13  0.306  0.250  0.774-  61 1.04  45 1.05  53 1.05   5 1.49
  14  0.803  0.250  0.773-  46 1.05  54 1.05  62 1.05   6 1.49
  15  0.303  0.750  0.773-  47 1.05  55 1.05  63 1.05   7 1.49
  16  0.806  0.750  0.774-  64 1.04  48 1.05  56 1.05   8 1.49
  17  0.220  0.250  0.134-   1 1.10
  18  0.690  0.250  0.152-   2 1.10
  19  0.190  0.750  0.152-   3 1.10
  20  0.720  0.750  0.134-   4 1.10
  21  0.220  0.250  0.634-   5 1.10
  22  0.690  0.250  0.652-   6 1.10
  23  0.190  0.750  0.652-   7 1.10
  24  0.720  0.750  0.634-   8 1.10
  25  0.158  0.322  0.242-   1 1.10
  26  0.650  0.322  0.269-   2 1.10
  27  0.150  0.822  0.269-   3 1.10
  28  0.658  0.822  0.242-   4 1.10
  29  0.158  0.322  0.742-   5 1.10
  30  0.650  0.322  0.769-   6 1.10
  31  0.150  0.822  0.769-   7 1.10
  32  0.658  0.822  0.742-   8 1.10
  33  0.158  0.177  0.242-   1 1.10
  34  0.651  0.177  0.270-   2 1.10
  35  0.151  0.677  0.270-   3 1.10
  36  0.658  0.677  0.242-   4 1.10
  37  0.158  0.177  0.742-   5 1.10
  38  0.651  0.177  0.770-   6 1.10
  39  0.151  0.677  0.770-   7 1.10
  40  0.658  0.677  0.742-   8 1.10
  41  0.352  0.318  0.255-   9 1.05
  42  0.844  0.318  0.246-  10 1.05
  43  0.344  0.818  0.246-  11 1.05
  44  0.852  0.818  0.255-  12 1.05
  45  0.352  0.318  0.755-  13 1.05
  46  0.844  0.318  0.746-  14 1.05
  47  0.344  0.818  0.746-  15 1.05
  48  0.852  0.818  0.755-  16 1.05
  49  0.352  0.182  0.256-   9 1.05
  50  0.844  0.182  0.246-  10 1.05
  51  0.344  0.682  0.246-  11 1.05
  52  0.852  0.682  0.256-  12 1.05
  53  0.352  0.182  0.756-  13 1.05
  54  0.844  0.182  0.746-  14 1.05
  55  0.344  0.682  0.746-  15 1.05
  56  0.852  0.682  0.756-  16 1.05
  57  0.296  0.250  0.356-   9 1.04
  58  0.810  0.250  0.355-  10 1.05
  59  0.310  0.750  0.355-  11 1.05
  60  0.796  0.750  0.356-  12 1.04
  61  0.296  0.250  0.856-  13 1.04
  62  0.810  0.250  0.855-  14 1.05
  63  0.310  0.750  0.855-  15 1.05
  64  0.796  0.750  0.856-  16 1.04
  65  0.472  0.501  0.489-  90 3.09  85 3.14  87 3.16  77 3.17  73 3.22  89 3.26
  66  0.972  0.499  0.489-  89 3.09  88 3.14  86 3.17  78 3.17  74 3.22  90 3.26
  67  0.472  0.999  0.489-  92 3.09  85 3.14  87 3.17  79 3.17  75 3.22  91 3.26
  68  0.972  0.001  0.489-  91 3.09  88 3.14  86 3.16  80 3.17  76 3.22  92 3.26
  69  0.472  0.501  0.989-  94 3.09  81 3.14  83 3.16  73 3.17  77 3.22  93 3.26
  70  0.972  0.499  0.989-  93 3.09  84 3.14  82 3.17  74 3.17  78 3.22  94 3.26
  71  0.472  0.999  0.989-  96 3.09  81 3.14  83 3.17  75 3.17  79 3.22  95 3.26
  72  0.972  0.001  0.989-  95 3.09  84 3.14  82 3.16  76 3.17  80 3.22  96 3.26
  73  0.455  0.501  0.238-  69 3.17  65 3.22
  74  0.955  0.499  0.238-  70 3.17  66 3.22
  75  0.455  0.999  0.238-  71 3.17  67 3.22
  76  0.955  0.001  0.238-  72 3.17  68 3.22
  77  0.455  0.501  0.738-  65 3.17  69 3.22
  78  0.955  0.499  0.738-  66 3.17  70 3.22
  79  0.455  0.999  0.738-  67 3.17  71 3.22
  80  0.955  0.001  0.738-  68 3.17  72 3.22
  81  0.470  0.250  0.008-  71 3.14  69 3.14
  82  0.930  0.250  0.016-  72 3.16  70 3.17
  83  0.430  0.750  0.016-  69 3.16  71 3.17
  84  0.970  0.750  0.008-  70 3.14  72 3.14
  85  0.470  0.250  0.508-  67 3.14  65 3.14
  86  0.930  0.250  0.516-  68 3.16  66 3.17
  87  0.430  0.750  0.516-  65 3.16  67 3.17
  88  0.970  0.750  0.508-  66 3.14  68 3.14
  89  0.216  0.476  0.461-  66 3.09  65 3.26
  90  0.716  0.524  0.461-  65 3.09  66 3.26
  91  0.216  0.024  0.461-  68 3.09  67 3.26
  92  0.716  0.976  0.461-  67 3.09  68 3.26
  93  0.216  0.476  0.961-  70 3.09  69 3.26
  94  0.716  0.524  0.961-  69 3.09  70 3.26
  95  0.216  0.024  0.961-  72 3.09  71 3.26
  96  0.716  0.976  0.961-  71 3.09  72 3.26
 
  LATTYP: Found a triclinic cell.
 ALAT       =    17.8238589327
 B/A-ratio  =     0.6989248630
 C/A-ratio  =     1.0156975818
 COS(alpha) =     0.0001355172
 COS(beta)  =     0.5146378593
 COS(gamma) =     0.6988877578
  
  Lattice vectors:
  
 A1 = (  -0.1406063366, -12.4576271275, -12.7466742118)
 A2 = (  -0.0011956322, -12.4575380825,   0.0007464135)
 A3 = ( -12.7162481321,  -0.0020049566, -12.8856194186)


Analysis of symmetry for initial positions (statically):
=====================================================================
 Subroutine PRICEL returns following result:
 
  LATTYP: Found a triclinic cell.
 ALAT       =     8.8502626515
 B/A-ratio  =     1.4075896561
 C/A-ratio  =     0.7202149489
 COS(alpha) =     0.0000518785
 COS(beta)  =     0.0156138721
 COS(gamma) =     0.7036188608
  
  Lattice vectors:
  
 A1 = (  -6.2878208978,   6.2278110854,  -0.0694726034)
 A2 = (   0.0011956322,  12.4575380825,  -0.0007464135)
 A3 = (  -0.0697053522,  -0.0000445225,  -6.3737103126)
 
   4 primitive cells build up your supercell.
 

 Routine SETGRP: Setting up the symmetry group for a 
 triclinic supercell.


 Subroutine GETGRP returns: Found  1 space group operations
 (whereof  1 operations were pure point group operations)
 out of a pool of  2 trial point group operations.


The static configuration has the point symmetry C_1 .


Analysis of symmetry for dynamics (positions and initial velocities):
=====================================================================
 Subroutine PRICEL returns following result:
 
  LATTYP: Found a triclinic cell.
 ALAT       =     8.8502626515
 B/A-ratio  =     1.4075896561
 C/A-ratio  =     0.7202149489
 COS(alpha) =     0.0000518785
 COS(beta)  =     0.0156138721
 COS(gamma) =     0.7036188608
  
  Lattice vectors:
  
 A1 = (  -6.2878208978,   6.2278110854,  -0.0694726034)
 A2 = (   0.0011956322,  12.4575380825,  -0.0007464135)
 A3 = (  -0.0697053522,  -0.0000445225,  -6.3737103126)
 
   4 primitive cells build up your supercell.
 

 Routine SETGRP: Setting up the symmetry group for a 
 triclinic supercell.


 Subroutine GETGRP returns: Found  1 space group operations
 (whereof  1 operations were pure point group operations)
 out of a pool of  2 trial point group operations.


The dynamic configuration has the point symmetry C_1 .


 Subroutine INISYM returns: Found  1 space group operations
 (whereof  1 operations are pure point group operations),
 and found     4 'primitive' translations

 
 
 KPOINTS: Automatic 3x3x3                         

Automatic generation of k-mesh.
Space group operators:
 irot       det(A)        alpha          n_x          n_y          n_z        tau_x        tau_y        tau_z
    1     1.000000     0.000000     1.000000     0.000000     0.000000     0.000000     0.000000     0.000000
 
 Subroutine IBZKPT returns following result:
 ===========================================
 
 Found     14 irreducible k-points:
 
 Following reciprocal coordinates:
            Coordinates               Weight
  0.000000  0.000000  0.000000      1.000000
  0.333333 -0.000000 -0.000000      2.000000
  0.000000  0.333333 -0.000000      2.000000
  0.333333  0.333333  0.000000      2.000000
 -0.333333  0.333333  0.000000      2.000000
  0.000000  0.000000  0.333333      2.000000
  0.333333  0.000000  0.333333      2.000000
 -0.333333  0.000000  0.333333      2.000000
  0.000000  0.333333  0.333333      2.000000
  0.333333  0.333333  0.333333      2.000000
 -0.333333  0.333333  0.333333      2.000000
  0.000000 -0.333333  0.333333      2.000000
  0.333333 -0.333333  0.333333      2.000000
 -0.333333 -0.333333  0.333333      2.000000
 
 Following cartesian coordinates:
            Coordinates               Weight
  0.000000  0.000000  0.000000      1.000000
  0.026507 -0.000003 -0.000290      2.000000
 -0.000004  0.026758 -0.000000      2.000000
  0.026503  0.026755 -0.000290      2.000000
 -0.026511  0.026760  0.000290      2.000000
 -0.000287  0.000002  0.026152      2.000000
  0.026220 -0.000001  0.025862      2.000000
 -0.026794  0.000004  0.026442      2.000000
 -0.000291  0.026759  0.026152      2.000000
  0.026215  0.026757  0.025862      2.000000
 -0.026798  0.026762  0.026442      2.000000
 -0.000283 -0.026756  0.026152      2.000000
  0.026224 -0.026759  0.025862      2.000000
 -0.026790 -0.026753  0.026442      2.000000
 
 
 Subroutine IBZKPT_HF returns following result:
 ==============================================
 
 Found     27 k-points in 1st BZ
 the following     27 k-points will be used (e.g. in the exchange kernel)
 Following reciprocal coordinates:   # in IRBZ
  0.000000  0.000000  0.000000    0.03703704   1 t-inv F
  0.333333 -0.000000 -0.000000    0.03703704   2 t-inv F
  0.000000  0.333333 -0.000000    0.03703704   3 t-inv F
  0.333333  0.333333  0.000000    0.03703704   4 t-inv F
 -0.333333  0.333333  0.000000    0.03703704   5 t-inv F
  0.000000  0.000000  0.333333    0.03703704   6 t-inv F
  0.333333  0.000000  0.333333    0.03703704   7 t-inv F
 -0.333333  0.000000  0.333333    0.03703704   8 t-inv F
  0.000000  0.333333  0.333333    0.03703704   9 t-inv F
  0.333333  0.333333  0.333333    0.03703704  10 t-inv F
 -0.333333  0.333333  0.333333    0.03703704  11 t-inv F
  0.000000 -0.333333  0.333333    0.03703704  12 t-inv F
  0.333333 -0.333333  0.333333    0.03703704  13 t-inv F
 -0.333333 -0.333333  0.333333    0.03703704  14 t-inv F
 -0.333333  0.000000  0.000000    0.03703704   2 t-inv T
 -0.000000 -0.333333  0.000000    0.03703704   3 t-inv T
 -0.333333 -0.333333 -0.000000    0.03703704   4 t-inv T
  0.333333 -0.333333 -0.000000    0.03703704   5 t-inv T
 -0.000000  0.000000 -0.333333    0.03703704   6 t-inv T
 -0.333333 -0.000000 -0.333333    0.03703704   7 t-inv T
  0.333333 -0.000000 -0.333333    0.03703704   8 t-inv T
 -0.000000 -0.333333 -0.333333    0.03703704   9 t-inv T
 -0.333333 -0.333333 -0.333333    0.03703704  10 t-inv T
  0.333333 -0.333333 -0.333333    0.03703704  11 t-inv T
 -0.000000  0.333333 -0.333333    0.03703704  12 t-inv T
 -0.333333  0.333333 -0.333333    0.03703704  13 t-inv T
  0.333333  0.333333 -0.333333    0.03703704  14 t-inv T


--------------------------------------------------------------------------------------------------------




 Dimension of arrays:
   k-points           NKPTS =     14   k-points in BZ     NKDIM =     27   number of bands    NBANDS=    256
   number of dos      NEDOS =    301   number of ions     NIONS =     96
   non local maximal  LDIM  =      6   non local SUM 2l+1 LMDIM =     18
   total plane-waves  NPLWV = ******
   max r-space proj   IRMAX =      1   max aug-charges    IRDMAX= 314103
   dimension x,y,z NGX =   112 NGY =  108 NGZ =  112
   dimension x,y,z NGXF=   224 NGYF=  216 NGZF=  224
   support grid    NGXF=   448 NGYF=  432 NGZF=  448
   ions per type =               8   8  48   8  24
 NGX,Y,Z   is equivalent  to a cutoff of  14.80, 14.41, 14.61 a.u.
 NGXF,Y,Z  is equivalent  to a cutoff of  29.61, 28.83, 29.21 a.u.


 I would recommend the setting:
   dimension x,y,z NGX =   109 NGY =  107 NGZ =  110
 SYSTEM =  MAPbI3-Cubic                            
 POSCAR =  C N H Pb I                              

 Startparameter for this run:
   NWRITE =      2    write-flag & timer
   PREC   = accura    normal or accurate (medium, high low for compatibility)
   ISTART =      0    job   : 0-new  1-cont  2-samecut
   ICHARG =      2    charge: 1-file 2-atom 10-const
   ISPIN  =      1    spin polarized calculation?
   LNONCOLLINEAR =      F non collinear calculations
   LSORBIT =      F    spin-orbit coupling
   INIWAV =      1    electr: 0-lowe 1-rand  2-diag
   LASPH  =      F    aspherical Exc in radial PAW
   METAGGA=      F    non-selfconsistent MetaGGA calc.

 Electronic Relaxation 1
   ENCUT  =  700.0 eV  51.45 Ry    7.17 a.u.  27.13 26.87 27.50*2*pi/ulx,y,z
   ENINI  =  700.0     initial cutoff
   ENAUG  =  644.9 eV  augmentation charge cutoff
   NELM   =     60;   NELMIN=  2; NELMDL= -5     # of ELM steps 
   EDIFF  = 0.1E-07   stopping-criterion for ELM
   LREAL  =      F    real-space projection
   NLSPLINE    = F    spline interpolate recip. space projectors
   LCOMPAT=      F    compatible to vasp.4.4
   GGA_COMPAT  = T    GGA compatible to vasp.4.4-vasp.4.6
   LMAXPAW     = -100 max onsite density
   LMAXMIX     =    2 max onsite mixed and CHGCAR
   VOSKOWN=      0    Vosko Wilk Nusair interpolation
   ROPT   =    0.00000   0.00000   0.00000   0.00000
   ROPT   =    0.00000
 Ionic relaxation
   EDIFFG = 0.1E-06   stopping-criterion for IOM
   NSW    =      0    number of steps for IOM
   NBLOCK =      1;   KBLOCK =      1    inner block; outer block 
   IBRION =     -1    ionic relax: 0-MD 1-quasi-New 2-CG
   NFREE  =      0    steps in history (QN), initial steepest desc. (CG)
   ISIF   =      2    stress and relaxation
   IWAVPR =     10    prediction:  0-non 1-charg 2-wave 3-comb
   ISYM   =      3    0-nonsym 1-usesym 2-fastsym
   LCORR  =      T    Harris-Foulkes like correction to forces

   POTIM  = 0.5000    time-step for ionic-motion
   TEIN   =    0.0    initial temperature
   TEBEG  =    0.0;   TEEND  =   0.0 temperature during run
   SMASS  =  -3.00    Nose mass-parameter (am)
   estimated Nose-frequenzy (Omega)   =  0.10E-29 period in steps =****** mass=  -0.362E-26a.u.
   SCALEE = 1.0000    scale energy and forces
   NPACO  =    256;   APACO  = 16.0  distance and # of slots for P.C.
   PSTRESS=    0.0 pullay stress

  Mass of Ions in am
   POMASS =  12.01 14.00  1.00207.20126.90
  Ionic Valenz
   ZVAL   =   4.00  5.00  1.00 14.00  7.00
  Atomic Wigner-Seitz radii
   RWIGS  =  -1.00 -1.00 -1.00 -1.00 -1.00
  virtual crystal weights 
   VCA    =   1.00  1.00  1.00  1.00  1.00
   NELECT =     400.0000    total number of electrons
   NUPDOWN=      -1.0000    fix difference up-down

 DOS related values:
   EMIN   =  10.00;   EMAX   =-10.00  energy-range for DOS
   EFERMI =   0.00
   ISMEAR =     0;   SIGMA  =   0.00  broadening in eV -4-tet -1-fermi 0-gaus

 Electronic relaxation 2 (details)
   IALGO  =     58    algorithm
   LDIAG  =      T    sub-space diagonalisation (order eigenvalues)
   LSUBROT=      F    optimize rotation matrix (better conditioning)
   TURBO    =      0    0=normal 1=particle mesh
   IRESTART =      0    0=no restart 2=restart with 2 vectors
   NREBOOT  =      0    no. of reboots
   NMIN     =      0    reboot dimension
   EREF     =   0.00    reference energy to select bands
   IMIX   =      4    mixing-type and parameters
     AMIX     =   0.40;   BMIX     =  1.00
     AMIX_MAG =   1.60;   BMIX_MAG =  1.00
     AMIN     =   0.10
     WC   =   100.;   INIMIX=   1;  MIXPRE=   1;  MAXMIX= -45

 Intra band minimization:
   WEIMIN = 0.0000     energy-eigenvalue tresh-hold
   EBREAK =  0.98E-11  absolut break condition
   DEPER  =   0.30     relativ break condition  

   TIME   =   0.40     timestep for ELM

  volume/ion in A,a.u.               =      20.80       140.38
  Fermi-wavevector in a.u.,A,eV,Ry     =   0.957863  1.810099 12.483376  0.917502
  Thomas-Fermi vector in A             =   2.086919
 
 Write flags
   LWAVE  =      F    write WAVECAR
   LCHARG =      F    write CHGCAR
   LVTOT  =      F    write LOCPOT, total local potential
   LVHAR  =      F    write LOCPOT, Hartree potential only
   LELF   =      F    write electronic localiz. function (ELF)
   LORBIT =      0    0 simple, 1 ext, 2 COOP (PROOUT)


 Dipole corrections
   LMONO  =      F    monopole corrections only (constant potential shift)
   LDIPOL =      F    correct potential (dipole corrections)
   IDIPOL =      0    1-x, 2-y, 3-z, 4-all directions 
   EPSILON=  1.0000000 bulk dielectric constant

 Core level calculations are selected ICORELEVEL =  1
 Exchange correlation treatment:
   GGA     =    PE    GGA type
   LEXCH   =     8    internal setting for exchange type
   VOSKOWN=      0    Vosko Wilk Nusair interpolation
   EXXOEP  =     0    0=HF, 1=EXX-LHF (local Hartree Fock) 2=EXX OEP
   LHFCALC =     T    Hartree Fock is set to
   LSYMGRAD=     F    symmetrize gradient (conserves proper symmetry)
   PRECFOCK=fast      Normal, Fast or Accurate (Low or Medium for compatibility)
   LRHFCALC=     F    long range Hartree Fock
   LRSCOR  =     F    long range correlation only (use DFT for short range part)
   LTHOMAS =     F    Thomas Fermi screening in HF
   LMODELHF=     F    short range full HF, long range fraction AEXX
   ENCUT4O =  -1.0   cutoff for four orbital integrals eV
   LMAXFOCK=     4    L truncation for augmentation on plane wave grid
   LMAXFOCKAE=  -1    L truncation for all-electron charge restoration on plane wave grid
   NMAXFOCKAE=   1    number of basis functions for all-electron charge restoration
   LFOCKAEDFT=     F  apply the AE augmentation even for DFT
   NKREDX  =     1    reduce k-point grid by
   NKREDY  =     1    reduce k-point grid by
   NKREDZ  =     1    reduce k-point grid by
   SHIFTRED=     F    shift reduced grid of Gamma
   HFKIDENT=     F    idential grid for each k-point
   ODDONLY =     F    use only odd q-grid points
   EVENONLY=     F    use only even q-grid points
   HFALPHA =   -1.0000 decay constant for conv. correction
   MCALPHA =    0.0000 extent of test-charge in conv. correction in multipole expansion
   AEXX    =    0.2500 exact exchange contribution
   HFSCREEN=    0.2070 screening length (either q_TF or 0.3 A-1)
   HFSCREENC=   0.2070 screening length for correlation (either q_TF or 0.3 A-1)
   HFRCUT  =    0.0000 spherical cutoff for potential kernel
   ALDAX   =    0.7500 LDA exchange part
   AGGAX   =    0.7500 GGA exchange part
   ALDAC   =    1.0000 LDA correlation
   AGGAC   =    1.0000 GGA correlation
   NBANDSGWLOW=     1    first orbital included in HF term
   ENCUTFOCK=  -1.0 apply spherical cutoff to Coloumb kernel
 Linear response parameters
   LEPSILON=     F    determine dielectric tensor
   LRPA    =     F    only Hartree local field effects (RPA)
   LNABLA  =     F    use nabla operator in PAW spheres
   LVEL    =     F    velocity operator in full k-point grid
   LINTERFAST=   F  fast interpolation
   KINTER  =     0    interpolate to denser k-point grid
   CSHIFT  =0.1000    complex shift for real part using Kramers Kronig
   OMEGAMAX=  -1.0    maximum frequency
   DEG_THRESHOLD= 0.2000000E-02 threshold for treating states as degnerate
   RTIME   =    0.100 relaxation time in fs

 Orbital magnetization related:
   ORBITALMAG=     F  switch on orbital magnetization
   LCHIMAG   =     F  perturbation theory with respect to B field
   DQ        =  0.001000  dq finite difference perturbation B field



--------------------------------------------------------------------------------------------------------


 Static calculation
 charge density and potential will be updated during run
 non-spin polarized calculation
 Conjugate gradient for all bands (Freysoldt, et al. PRB 79, 241103 (2009))
 preconditioned conjugated gradient                                        
 perform sub-space diagonalisation
    before iterative eigenvector-optimisation
 modified Broyden-mixing scheme, WC =      100.0
 initial mixing is a Kerker type mixing with AMIX =  0.4000 and BMIX =      1.0000
 Hartree-type preconditioning will be used
 using additional bands           56
 reciprocal scheme for non local part
 use partial core corrections
 no Harris-corrections to forces 
 use gradient corrections 
 use of overlap-Matrix (Vanderbilt PP)
 Gauss-broadening in eV      SIGMA  =   0.00


--------------------------------------------------------------------------------------------------------


  energy-cutoff  :      700.00
  volume of cell :     1996.98
      direct lattice vectors                 reciprocal lattice vectors
    12.576837428  0.001915912  0.138198793     0.079520802 -0.000007684 -0.000869670
     0.001195632 12.457538083 -0.000746413    -0.000012224  0.080272684 -0.000000427
     0.139410704  0.000089045 12.747420625    -0.000862111  0.000004784  0.078456671

  length of vectors
    12.577596840 12.457538162 12.748182927     0.079525558  0.080272685  0.078461408


 
 k-points in units of 2pi/SCALE and weight: Automatic 3x3x3                         
   0.00000000  0.00000000  0.00000000       0.037
   0.02650693 -0.00000256 -0.00028989       0.074
  -0.00000407  0.02675756 -0.00000014       0.074
   0.02650286  0.02675500 -0.00029003       0.074
  -0.02651101  0.02676012  0.00028975       0.074
  -0.00028737  0.00000159  0.02615222       0.074
   0.02621956 -0.00000097  0.02586233       0.074
  -0.02679430  0.00000416  0.02644211       0.074
  -0.00029144  0.02675916  0.02615208       0.074
   0.02621549  0.02675659  0.02586219       0.074
  -0.02679838  0.02676172  0.02644197       0.074
  -0.00028330 -0.02675597  0.02615237       0.074
   0.02622364 -0.02675853  0.02586248       0.074
  -0.02679023 -0.02675341  0.02644226       0.074
 
 k-points in reciprocal lattice and weights: Automatic 3x3x3                         
   0.00000000  0.00000000  0.00000000       0.037
   0.33333333 -0.00000000 -0.00000000       0.074
   0.00000000  0.33333333 -0.00000000       0.074
   0.33333333  0.33333333  0.00000000       0.074
  -0.33333333  0.33333333  0.00000000       0.074
   0.00000000  0.00000000  0.33333333       0.074
   0.33333333  0.00000000  0.33333333       0.074
  -0.33333333  0.00000000  0.33333333       0.074
   0.00000000  0.33333333  0.33333333       0.074
   0.33333333  0.33333333  0.33333333       0.074
  -0.33333333  0.33333333  0.33333333       0.074
   0.00000000 -0.33333333  0.33333333       0.074
   0.33333333 -0.33333333  0.33333333       0.074
  -0.33333333 -0.33333333  0.33333333       0.074
 
 position of ions in fractional coordinates (direct lattice) 
   0.20336226  0.24993483  0.21899715
   0.69062601  0.24988172  0.23883356
   0.19062601  0.74988172  0.23883356
   0.70336226  0.74993483  0.21899715
   0.20336226  0.24993483  0.71899715
   0.69062601  0.24988172  0.73883356
   0.19062601  0.74988172  0.73883356
   0.70336226  0.74993483  0.71899715
   0.30628967  0.25002379  0.27444530
   0.80278477  0.24998349  0.27332329
   0.30278477  0.74998349  0.27332329
   0.80628967  0.75002379  0.27444530
   0.30628967  0.25002379  0.77444530
   0.80278477  0.24998349  0.77332329
   0.30278477  0.74998349  0.77332329
   0.80628967  0.75002379  0.77444530
   0.22005935  0.24982025  0.13357298
   0.69009098  0.24982194  0.15220427
   0.19009098  0.74982194  0.15220427
   0.72005935  0.74982025  0.13357298
   0.22005935  0.24982025  0.63357298
   0.69009098  0.24982194  0.65220427
   0.19009098  0.74982194  0.65220427
   0.72005935  0.74982025  0.63357298
   0.15831810  0.32245125  0.24161882
   0.65035751  0.32225312  0.26941181
   0.15035751  0.82225312  0.26941181
   0.65831810  0.82245125  0.24161882
   0.15831810  0.32245125  0.74161882
   0.65035751  0.32225312  0.76941181
   0.15035751  0.82225312  0.76941181
   0.65831810  0.82245125  0.74161882
   0.15838270  0.17746086  0.24180116
   0.65050296  0.17749128  0.26950025
   0.15050296  0.67749128  0.26950025
   0.65838270  0.67746086  0.24180116
   0.15838270  0.17746086  0.74180116
   0.65050296  0.17749128  0.76950025
   0.15050296  0.67749128  0.76950025
   0.65838270  0.67746086  0.74180116
   0.35190339  0.31808666  0.25549137
   0.84436577  0.31766190  0.24602162
   0.34436577  0.81766190  0.24602162
   0.85190339  0.81808666  0.25549137
   0.35190339  0.31808666  0.75549137
   0.84436577  0.31766190  0.74602162
   0.34436577  0.81766190  0.74602162
   0.85190339  0.81808666  0.75549137
   0.35193485  0.18190164  0.25567475
   0.84447575  0.18230814  0.24610705
   0.34447575  0.68230814  0.24610705
   0.85193485  0.68190164  0.25567475
   0.35193485  0.18190164  0.75567475
   0.84447575  0.18230814  0.74610705
   0.34447575  0.68230814  0.74610705
   0.85193485  0.68190164  0.75567475
   0.29601872  0.25014857  0.35589296
   0.81032143  0.25003847  0.35532553
   0.31032143  0.75003847  0.35532553
   0.79601872  0.75014857  0.35589296
   0.29601872  0.25014857  0.85589296
   0.81032143  0.25003847  0.85532553
   0.31032143  0.75003847  0.85532553
   0.79601872  0.75014857  0.85589296
   0.47244736  0.50102822  0.48881006
   0.97243619  0.49895136  0.48881283
   0.47243619  0.99895136  0.48881283
   0.97244736  0.00102822  0.48881006
   0.47244736  0.50102822  0.98881006
   0.97243619  0.49895136  0.98881283
   0.47243619  0.99895136  0.98881283
   0.97244736  0.00102822  0.98881006
   0.45475915  0.50054398  0.23756945
   0.95472820  0.49943812  0.23757603
   0.45472820  0.99943812  0.23757603
   0.95475915  0.00054398  0.23756945
   0.45475915  0.50054398  0.73756945
   0.95472820  0.49943812  0.73757603
   0.45472820  0.99943812  0.73757603
   0.95475915  0.00054398  0.73756945
   0.46963892  0.24997506  0.00807310
   0.92963196  0.24998296  0.01559134
   0.42963196  0.74998296  0.01559134
   0.96963892  0.74997506  0.00807310
   0.46963892  0.24997506  0.50807310
   0.92963196  0.24998296  0.51559134
   0.42963196  0.74998296  0.51559134
   0.96963892  0.74997506  0.50807310
   0.21617627  0.47612194  0.46123970
   0.71616661  0.52387293  0.46123971
   0.21616661  0.02387293  0.46123971
   0.71617627  0.97612194  0.46123970
   0.21617627  0.47612194  0.96123970
   0.71616661  0.52387293  0.96123971
   0.21616661  0.02387293  0.96123971
   0.71617627  0.97612194  0.96123970
 
 position of ions in cartesian coordinates  (Angst):
   2.58848345  3.11398178  2.81956665
   8.71948572  3.11425550  3.13976899
   2.43166482  9.34206659  3.07029639
   8.87749998  9.34370877  2.88829284
   2.65818880  3.11402630  9.19327697
   8.78919107  3.11430002  9.51347931
   2.50137017  9.34211111  9.44400670
   8.94720533  9.34375330  9.26200316
   3.89071492  3.11529210  3.54061196
  10.13489661  3.11574131  3.59492424
   3.84707572  9.34355240  3.52545163
  10.17973145  9.34501910  3.60933815
   3.96042027  3.11533662  9.91432227
  10.20460197  3.11578583  9.96863455
   3.91678107  9.34359692  9.89916195
  10.24943680  9.34506362  9.98304846
   2.78657090  3.11257881  1.73293644
   8.70067969  3.11350204  2.03539513
   2.41285879  9.34131313  1.96592253
   9.07558743  9.34230581  1.80166263
   2.85627625  3.11262334  8.10664676
   8.77038504  3.11354657  8.40910544
   2.48256415  9.34135765  8.33963284
   9.14529278  9.34235033  8.17537295
   2.02521083  4.01727360  3.10165547
   8.21738486  4.01575054  3.52394381
   1.92956397 10.24356163  3.45447121
   8.31422736 10.24700060  3.17038166
   2.09491618  4.01731812  9.47536578
   8.28709022  4.01579506  9.89765413
   1.99926932 10.24360615  9.82818152
   8.38393271 10.24704512  9.54409197
   2.02587535  2.21105045  3.10409700
   8.21905347  2.21237472  3.52519927
   1.93123257  8.44018581  3.45572666
   8.31489188  8.44077745  3.17282319
   2.09558070  2.21109497  9.47780731
   8.28875882  2.21241924  9.89890958
   2.00093792  8.44023033  9.82943698
   8.38459723  8.44082197  9.54653350
   4.46183027  3.96327369  3.30525111
  10.65412881  3.95892489  3.25259425
   4.36630792 10.18673597  3.18312164
  10.75084680 10.19300068  3.37397730
   4.53153562  3.96331821  9.67896142
  10.72383417  3.95896941  9.62630456
   4.43601327 10.18678050  9.55683196
  10.82055215 10.19304520  9.74768761
   4.46208866  2.26674363  3.30769475
  10.65536217  2.27275041  3.25379956
   4.36754128  8.50056149  3.18432696
  10.75110519  8.49647063  3.37642094
   4.53179401  2.26678816  9.68140506
  10.72506753  2.27279493  9.62750988
   4.43724663  8.50060601  9.55803727
  10.82081054  8.49651515  9.75013125
   3.77289363  3.11683419  4.57743999
  10.24111603  3.11644793  4.64128278
   3.95329514  9.34425902  4.57181018
  10.06191016  9.34656119  4.64616618
   3.84259898  3.11687871 10.95115030
  10.31082139  3.11649246 11.01499309
   4.02300049  9.34430354 10.94552049
  10.13161551  9.34660571 11.01987649
   6.01063802  6.24252688  6.29598516
  12.29891422  6.21761226  6.36511985
   6.01109332 12.44542334  6.29564725
  12.29845892  0.01471580  6.36545776
   6.08034337  6.24257141 12.66969547
  12.36861957  6.21765678 12.73883016
   6.08079867 12.44546787 12.66935756
  12.36816427  0.01476032 12.73916807
   5.75315007  6.23643807  3.09087127
  12.04117915  6.22361977  3.16005112
   5.75335825 12.45143085  3.09057852
  12.04097097  0.00862699  3.16034388
   5.82285542  6.23648260  9.46458159
  12.11088450  6.22366429  9.53376143
   5.82306360 12.45147538  9.46428883
  12.11067632  0.00867151  9.53405419
   5.90799672  3.11497432  0.16762815
  11.69430248  3.11595475  0.32703673
   5.40648159  9.34376584  0.25756413
  12.19701325  9.34470132  0.23635434
   5.97770207  3.11501885  6.54133847
  11.76400784  3.11599927  6.70074704
   5.47618694  9.34381036  6.63127444
  12.26671860  9.34474584  6.61006466
   2.78368478  5.93176250  5.90913636
   9.07203913  6.52758014  5.97819887
   2.78302260  0.29785314  5.90947268
   9.07270131 12.16148950  5.97786255
   2.85339014  5.93180702 12.28284667
   9.14174449  6.52762466 12.35190918
   2.85272796  0.29789766 12.28318299
   9.14240667 12.16153402 12.35157286
 


--------------------------------------------------------------------------------------------------------


 k-point  1 :   0.0000 0.0000 0.0000  plane waves:   84007
 k-point  2 :   0.3333-0.0000-0.0000  plane waves:   84003
 k-point  3 :   0.0000 0.3333-0.0000  plane waves:   83995
 k-point  4 :   0.3333 0.3333 0.0000  plane waves:   84018
 k-point  5 :  -0.3333 0.3333 0.0000  plane waves:   84019
 k-point  6 :   0.0000 0.0000 0.3333  plane waves:   83960
 k-point  7 :   0.3333 0.0000 0.3333  plane waves:   83937
 k-point  8 :  -0.3333 0.0000 0.3333  plane waves:   83982
 k-point  9 :   0.0000 0.3333 0.3333  plane waves:   83984
 k-point 10 :   0.3333 0.3333 0.3333  plane waves:   84012
 k-point 11 :  -0.3333 0.3333 0.3333  plane waves:   83970
 k-point 12 :   0.0000-0.3333 0.3333  plane waves:   83977
 k-point 13 :   0.3333-0.3333 0.3333  plane waves:   84013
 k-point 14 :  -0.3333-0.3333 0.3333  plane waves:   83973

 maximum and minimum number of plane-waves per node :      7062     6951

 maximum number of plane-waves:     84019
 maximum index in each direction: 
   IXMAX=   27   IYMAX=   27   IZMAX=   27
   IXMIN=  -27   IYMIN=  -27   IZMIN=  -27

 NGX is ok and might be reduce to 110
 WARNING: aliasing errors must be expected set NGY to 110 to avoid them
 NGZ is ok and might be reduce to 110
 aliasing errors are usually negligible using standard VASP settings
 and one can safely disregard these warnings

 parallel 3D FFT for wavefunctions:
    minimum data exchange during FFTs selected (reduces bandwidth)
 parallel 3D FFT for charge:
    minimum data exchange during FFTs selected (reduces bandwidth)


 FFT grid for exact exchange (Hartree Fock) 
  NGX = 56; NGY = 56; NGZ = 60

 
 Radii for the augmentation spheres in the non-local exchange
 for species   1 augmentation radius   0.944 (default was   0.699)
       energy cutoff for augmentation   2800.0
 for species   2 augmentation radius   0.957 (default was   0.709)
       energy cutoff for augmentation   2800.0
 for species   3 augmentation radius   0.702 (default was   0.520)
       energy cutoff for augmentation   2800.0
 for species   4 augmentation radius   1.558 (default was   1.154)
       energy cutoff for augmentation   2800.0
 for species   5 augmentation radius   1.603 (default was   1.188)
       energy cutoff for augmentation   2800.0

 real space projection operators:
  total allocation   :      10791.09 KBytes
  max/ min on nodes  :       1217.14        486.47

 Maximum index for augmentation-charges in exchange          234
  SETUP_FOCK is finished

 total amount of memory used by VASP on root node   222690. kBytes
========================================================================

   base      :      30000. kBytes
   nonl-proj :      82891. kBytes
   fftplans  :      15020. kBytes
   grid      :      12652. kBytes
   one-center:        124. kBytes
   HF        :        259. kBytes
   nonlr-proj:       4158. kBytes
   wavefun   :      77586. kBytes
 
     INWAV:  cpu time    0.0000: real time    0.0000
 Broyden mixing: mesh for mixing (old mesh)
   NGX = 55   NGY = 53   NGZ = 55
  (NGX  =224   NGY  =216   NGZ  =224)
  gives a total of 160325 points

 initial charge density was supplied:
 charge density of overlapping atoms calculated
 number of electron     400.0000000 magnetization 
 keeping initial charge density in first step


--------------------------------------------------------------------------------------------------------


 Maximum index for augmentation-charges         5398 (set IRDMAX)


--------------------------------------------------------------------------------------------------------


 First call to EWALD:  gamma=   0.141
 Maximum number of real-space cells 3x 3x 3
 Maximum number of reciprocal cells 3x 3x 3

 FEWALD executed in parallel
    FEWALD:  cpu time    0.0400: real time    0.0410


----------------------------------------- Iteration    1(   1)  ---------------------------------------


    POTLOK:  cpu time    0.2640: real time    0.2650
    SETDIJ:  cpu time    0.6120: real time    0.6090
    TRIAL :  cpu time    4.4683: real time    4.4732
    CORREC:  cpu time    0.0000: real time    0.0023
    --------------------------------------------
      LOOP:  cpu time    5.3803: real time    5.4099

 eigenvalue-minimisations  : 11744
 total energy-change (2. order) : 0.3474443E+05  (-0.1144010E+06)
 number of electron     400.0000000 magnetization 
 augmentation part      400.0000000 magnetization 

 Free energy of the ion-electron system (eV)
  ---------------------------------------------------
  alpha Z        PSCENC =       370.05370877
  Ewald energy   TEWEN  =    -15539.70310868
  -Hartree energ DENC   =     -8112.53046546
  -exchange      EXHF   =         0.00000000
  -V(xc)+E(xc)   XCENC  =       254.48516885
  PAW double counting   =     20708.16285019   -20051.16882790
  entropy T*S    EENTRO =        -0.00004179
  eigenvalues    EBANDS =     32434.70820186
  atomic energy  EATOM  =     24680.42500649
  ---------------------------------------------------
  free energy    TOTEN  =     34744.43249232 eV

  energy without entropy =    34744.43253412  energy(sigma->0) =    34744.43251322
  exchange ACFDT corr.  =         0.00000000  see jH, gK, PRB 81, 115126


--------------------------------------------------------------------------------------------------------




----------------------------------------- Iteration    1(   2)  ---------------------------------------


    TRIAL :  cpu time    3.4962: real time    3.5009
    CORREC:  cpu time    0.0040: real time    0.0017
    --------------------------------------------
      LOOP:  cpu time    3.5042: real time    3.5391

 eigenvalue-minimisations  :  8544
 total energy-change (2. order) :-0.2610117E+05  (-0.2537368E+05)
 number of electron     400.0000000 magnetization 
 augmentation part      400.0000000 magnetization 

 Free energy of the ion-electron system (eV)
  ---------------------------------------------------
  alpha Z        PSCENC =       370.05370877
  Ewald energy   TEWEN  =    -15539.70310868
  -Hartree energ DENC   =     -8112.53046546
  -exchange      EXHF   =         0.00000000
  -V(xc)+E(xc)   XCENC  =       254.48516885
  PAW double counting   =     20708.16285019   -20051.16882790
  entropy T*S    EENTRO =        -0.00000000
  eigenvalues    EBANDS =      6333.53642445
  atomic energy  EATOM  =     24680.42500649
  ---------------------------------------------------
  free energy    TOTEN  =      8643.26075671 eV

  energy without entropy =     8643.26075671  energy(sigma->0) =     8643.26075671
  exchange ACFDT corr.  =         0.00000000  see jH, gK, PRB 81, 115126


--------------------------------------------------------------------------------------------------------




----------------------------------------- Iteration    1(   3)  ---------------------------------------


    TRIAL :  cpu time    3.6722: real time    7.0097
    CORREC:  cpu time    0.0000: real time    1.5576
    --------------------------------------------
      LOOP:  cpu time    3.6722: real time    8.5907

 eigenvalue-minimisations  :  9056
 total energy-change (2. order) :-0.6856099E+04  (-0.6752239E+04)
 number of electron     400.0000000 magnetization 
 augmentation part      400.0000000 magnetization 

 Free energy of the ion-electron system (eV)
  ---------------------------------------------------
  alpha Z        PSCENC =       370.05370877
  Ewald energy   TEWEN  =    -15539.70310868
  -Hartree energ DENC   =     -8112.53046546
  -exchange      EXHF   =         0.00000000
  -V(xc)+E(xc)   XCENC  =       254.48516885
  PAW double counting   =     20708.16285019   -20051.16882790
  entropy T*S    EENTRO =        -0.00000000
  eigenvalues    EBANDS =      -522.56229611
  atomic energy  EATOM  =     24680.42500649
  ---------------------------------------------------
  free energy    TOTEN  =      1787.16203615 eV

  energy without entropy =     1787.16203615  energy(sigma->0) =     1787.16203615
  exchange ACFDT corr.  =         0.00000000  see jH, gK, PRB 81, 115126


--------------------------------------------------------------------------------------------------------




----------------------------------------- Iteration    1(   4)  ---------------------------------------


    TRIAL :  cpu time    3.8442: real time    3.8491
    CORREC:  cpu time    0.0040: real time    0.0008
    --------------------------------------------
      LOOP:  cpu time    3.8482: real time    3.8689

 eigenvalue-minimisations  :  9936
 total energy-change (2. order) :-0.1349283E+04  (-0.1295332E+04)
 number of electron     400.0000000 magnetization 
 augmentation part      400.0000000 magnetization 

 Free energy of the ion-electron system (eV)
  ---------------------------------------------------
  alpha Z        PSCENC =       370.05370877
  Ewald energy   TEWEN  =    -15539.70310868
  -Hartree energ DENC   =     -8112.53046546
  -exchange      EXHF   =         0.00000000
  -V(xc)+E(xc)   XCENC  =       254.48516885
  PAW double counting   =     20708.16285019   -20051.16882790
  entropy T*S    EENTRO =         0.00000000
  eigenvalues    EBANDS =     -1871.84520808
  atomic energy  EATOM  =     24680.42500649
  ---------------------------------------------------
  free energy    TOTEN  =       437.87912418 eV

  energy without entropy =      437.87912418  energy(sigma->0) =      437.87912418
  exchange ACFDT corr.  =         0.00000000  see jH, gK, PRB 81, 115126


--------------------------------------------------------------------------------------------------------




----------------------------------------- Iteration    1(   5)  ---------------------------------------


    TRIAL :  cpu time    3.7002: real time    3.7018
    CORREC:  cpu time    0.0000: real time    0.0012
    CHARGE:  cpu time    0.8721: real time    0.8735
    --------------------------------------------
      LOOP:  cpu time    4.5723: real time    4.6301

 eigenvalue-minimisations  :  9584
 total energy-change (2. order) :-0.1637729E+03  (-0.1611402E+03)
 number of electron     400.0000000 magnetization 
 augmentation part       12.9185420 magnetization 

 Free energy of the ion-electron system (eV)
  ---------------------------------------------------
  alpha Z        PSCENC =       370.05370877
  Ewald energy   TEWEN  =    -15539.70310868
  -Hartree energ DENC   =     -8112.53046546
  -exchange      EXHF   =         0.00000000
  -V(xc)+E(xc)   XCENC  =       254.48516885
  PAW double counting   =     20708.16285019   -20051.16882790
  entropy T*S    EENTRO =         0.00000000
  eigenvalues    EBANDS =     -2035.61806659
  atomic energy  EATOM  =     24680.42500649
  ---------------------------------------------------
  free energy    TOTEN  =       274.10626566 eV

  energy without entropy =      274.10626566  energy(sigma->0) =      274.10626566
  exchange ACFDT corr.  =         0.00000000  see jH, gK, PRB 81, 115126


--------------------------------------------------------------------------------------------------------




----------------------------------------- Iteration    1(   6)  ---------------------------------------


    POTLOK:  cpu time    0.2600: real time    0.2632
    SETDIJ:  cpu time    0.6400: real time    0.6394
    TRIAL :  cpu time  288.5300: real time  288.7254
    CORREC:  cpu time  289.7661: real time  289.9477
    CHARGE:  cpu time    0.8601: real time    0.8591
    --------------------------------------------
      LOOP:  cpu time  580.0603: real time  580.4552

 eigenvalue-minimisations  :     0
 total energy-change (2. order) :-0.7233053E+03  (-0.1855328E+02)
 number of electron     400.0000000 magnetization 
 augmentation part       13.2963735 magnetization 

 Free energy of the ion-electron system (eV)
  ---------------------------------------------------
  alpha Z        PSCENC =       370.05370877
  Ewald energy   TEWEN  =    -15539.70310868
  -Hartree energ DENC   =     -8178.87696904
  -exchange      EXHF   =       753.04669833
  -V(xc)+E(xc)   XCENC  =       273.37148650
  PAW double counting   =     55290.35693830   -54621.62043148
  entropy T*S    EENTRO =         0.00000000
  eigenvalues    EBANDS =     -3476.25240970
  atomic energy  EATOM  =     24680.42500649
  ---------------------------------------------------
  free energy    TOTEN  =      -449.19908052 eV

  energy without entropy =     -449.19908052  energy(sigma->0) =     -449.19908052
  exchange ACFDT corr.  =         0.00000000  see jH, gK, PRB 81, 115126


--------------------------------------------------------------------------------------------------------




----------------------------------------- Iteration    1(   7)  ---------------------------------------


    POTLOK:  cpu time    0.2640: real time    0.2626
    SETDIJ:  cpu time    0.6280: real time    0.6309
    TRIAL :  cpu time  289.5941: real time  289.7758
    CORREC:  cpu time  291.0542: real time  291.2337
    CHARGE:  cpu time    0.8681: real time    0.8690
    --------------------------------------------
      LOOP:  cpu time  582.4084: real time  582.7967

 eigenvalue-minimisations  :     0
 total energy-change (2. order) :-0.1848792E+02  (-0.7620391E+01)
 number of electron     400.0000000 magnetization 
 augmentation part        9.8379856 magnetization 

 Free energy of the ion-electron system (eV)
  ---------------------------------------------------
  alpha Z        PSCENC =       370.05370877
  Ewald energy   TEWEN  =    -15539.70310868
  -Hartree energ DENC   =     -8453.77433786
  -exchange      EXHF   =       762.48720413
  -V(xc)+E(xc)   XCENC  =       280.00131211
  PAW double counting   =     49407.31617322   -48735.89431951
  entropy T*S    EENTRO =         0.00000000
  eigenvalues    EBANDS =     -3238.59863976
  atomic energy  EATOM  =     24680.42500649
  ---------------------------------------------------
  free energy    TOTEN  =      -467.68700109 eV

  energy without entropy =     -467.68700109  energy(sigma->0) =     -467.68700109
  exchange ACFDT corr.  =         0.00000000  see jH, gK, PRB 81, 115126


--------------------------------------------------------------------------------------------------------




----------------------------------------- Iteration    1(   8)  ---------------------------------------


    POTLOK:  cpu time    0.2680: real time    0.2668
    SETDIJ:  cpu time    0.6120: real time    0.6136
    TRIAL :  cpu time  289.9221: real time  290.1321
    CORREC:  cpu time  290.6862: real time  290.8716
    CHARGE:  cpu time    0.8601: real time    0.8630
    --------------------------------------------
      LOOP:  cpu time  582.3524: real time  582.7893

 eigenvalue-minimisations  :     0
 total energy-change (2. order) :-0.7620099E+01  (-0.2734899E+01)
 number of electron     400.0000000 magnetization 
 augmentation part        9.5089468 magnetization 

 Free energy of the ion-electron system (eV)
  ---------------------------------------------------
  alpha Z        PSCENC =       370.05370877
  Ewald energy   TEWEN  =    -15539.70310868
  -Hartree energ DENC   =     -8379.94616872
  -exchange      EXHF   =       765.60078887
  -V(xc)+E(xc)   XCENC  =       278.16386862
  PAW double counting   =     43424.14578603   -42760.54547164
  entropy T*S    EENTRO =         0.00000000
  eigenvalues    EBANDS =     -3313.50151011
  atomic energy  EATOM  =     24680.42500649
  ---------------------------------------------------
  free energy    TOTEN  =      -475.30710039 eV

  energy without entropy =     -475.30710039  energy(sigma->0) =     -475.30710039
  exchange ACFDT corr.  =         0.00000000  see jH, gK, PRB 81, 115126


--------------------------------------------------------------------------------------------------------




----------------------------------------- Iteration    1(   9)  ---------------------------------------


    POTLOK:  cpu time    0.2640: real time    0.2643
    SETDIJ:  cpu time    0.6080: real time    0.6105
    TRIAL :  cpu time  290.7342: real time  291.0029
    CORREC:  cpu time  290.1461: real time  290.3267
    CHARGE:  cpu time    0.8641: real time    0.8646
    --------------------------------------------
      LOOP:  cpu time  582.6204: real time  583.1114

 eigenvalue-minimisations  :     0
 total energy-change (2. order) :-0.2735222E+01  (-0.8651974E+00)
 number of electron     400.0000000 magnetization 
 augmentation part        9.6002268 magnetization 

 Free energy of the ion-electron system (eV)
  ---------------------------------------------------
  alpha Z        PSCENC =       370.05370877
  Ewald energy   TEWEN  =    -15539.70310868
  -Hartree energ DENC   =     -8426.41923599
  -exchange      EXHF   =       768.71482488
  -V(xc)+E(xc)   XCENC  =       279.68902821
  PAW double counting   =     38245.06048714   -37582.59004746
  entropy T*S    EENTRO =         0.00000000
  eigenvalues    EBANDS =     -3273.27298540
  atomic energy  EATOM  =     24680.42500649
  ---------------------------------------------------
  free energy    TOTEN  =      -478.04232205 eV

  energy without entropy =     -478.04232205  energy(sigma->0) =     -478.04232205
  exchange ACFDT corr.  =         0.00000000  see jH, gK, PRB 81, 115126


--------------------------------------------------------------------------------------------------------




----------------------------------------- Iteration    1(  10)  ---------------------------------------


    POTLOK:  cpu time    0.2720: real time    0.2693
    SETDIJ:  cpu time    0.6240: real time    0.6250
    TRIAL :  cpu time  289.8141: real time  290.0211
    CORREC:  cpu time  290.4542: real time  290.6365
    CHARGE:  cpu time    0.8841: real time    0.8822
    --------------------------------------------
      LOOP:  cpu time  582.0484: real time  582.4503

 eigenvalue-minimisations  :     0
 total energy-change (2. order) :-0.8643151E+00  (-0.2202097E+00)
 number of electron     400.0000000 magnetization 
 augmentation part        9.2458405 magnetization 

 Free energy of the ion-electron system (eV)
  ---------------------------------------------------
  alpha Z        PSCENC =       370.05370877
  Ewald energy   TEWEN  =    -15539.70310868
  -Hartree energ DENC   =     -8429.45918590
  -exchange      EXHF   =       768.22241285
  -V(xc)+E(xc)   XCENC  =       279.03935136
  PAW double counting   =     35773.81926102   -35109.99463924
  entropy T*S    EENTRO =         0.00000000
  eigenvalues    EBANDS =     -3271.30944381
  atomic energy  EATOM  =     24680.42500649
  ---------------------------------------------------
  free energy    TOTEN  =      -478.90663715 eV

  energy without entropy =     -478.90663715  energy(sigma->0) =     -478.90663715
  exchange ACFDT corr.  =         0.00000000  see jH, gK, PRB 81, 115126


--------------------------------------------------------------------------------------------------------




----------------------------------------- Iteration    1(  11)  ---------------------------------------


    POTLOK:  cpu time    0.2640: real time    0.2646
    SETDIJ:  cpu time    0.6360: real time    0.6358
    TRIAL :  cpu time  288.9141: real time  289.1171
    CORREC:  cpu time  289.4221: real time  289.6057
    CHARGE:  cpu time    0.8641: real time    0.8636
    --------------------------------------------
      LOOP:  cpu time  580.1003: real time  580.5037

 eigenvalue-minimisations  :     0
 total energy-change (2. order) :-0.2201928E+00  (-0.1112327E+00)
 number of electron     400.0000000 magnetization 
 augmentation part        9.3436400 magnetization 

 Free energy of the ion-electron system (eV)
  ---------------------------------------------------
  alpha Z        PSCENC =       370.05370877
  Ewald energy   TEWEN  =    -15539.70310868
  -Hartree energ DENC   =     -8401.65026796
  -exchange      EXHF   =       767.63195752
  -V(xc)+E(xc)   XCENC  =       278.09843007
  PAW double counting   =     35169.49493223   -34505.99153763
  entropy T*S    EENTRO =        -0.00000000
  eigenvalues    EBANDS =     -3297.48595073
  atomic energy  EATOM  =     24680.42500649
  ---------------------------------------------------
  free energy    TOTEN  =      -479.12682993 eV

  energy without entropy =     -479.12682993  energy(sigma->0) =     -479.12682993
  exchange ACFDT corr.  =         0.00000000  see jH, gK, PRB 81, 115126


--------------------------------------------------------------------------------------------------------




----------------------------------------- Iteration    1(  12)  ---------------------------------------


    POTLOK:  cpu time    0.2680: real time    0.2655
    SETDIJ:  cpu time    0.6320: real time    0.6344
    TRIAL :  cpu time  288.8340: real time  289.0423
    CORREC:  cpu time  289.2741: real time  289.4592
    CHARGE:  cpu time    0.8641: real time    0.8635
    --------------------------------------------
      LOOP:  cpu time  579.8722: real time  580.2845

 eigenvalue-minimisations  :     0
 total energy-change (2. order) :-0.1111190E+00  (-0.3444896E-01)
 number of electron     400.0000000 magnetization 
 augmentation part        9.3536129 magnetization 

 Free energy of the ion-electron system (eV)
  ---------------------------------------------------
  alpha Z        PSCENC =       370.05370877
  Ewald energy   TEWEN  =    -15539.70310868
  -Hartree energ DENC   =     -8419.61409640
  -exchange      EXHF   =       768.16686830
  -V(xc)+E(xc)   XCENC  =       278.56347105
  PAW double counting   =     35052.01454070   -34388.01935750
  entropy T*S    EENTRO =        -0.00000000
  eigenvalues    EBANDS =     -3281.12498165
  atomic energy  EATOM  =     24680.42500649
  ---------------------------------------------------
  free energy    TOTEN  =      -479.23794892 eV

  energy without entropy =     -479.23794892  energy(sigma->0) =     -479.23794892
  exchange ACFDT corr.  =         0.00000000  see jH, gK, PRB 81, 115126


--------------------------------------------------------------------------------------------------------




----------------------------------------- Iteration    1(  13)  ---------------------------------------


    POTLOK:  cpu time    0.2640: real time    0.2668
    SETDIJ:  cpu time    0.6400: real time    0.6383
    TRIAL :  cpu time  288.3700: real time  288.6384
    CORREC:  cpu time  290.0581: real time  290.2387
    CHARGE:  cpu time    0.8601: real time    0.8604
    --------------------------------------------
      LOOP:  cpu time  580.1963: real time  580.6641

 eigenvalue-minimisations  :     0
 total energy-change (2. order) :-0.3438525E-01  (-0.9913996E-02)
 number of electron     400.0000000 magnetization 
 augmentation part        9.3311567 magnetization 

 Free energy of the ion-electron system (eV)
  ---------------------------------------------------
  alpha Z        PSCENC =       370.05370877
  Ewald energy   TEWEN  =    -15539.70310868
  -Hartree energ DENC   =     -8420.03855828
  -exchange      EXHF   =       768.26854108
  -V(xc)+E(xc)   XCENC  =       278.63545800
  PAW double counting   =     35244.21316095   -34580.21649902
  entropy T*S    EENTRO =         0.00000000
  eigenvalues    EBANDS =     -3280.91004347
  atomic energy  EATOM  =     24680.42500649
  ---------------------------------------------------
  free energy    TOTEN  =      -479.27233417 eV

  energy without entropy =     -479.27233417  energy(sigma->0) =     -479.27233417
  exchange ACFDT corr.  =         0.00000000  see jH, gK, PRB 81, 115126


--------------------------------------------------------------------------------------------------------




----------------------------------------- Iteration    1(  14)  ---------------------------------------


    POTLOK:  cpu time    0.2680: real time    0.2662
    SETDIJ:  cpu time    0.6360: real time    0.6357
    TRIAL :  cpu time  288.7900: real time  288.9727
    CORREC:  cpu time  290.9862: real time  291.1637
    CHARGE:  cpu time    0.8601: real time    0.8610
    --------------------------------------------
      LOOP:  cpu time  581.5403: real time  581.9173

 eigenvalue-minimisations  :     0
 total energy-change (2. order) :-0.9907717E-02  (-0.2788089E-02)
 number of electron     400.0000000 magnetization 
 augmentation part        9.3629824 magnetization 

 Free energy of the ion-electron system (eV)
  ---------------------------------------------------
  alpha Z        PSCENC =       370.05370877
  Ewald energy   TEWEN  =    -15539.70310868
  -Hartree energ DENC   =     -8417.17955140
  -exchange      EXHF   =       768.19952168
[...]


 FORCES acting on ions:
    Electron-Ion                     Ewald-Force                    Non-Local-Force
 -----------------------------------------------------------------------------------------------
   0.854E+02 0.563E-01 0.436E+02   -.923E+02 -.644E-01 -.476E+02   0.642E+01 0.738E-02 0.367E+01
   0.844E+02 0.530E-01 0.295E+02   -.918E+02 -.620E-01 -.320E+02   0.698E+01 0.828E-02 0.230E+01
   0.844E+02 0.530E-01 0.295E+02   -.918E+02 -.620E-01 -.320E+02   0.698E+01 0.828E-02 0.230E+01
   0.854E+02 0.563E-01 0.436E+02   -.923E+02 -.644E-01 -.476E+02   0.642E+01 0.738E-02 0.367E+01
   0.854E+02 0.563E-01 0.436E+02   -.923E+02 -.644E-01 -.476E+02   0.642E+01 0.738E-02 0.367E+01
   0.844E+02 0.530E-01 0.295E+02   -.918E+02 -.620E-01 -.320E+02   0.698E+01 0.828E-02 0.230E+01
   0.844E+02 0.530E-01 0.295E+02   -.918E+02 -.620E-01 -.320E+02   0.698E+01 0.828E-02 0.230E+01
   0.854E+02 0.563E-01 0.436E+02   -.923E+02 -.644E-01 -.476E+02   0.642E+01 0.738E-02 0.367E+01
   -.355E+02 -.678E-01 -.203E+02   0.347E+02 0.629E-01 0.194E+02   0.112E+01 0.447E-02 0.114E+01
   -.390E+02 -.116E+00 -.136E+02   0.378E+02 0.113E+00 0.136E+02   0.151E+01 0.209E-02 0.198E+00
   -.390E+02 -.116E+00 -.136E+02   0.378E+02 0.113E+00 0.136E+02   0.151E+01 0.209E-02 0.198E+00
   -.355E+02 -.678E-01 -.203E+02   0.347E+02 0.629E-01 0.194E+02   0.112E+01 0.447E-02 0.114E+01
   -.355E+02 -.678E-01 -.203E+02   0.347E+02 0.629E-01 0.194E+02   0.112E+01 0.447E-02 0.114E+01
   -.390E+02 -.116E+00 -.136E+02   0.378E+02 0.113E+00 0.136E+02   0.151E+01 0.209E-02 0.198E+00
   -.390E+02 -.116E+00 -.136E+02   0.378E+02 0.113E+00 0.136E+02   0.151E+01 0.209E-02 0.198E+00
   -.355E+02 -.678E-01 -.203E+02   0.347E+02 0.629E-01 0.194E+02   0.112E+01 0.447E-02 0.114E+01
   0.168E+01 0.598E-01 0.514E+02   -.878E+00 -.666E-01 -.566E+02   -.856E+00 0.723E-02 0.552E+01
   0.893E+01 0.341E-01 0.517E+02   -.916E+01 -.379E-01 -.569E+02   0.247E+00 0.392E-02 0.557E+01
   0.893E+01 0.341E-01 0.517E+02   -.916E+01 -.379E-01 -.569E+02   0.247E+00 0.392E-02 0.557E+01
   0.168E+01 0.598E-01 0.514E+02   -.878E+00 -.666E-01 -.566E+02   -.856E+00 0.723E-02 0.552E+01
   0.168E+01 0.598E-01 0.514E+02   -.878E+00 -.666E-01 -.566E+02   -.856E+00 0.723E-02 0.552E+01
   0.893E+01 0.341E-01 0.517E+02   -.916E+01 -.379E-01 -.569E+02   0.247E+00 0.392E-02 0.557E+01
   0.893E+01 0.341E-01 0.517E+02   -.916E+01 -.379E-01 -.569E+02   0.247E+00 0.392E-02 0.557E+01
   0.168E+01 0.598E-01 0.514E+02   -.878E+00 -.666E-01 -.566E+02   -.856E+00 0.723E-02 0.552E+01
   0.327E+02 -.393E+02 -.753E+01   -.355E+02 0.437E+02 0.884E+01   0.297E+01 -.457E+01 -.135E+01
   0.280E+02 -.394E+02 -.129E+02   -.306E+02 0.438E+02 0.147E+02   0.268E+01 -.455E+01 -.189E+01
   0.280E+02 -.394E+02 -.129E+02   -.306E+02 0.438E+02 0.147E+02   0.268E+01 -.455E+01 -.189E+01
   0.327E+02 -.393E+02 -.753E+01   -.355E+02 0.437E+02 0.884E+01   0.297E+01 -.457E+01 -.135E+01
   0.327E+02 -.393E+02 -.753E+01   -.355E+02 0.437E+02 0.884E+01   0.297E+01 -.457E+01 -.135E+01
   0.280E+02 -.394E+02 -.129E+02   -.306E+02 0.438E+02 0.147E+02   0.268E+01 -.455E+01 -.189E+01
   0.280E+02 -.394E+02 -.129E+02   -.306E+02 0.438E+02 0.147E+02   0.268E+01 -.455E+01 -.189E+01
   0.327E+02 -.393E+02 -.753E+01   -.355E+02 0.437E+02 0.884E+01   0.297E+01 -.457E+01 -.135E+01
   0.327E+02 0.393E+02 -.764E+01   -.355E+02 -.437E+02 0.895E+01   0.296E+01 0.457E+01 -.136E+01
   0.280E+02 0.394E+02 -.129E+02   -.305E+02 -.438E+02 0.147E+02   0.267E+01 0.456E+01 -.190E+01
   0.280E+02 0.394E+02 -.129E+02   -.305E+02 -.438E+02 0.147E+02   0.267E+01 0.456E+01 -.190E+01
   0.327E+02 0.393E+02 -.764E+01   -.355E+02 -.437E+02 0.895E+01   0.296E+01 0.457E+01 -.136E+01
   0.327E+02 0.393E+02 -.764E+01   -.355E+02 -.437E+02 0.895E+01   0.296E+01 0.457E+01 -.136E+01
   0.280E+02 0.394E+02 -.129E+02   -.305E+02 -.438E+02 0.147E+02   0.267E+01 0.456E+01 -.190E+01
   0.280E+02 0.394E+02 -.129E+02   -.305E+02 -.438E+02 0.147E+02   0.267E+01 0.456E+01 -.190E+01
   0.327E+02 0.393E+02 -.764E+01   -.355E+02 -.437E+02 0.895E+01   0.296E+01 0.457E+01 -.136E+01
   -.351E+02 -.480E+02 0.143E+02   0.385E+02 0.531E+02 -.158E+02   -.367E+01 -.544E+01 0.150E+01
   -.318E+02 -.488E+02 0.204E+02   0.349E+02 0.540E+02 -.225E+02   -.337E+01 -.544E+01 0.221E+01
   -.318E+02 -.488E+02 0.204E+02   0.349E+02 0.540E+02 -.225E+02   -.337E+01 -.544E+01 0.221E+01
   -.351E+02 -.480E+02 0.143E+02   0.385E+02 0.531E+02 -.158E+02   -.367E+01 -.544E+01 0.150E+01
   -.351E+02 -.480E+02 0.143E+02   0.385E+02 0.531E+02 -.158E+02   -.367E+01 -.544E+01 0.150E+01
   -.318E+02 -.488E+02 0.204E+02   0.349E+02 0.540E+02 -.225E+02   -.337E+01 -.544E+01 0.221E+01
   -.318E+02 -.488E+02 0.204E+02   0.349E+02 0.540E+02 -.225E+02   -.337E+01 -.544E+01 0.221E+01
   -.351E+02 -.480E+02 0.143E+02   0.385E+02 0.531E+02 -.158E+02   -.367E+01 -.544E+01 0.150E+01
   -.351E+02 0.480E+02 0.142E+02   0.386E+02 -.531E+02 -.156E+02   -.367E+01 0.544E+01 0.148E+01
   -.318E+02 0.488E+02 0.203E+02   0.350E+02 -.539E+02 -.224E+02   -.338E+01 0.543E+01 0.220E+01
   -.318E+02 0.488E+02 0.203E+02   0.350E+02 -.539E+02 -.224E+02   -.338E+01 0.543E+01 0.220E+01
   -.351E+02 0.480E+02 0.142E+02   0.386E+02 -.531E+02 -.156E+02   -.367E+01 0.544E+01 0.148E+01
   -.351E+02 0.480E+02 0.142E+02   0.386E+02 -.531E+02 -.156E+02   -.367E+01 0.544E+01 0.148E+01
   -.318E+02 0.488E+02 0.203E+02   0.350E+02 -.539E+02 -.224E+02   -.338E+01 0.543E+01 0.220E+01
   -.318E+02 0.488E+02 0.203E+02   0.350E+02 -.539E+02 -.224E+02   -.338E+01 0.543E+01 0.220E+01
   -.351E+02 0.480E+02 0.142E+02   0.386E+02 -.531E+02 -.156E+02   -.367E+01 0.544E+01 0.148E+01
   0.998E+01 -.893E-01 -.651E+02   -.107E+02 0.991E-01 0.716E+02   0.741E+00 -.103E-01 -.689E+01
   -.280E+01 -.540E-01 -.615E+02   0.339E+01 0.583E-01 0.677E+02   -.715E+00 -.443E-02 -.662E+01
   -.280E+01 -.540E-01 -.615E+02   0.339E+01 0.583E-01 0.677E+02   -.715E+00 -.443E-02 -.662E+01
   0.998E+01 -.893E-01 -.651E+02   -.107E+02 0.991E-01 0.716E+02   0.741E+00 -.103E-01 -.689E+01
   0.998E+01 -.893E-01 -.651E+02   -.107E+02 0.991E-01 0.716E+02   0.741E+00 -.103E-01 -.689E+01
   -.280E+01 -.540E-01 -.615E+02   0.339E+01 0.583E-01 0.677E+02   -.715E+00 -.443E-02 -.662E+01
   -.280E+01 -.540E-01 -.615E+02   0.339E+01 0.583E-01 0.677E+02   -.715E+00 -.443E-02 -.662E+01
   0.998E+01 -.893E-01 -.651E+02   -.107E+02 0.991E-01 0.716E+02   0.741E+00 -.103E-01 -.689E+01
   -.310E+02 -.820E+01 -.117E+02   0.297E+02 0.827E+01 0.114E+02   0.123E+01 -.648E-01 0.323E+00
   -.310E+02 0.833E+01 -.118E+02   0.297E+02 -.842E+01 0.114E+02   0.123E+01 0.757E-01 0.322E+00
   -.310E+02 0.833E+01 -.118E+02   0.297E+02 -.842E+01 0.114E+02   0.123E+01 0.757E-01 0.322E+00
   -.310E+02 -.820E+01 -.117E+02   0.297E+02 0.827E+01 0.114E+02   0.123E+01 -.648E-01 0.323E+00
   -.310E+02 -.820E+01 -.117E+02   0.297E+02 0.827E+01 0.114E+02   0.123E+01 -.648E-01 0.323E+00
   -.310E+02 0.833E+01 -.118E+02   0.297E+02 -.842E+01 0.114E+02   0.123E+01 0.757E-01 0.322E+00
   -.310E+02 0.833E+01 -.118E+02   0.297E+02 -.842E+01 0.114E+02   0.123E+01 0.757E-01 0.322E+00
   -.310E+02 -.820E+01 -.117E+02   0.297E+02 0.827E+01 0.114E+02   0.123E+01 -.648E-01 0.323E+00
   -.173E+02 -.429E+01 0.560E+01   0.174E+02 0.430E+01 -.554E+01   -.101E+00 -.850E-02 -.770E-01
   -.172E+02 0.436E+01 0.561E+01   0.174E+02 -.438E+01 -.554E+01   -.997E-01 0.963E-02 -.767E-01
   -.172E+02 0.436E+01 0.561E+01   0.174E+02 -.438E+01 -.554E+01   -.997E-01 0.963E-02 -.767E-01
   -.173E+02 -.429E+01 0.560E+01   0.174E+02 0.430E+01 -.554E+01   -.101E+00 -.850E-02 -.770E-01
   -.173E+02 -.429E+01 0.560E+01   0.174E+02 0.430E+01 -.554E+01   -.101E+00 -.850E-02 -.770E-01
   -.172E+02 0.436E+01 0.561E+01   0.174E+02 -.438E+01 -.554E+01   -.997E-01 0.963E-02 -.767E-01
   -.172E+02 0.436E+01 0.561E+01   0.174E+02 -.438E+01 -.554E+01   -.997E-01 0.963E-02 -.767E-01
   -.173E+02 -.429E+01 0.560E+01   0.174E+02 0.430E+01 -.554E+01   -.101E+00 -.850E-02 -.770E-01
   -.275E+02 -.477E-01 -.161E+02   0.275E+02 0.491E-01 0.166E+02   -.188E-02 -.106E-02 -.526E+00
   -.768E+00 -.603E-01 -.162E+02   0.541E+00 0.617E-01 0.169E+02   0.241E+00 -.112E-02 -.685E+00
   -.768E+00 -.603E-01 -.162E+02   0.541E+00 0.617E-01 0.169E+02   0.241E+00 -.112E-02 -.685E+00
   -.275E+02 -.478E-01 -.161E+02   0.275E+02 0.491E-01 0.166E+02   -.188E-02 -.106E-02 -.526E+00
   -.275E+02 -.477E-01 -.161E+02   0.275E+02 0.491E-01 0.166E+02   -.188E-02 -.106E-02 -.526E+00
   -.768E+00 -.603E-01 -.162E+02   0.541E+00 0.617E-01 0.169E+02   0.241E+00 -.112E-02 -.685E+00
   -.768E+00 -.603E-01 -.162E+02   0.541E+00 0.617E-01 0.169E+02   0.241E+00 -.112E-02 -.685E+00
   -.275E+02 -.478E-01 -.161E+02   0.275E+02 0.491E-01 0.166E+02   -.188E-02 -.106E-02 -.526E+00
   0.466E+01 0.440E+01 -.278E+01   -.412E+01 -.463E+01 0.238E+01   -.562E+00 0.209E+00 0.420E+00
   0.466E+01 -.438E+01 -.276E+01   -.411E+01 0.461E+01 0.236E+01   -.562E+00 -.211E+00 0.421E+00
   0.466E+01 -.438E+01 -.276E+01   -.411E+01 0.461E+01 0.236E+01   -.562E+00 -.211E+00 0.421E+00
   0.466E+01 0.440E+01 -.278E+01   -.412E+01 -.463E+01 0.238E+01   -.562E+00 0.209E+00 0.420E+00
   0.466E+01 0.440E+01 -.278E+01   -.412E+01 -.463E+01 0.238E+01   -.562E+00 0.209E+00 0.420E+00
   0.466E+01 -.438E+01 -.276E+01   -.411E+01 0.461E+01 0.236E+01   -.562E+00 -.211E+00 0.421E+00
   0.466E+01 -.438E+01 -.276E+01   -.411E+01 0.461E+01 0.236E+01   -.562E+00 -.211E+00 0.421E+00
   0.466E+01 0.440E+01 -.278E+01   -.412E+01 -.463E+01 0.238E+01   -.562E+00 0.209E+00 0.420E+00
 -----------------------------------------------------------------------------------------------
   -.599E+02 -.118E+00 -.251E+02   0.232E-12 -.924E-13 0.156E-12   0.561E+02 0.110E+00 0.236E+02
 
 
 POSITION                                       TOTAL-FORCE (eV/Angst)
 -----------------------------------------------------------------------------------
      2.58848      3.11398      2.81957        -0.123208     -0.000407     -0.174113
      8.71949      3.11426      3.13977        -0.157472     -0.000340     -0.145346
      2.43166      9.34207      3.07030        -0.157472     -0.000340     -0.145346
      8.87750      9.34371      2.88829        -0.123208     -0.000407     -0.174113
      2.65819      3.11403      9.19328        -0.123208     -0.000407     -0.174113
      8.78919      3.11430      9.51348        -0.157472     -0.000340     -0.145346
      2.50137      9.34211      9.44401        -0.157472     -0.000340     -0.145346
      8.94721      9.34375      9.26200        -0.123208     -0.000407     -0.174113
      3.89071      3.11529      3.54061         0.368031     -0.000074      0.268593
     10.13490      3.11574      3.59492         0.440232     -0.000240      0.210312
      3.84708      9.34355      3.52545         0.440232     -0.000240      0.210312
     10.17973      9.34502      3.60934         0.368031     -0.000074      0.268593
      3.96042      3.11534      9.91432         0.368031     -0.000074      0.268593
     10.20460      3.11579      9.96863         0.440232     -0.000240      0.210312
      3.91678      9.34360      9.89916         0.440232     -0.000240      0.210312
     10.24944      9.34506      9.98305         0.368031     -0.000074      0.268593
      2.78657      3.11258      1.73294        -0.092205      0.000717      0.567558
      8.70068      3.11350      2.03540         0.033630      0.000326      0.565915
      2.41286      9.34131      1.96592         0.033630      0.000326      0.565915
      9.07559      9.34231      1.80166        -0.092205      0.000717      0.567558
      2.85628      3.11262      8.10665        -0.092205      0.000717      0.567558
      8.77039      3.11355      8.40911         0.033630      0.000326      0.565915
      2.48256      9.34136      8.33963         0.033630      0.000326      0.565915
      9.14529      9.34235      8.17537        -0.092205      0.000717      0.567558
      2.02521      4.01727      3.10166         0.266475     -0.354134     -0.105717
      8.21738      4.01575      3.52394         0.247383     -0.353020     -0.150056
      1.92956     10.24356      3.45447         0.247383     -0.353020     -0.150056
      8.31423     10.24700      3.17038         0.266475     -0.354134     -0.105717
      2.09492      4.01732      9.47537         0.266475     -0.354134     -0.105717
      8.28709      4.01580      9.89765         0.247383     -0.353020     -0.150056
      1.99927     10.24361      9.82818         0.247383     -0.353020     -0.150056
      8.38393     10.24705      9.54409         0.266475     -0.354134     -0.105717
      2.02588      2.21105      3.10410         0.265600      0.354042     -0.106977
      8.21905      2.21237      3.52520         0.246145      0.353303     -0.150830
      1.93123      8.44019      3.45573         0.246145      0.353303     -0.150830
      8.31489      8.44078      3.17282         0.265600      0.354042     -0.106977
      2.09558      2.21109      9.47781         0.265600      0.354042     -0.106977
      8.28876      2.21242      9.89891         0.246145      0.353303     -0.150830
      2.00094      8.44023      9.82944         0.246145      0.353303     -0.150830
      8.38460      8.44082      9.54653         0.265600      0.354042     -0.106977
      4.46183      3.96327      3.30525        -0.397067     -0.538888      0.134850
     10.65413      3.95892      3.25259        -0.372169     -0.529183      0.210729
      4.36631     10.18674      3.18312        -0.372169     -0.529183      0.210729
     10.75085     10.19300      3.37398        -0.397067     -0.538888      0.134850
      4.53154      3.96332      9.67896        -0.397067     -0.538888      0.134850
     10.72383      3.95897      9.62630        -0.372169     -0.529183      0.210729
      4.43601     10.18678      9.55683        -0.372169     -0.529183      0.210729
     10.82055     10.19305      9.74769        -0.397067     -0.538888      0.134850
      4.46209      2.26674      3.30769        -0.397859      0.539937      0.132899
     10.65536      2.27275      3.25380        -0.373604      0.529799      0.209616
      4.36754      8.50056      3.18433        -0.373604      0.529799      0.209616
     10.75111      8.49647      3.37642        -0.397859      0.539937      0.132899
      4.53179      2.26679      9.68141        -0.397859      0.539937      0.132899
     10.72507      2.27279      9.62751        -0.373604      0.529799      0.209616
      4.43725      8.50061      9.55804        -0.373604      0.529799      0.209616
     10.82081      8.49652      9.75013        -0.397859      0.539937      0.132899
      3.77289      3.11683      4.57744         0.033227     -0.000988     -0.747847
     10.24112      3.11645      4.64128        -0.152914     -0.000241     -0.767957
      3.95330      9.34426      4.57181        -0.152914     -0.000241     -0.767957
     10.06191      9.34656      4.64617         0.033227     -0.000988     -0.747847
      3.84260      3.11688     10.95115         0.033227     -0.000988     -0.747847
     10.31082      3.11649     11.01499        -0.152914     -0.000241     -0.767957
      4.02300      9.34430     10.94552        -0.152914     -0.000241     -0.767957
     10.13162      9.34661     11.01988         0.033227     -0.000988     -0.747847
      6.01064      6.24253      6.29599         0.013720      0.005051      0.007523
     12.29891      6.21761      6.36512         0.013683     -0.005399      0.007530
      6.01109     12.44542      6.29565         0.013683     -0.005399      0.007530
     12.29846      0.01472      6.36546         0.013720      0.005051      0.007523
      6.08034      6.24257     12.66970         0.013720      0.005051      0.007523
     12.36862      6.21766     12.73883         0.013683     -0.005399      0.007530
      6.08080     12.44547     12.66936         0.013683     -0.005399      0.007530
     12.36816      0.01476     12.73917         0.013720      0.005051      0.007523
      5.75315      6.23644      3.09087         0.047995      0.005510     -0.014599
     12.04118      6.22362      3.16005         0.047942     -0.005942     -0.014600
      5.75336     12.45143      3.09058         0.047942     -0.005942     -0.014600
     12.04097      0.00863      3.16034         0.047995      0.005510     -0.014599
      5.82286      6.23648      9.46458         0.047995      0.005510     -0.014599
     12.11088      6.22366      9.53376         0.047942     -0.005942     -0.014600
      5.82306     12.45148      9.46429         0.047942     -0.005942     -0.014600
     12.11068      0.00867      9.53405         0.047995      0.005510     -0.014599
      5.90800      3.11497      0.16763         0.076483      0.000226     -0.014078
     11.69430      3.11595      0.32704         0.033527      0.000234     -0.005362
      5.40648      9.34377      0.25756         0.033527      0.000234     -0.005362
     12.19701      9.34470      0.23635         0.076483      0.000226     -0.014078
      5.97770      3.11502      6.54134         0.076483      0.000226     -0.014078
     11.76401      3.11600      6.70075         0.033527      0.000234     -0.005362
      5.47619      9.34381      6.63127         0.033527      0.000234     -0.005362
     12.26672      9.34475      6.61006         0.076483      0.000226     -0.014078
      2.78368      5.93176      5.90914        -0.033790     -0.006828      0.041022
      9.07204      6.52758      5.97820        -0.033785      0.006540      0.040933
      2.78302      0.29785      5.90947        -0.033785      0.006540      0.040933
      9.07270     12.16149      5.97786        -0.033790     -0.006828      0.041022
      2.85339      5.93181     12.28285        -0.033790     -0.006828      0.041022
      9.14174      6.52762     12.35191        -0.033785      0.006540      0.040933
      2.85273      0.29790     12.28318        -0.033785      0.006540      0.040933
      9.14241     12.16153     12.35157        -0.033790     -0.006828      0.041022
 -----------------------------------------------------------------------------------
    total drift:                                0.001989      0.000400     -0.005427


--------------------------------------------------------------------------------------------------------



  FREE ENERGIE OF THE ION-ELECTRON SYSTEM (eV)
  ---------------------------------------------------
  free  energy   TOTEN  =      -479.28750621 eV

  energy  without entropy=     -479.28750621  energy(sigma->0) =     -479.28750621
 


--------------------------------------------------------------------------------------------------------


    POTLOK:  cpu time    0.9641: real time    0.9665


--------------------------------------------------------------------------------------------------------


     LOOP+:  cpu time18763.9527: real time18782.3663
    4ORBIT:  cpu time    0.0000: real time    0.0000

 total amount of memory used by VASP on root node   247485. kBytes
========================================================================

   base      :      30000. kBytes
   nonl-proj :      82891. kBytes
   fftplans  :      15020. kBytes
   grid      :      12652. kBytes
   one-center:        124. kBytes
   HF        :        259. kBytes
   nonlr-proj:      28953. kBytes
   wavefun   :      77586. kBytes
 
  
  
 General timing and accounting informations for this job:
 ========================================================
  
                  Total CPU time used (sec):    18813.824
                            User time (sec):    18800.255
                          System time (sec):       13.569
                         Elapsed time (sec):    18845.389
  
                   Maximum memory used (kb):      383820.
                   Average memory used (kb):           0.
  
                          Minor page faults:       151213
                          Major page faults:            0
                 Voluntary context switches:          960
