  96  96   0   0
  0.2080188E+02  0.1257760E-08  0.1245754E-08  0.1274818E-08  0.5000000E-15
  1.000000000000000E-004
  CAR 
 MAPbI3-Cubic                            
     10.62765558    -19.60077319  301      1.50874623      1.00000000
    -19.601  0.0000E+00  0.0000E+00
    -19.500  0.0000E+00  0.0000E+00
    -19.399  0.0000E+00  0.0000E+00
    -19.298  0.0000E+00  0.0000E+00
    -19.198  0.0000E+00  0.0000E+00
    -19.097  0.0000E+00  0.0000E+00
    -18.996  0.0000E+00  0.0000E+00
    -18.895  0.0000E+00  0.0000E+00
    -18.795  0.0000E+00  0.0000E+00
    -18.694  0.0000E+00  0.0000E+00
    -18.593  0.0000E+00  0.0000E+00
    -18.492  0.0000E+00  0.0000E+00
    -18.392  0.0000E+00  0.0000E+00
    -18.291  0.0000E+00  0.0000E+00
    -18.190  0.0000E+00  0.1600E+02
    -18.089  0.0000E+00  0.1600E+02
    -17.989  0.0000E+00  0.1600E+02
    -17.888  0.0000E+00  0.1600E+02
    -17.787  0.0000E+00  0.1600E+02
    -17.686  0.0000E+00  0.1600E+02
    -17.586  0.0000E+00  0.1600E+02
    -17.485  0.0000E+00  0.1600E+02
    -17.384  0.0000E+00  0.1600E+02
    -17.283  0.0000E+00  0.1600E+02
    -17.182  0.0000E+00  0.1600E+02
    -17.082  0.0000E+00  0.1600E+02
    -16.981  0.0000E+00  0.1600E+02
    -16.880  0.0000E+00  0.1600E+02
    -16.779  0.0000E+00  0.1600E+02
    -16.679  0.0000E+00  0.1600E+02
    -16.578  0.0000E+00  0.1600E+02
    -16.477  0.0000E+00  0.1600E+02
    -16.376  0.0000E+00  0.4800E+02
    -16.276  0.0000E+00  0.4800E+02
    -16.175  0.0000E+00  0.4800E+02
    -16.074  0.0000E+00  0.4800E+02
    -15.973  0.0000E+00  0.4800E+02
    -15.873  0.0000E+00  0.4800E+02
    -15.772  0.0000E+00  0.4800E+02
    -15.671  0.0000E+00  0.4800E+02
    -15.570  0.0000E+00  0.4800E+02
    -15.470  0.0000E+00  0.4800E+02
    -15.369  0.0000E+00  0.4800E+02
    -15.268  0.0000E+00  0.4800E+02
    -15.167  0.0000E+00  0.4800E+02
    -15.067  0.0000E+00  0.4800E+02
    -14.966  0.0000E+00  0.4800E+02
    -14.865  0.0000E+00  0.4800E+02
    -14.764  0.0000E+00  0.4800E+02
    -14.663  0.0000E+00  0.4800E+02
    -14.563  0.0000E+00  0.4800E+02
    -14.462  0.0000E+00  0.4800E+02
    -14.361  0.0000E+00  0.4800E+02
    -14.260  0.0000E+00  0.4800E+02
    -14.160  0.0000E+00  0.4800E+02
    -14.059  0.0000E+00  0.4800E+02
    -13.958  0.0000E+00  0.4800E+02
    -13.857  0.0000E+00  0.8000E+02
    -13.757  0.0000E+00  0.9600E+02
    -13.656  0.0000E+00  0.9600E+02
    -13.555  0.0000E+00  0.9600E+02
    -13.454  0.0000E+00  0.9600E+02
    -13.354  0.0000E+00  0.9600E+02
    -13.253  0.0000E+00  0.9600E+02
    -13.152  0.0000E+00  0.9600E+02
    -13.051  0.0000E+00  0.9600E+02
    -12.951  0.0000E+00  0.9600E+02
    -12.850  0.0000E+00  0.9600E+02
    -12.749  0.0000E+00  0.9600E+02
    -12.648  0.0000E+00  0.9600E+02
    -12.547  0.0000E+00  0.9600E+02
    -12.447  0.0000E+00  0.9600E+02
    -12.346  0.0000E+00  0.9600E+02
    -12.245  0.0000E+00  0.9600E+02
    -12.144  0.0000E+00  0.9600E+02
    -12.044  0.0000E+00  0.9600E+02
    -11.943  0.0000E+00  0.9600E+02
    -11.842  0.0000E+00  0.9600E+02
    -11.741  0.0000E+00  0.9600E+02
    -11.641  0.0000E+00  0.9600E+02
    -11.540  0.0000E+00  0.9600E+02
    -11.439  0.0000E+00  0.9600E+02
    -11.338  0.1911E+02  0.1040E+03
    -11.238  0.0000E+00  0.1120E+03
    -11.137  0.0000E+00  0.1120E+03
    -11.036  0.0000E+00  0.1120E+03
    -10.935  0.0000E+00  0.1120E+03
    -10.835  0.0000E+00  0.1120E+03
    -10.734  0.1470E+01  0.1134E+03
    -10.633  0.5837E+01  0.1178E+03
    -10.532  0.4802E+01  0.1237E+03
    -10.431  0.2910E+01  0.1285E+03
    -10.331  0.2399E+02  0.1339E+03
    -10.230  0.0000E+00  0.1400E+03
    -10.129  0.1540E+01  0.1438E+03
    -10.028  0.1207E+02  0.1541E+03
     -9.928  0.1122E-10  0.1596E+03
     -9.827  0.0000E+00  0.1600E+03
     -9.726  0.0000E+00  0.1600E+03
     -9.625  0.0000E+00  0.1600E+03
     -9.525  0.0000E+00  0.1600E+03
     -9.424  0.0000E+00  0.1600E+03
     -9.323  0.0000E+00  0.1600E+03
     -9.222  0.0000E+00  0.1600E+03
     -9.122  0.0000E+00  0.1600E+03
     -9.021  0.0000E+00  0.1600E+03
     -8.920  0.0000E+00  0.1600E+03
     -8.819  0.0000E+00  0.1600E+03
     -8.719  0.0000E+00  0.1600E+03
     -8.618  0.0000E+00  0.1600E+03
     -8.517  0.0000E+00  0.1600E+03
     -8.416  0.0000E+00  0.1600E+03
     -8.315  0.0000E+00  0.1600E+03
     -8.215  0.0000E+00  0.1600E+03
     -8.114  0.0000E+00  0.1600E+03
     -8.013  0.0000E+00  0.1600E+03
     -7.912  0.0000E+00  0.1600E+03
     -7.812  0.0000E+00  0.1600E+03
     -7.711  0.3088E+02  0.1680E+03
     -7.610  0.0000E+00  0.1840E+03
     -7.509  0.0000E+00  0.1920E+03
     -7.409  0.0000E+00  0.1920E+03
     -7.308  0.0000E+00  0.1920E+03
     -7.207  0.0000E+00  0.1920E+03
     -7.106  0.0000E+00  0.1920E+03
     -7.006  0.0000E+00  0.1920E+03
     -6.905  0.0000E+00  0.1921E+03
     -6.804  0.1470E+01  0.1925E+03
     -6.703  0.1482E+01  0.1927E+03
     -6.603  0.0000E+00  0.1934E+03
     -6.502  0.0000E+00  0.1944E+03
     -6.401  0.2902E+01  0.1963E+03
     -6.300  0.2420E+01  0.1980E+03
     -6.200  0.1138E-04  0.1991E+03
     -6.099  0.0000E+00  0.2009E+03
     -5.998  0.1468E+01  0.2033E+03
     -5.897  0.8255E+00  0.2053E+03
     -5.796  0.1470E+01  0.2136E+03
     -5.696  0.3893E+01  0.2219E+03
     -5.595  0.1999E+01  0.2234E+03
     -5.494  0.0000E+00  0.2235E+03
     -5.393  0.0000E+00  0.2239E+03
     -5.293  0.0000E+00  0.2240E+03
     -5.192  0.0000E+00  0.2240E+03
     -5.091  0.0000E+00  0.2240E+03
     -4.990  0.0000E+00  0.2240E+03
     -4.890  0.0000E+00  0.2240E+03
     -4.789  0.0000E+00  0.2240E+03
     -4.688  0.0000E+00  0.2240E+03
     -4.587  0.0000E+00  0.2240E+03
     -4.487  0.0000E+00  0.2240E+03
     -4.386  0.0000E+00  0.2240E+03
     -4.285  0.0000E+00  0.2240E+03
     -4.184  0.0000E+00  0.2240E+03
     -4.084  0.0000E+00  0.2240E+03
     -3.983  0.0000E+00  0.2240E+03
     -3.882  0.0000E+00  0.2240E+03
     -3.781  0.0000E+00  0.2240E+03
     -3.680  0.0000E+00  0.2240E+03
     -3.580  0.1565E+02  0.2297E+03
     -3.479  0.0000E+00  0.2560E+03
     -3.378  0.0000E+00  0.2560E+03
     -3.277  0.0000E+00  0.2560E+03
     -3.177  0.0000E+00  0.2560E+03
     -3.076  0.0000E+00  0.2560E+03
     -2.975  0.0000E+00  0.2560E+03
     -2.874  0.0000E+00  0.2560E+03
     -2.774  0.0000E+00  0.2560E+03
     -2.673  0.0000E+00  0.2560E+03
     -2.572  0.0000E+00  0.2560E+03
     -2.471  0.0000E+00  0.2560E+03
     -2.371  0.0000E+00  0.2560E+03
     -2.270  0.0000E+00  0.2560E+03
     -2.169  0.1047E-03  0.2564E+03
     -2.068  0.2531E+01  0.2591E+03
     -1.968  0.4364E+01  0.2621E+03
     -1.867  0.2421E+01  0.2647E+03
     -1.766  0.2206E+01  0.2673E+03
     -1.665  0.3193E+01  0.2715E+03
     -1.564  0.4386E+01  0.2753E+03
     -1.464  0.1973E+01  0.2789E+03
     -1.363  0.0000E+00  0.2798E+03
     -1.262  0.1351E-04  0.2801E+03
     -1.161  0.9942E+00  0.2835E+03
     -1.061  0.2940E+01  0.2862E+03
     -0.960  0.8863E+01  0.2924E+03
     -0.859  0.5463E+01  0.2964E+03
     -0.758  0.1448E+01  0.3002E+03
     -0.658  0.3676E+01  0.3024E+03
     -0.557  0.2354E+01  0.3067E+03
     -0.456  0.6640E+01  0.3126E+03
     -0.355  0.3546E+01  0.3187E+03
     -0.255  0.7318E+00  0.3221E+03
     -0.154  0.5859E+01  0.3275E+03
     -0.053  0.5866E+01  0.3357E+03
      0.048  0.7004E+01  0.3442E+03
      0.148  0.1163E+01  0.3507E+03
      0.249  0.4406E+01  0.3542E+03
      0.350  0.3947E+01  0.3596E+03
      0.451  0.5326E+01  0.3650E+03
      0.552  0.2081E+01  0.3707E+03
      0.652  0.3624E+01  0.3780E+03
      0.753  0.5781E+01  0.3864E+03
      0.854  0.4440E+01  0.3922E+03
      0.955  0.2997E+01  0.3956E+03
      1.055  0.2068E+01  0.3975E+03
      1.156  0.7351E+00  0.3989E+03
      1.257  0.6577E-05  0.3994E+03
      1.358  0.0000E+00  0.3999E+03
      1.458  0.0000E+00  0.3999E+03
      1.559  0.0000E+00  0.4000E+03
      1.660  0.0000E+00  0.4000E+03
      1.761  0.0000E+00  0.4000E+03
      1.861  0.0000E+00  0.4000E+03
      1.962  0.0000E+00  0.4000E+03
      2.063  0.0000E+00  0.4000E+03
      2.164  0.3407E-01  0.4000E+03
      2.264  0.0000E+00  0.4001E+03
      2.365  0.0000E+00  0.4002E+03
      2.466  0.0000E+00  0.4003E+03
      2.567  0.0000E+00  0.4004E+03
      2.668  0.7351E+00  0.4007E+03
      2.768  0.0000E+00  0.4011E+03
      2.869  0.0000E+00  0.4019E+03
      2.970  0.0000E+00  0.4022E+03
      3.071  0.0000E+00  0.4028E+03
      3.171  0.7351E+00  0.4040E+03
      3.272  0.1121E-01  0.4046E+03
      3.373  0.1155E+01  0.4057E+03
      3.474  0.7351E+00  0.4066E+03
      3.574  0.7351E+00  0.4082E+03
      3.675  0.7351E+00  0.4093E+03
      3.776  0.0000E+00  0.4096E+03
      3.877  0.7351E+00  0.4110E+03
      3.977  0.0000E+00  0.4121E+03
      4.078  0.6621E-02  0.4133E+03
      4.179  0.1446E+01  0.4148E+03
      4.280  0.1468E+01  0.4168E+03
      4.380  0.1387E+01  0.4187E+03
      4.481  0.1470E+01  0.4202E+03
      4.582  0.1029E+01  0.4215E+03
      4.683  0.0000E+00  0.4226E+03
      4.783  0.7351E+00  0.4232E+03
      4.884  0.0000E+00  0.4241E+03
      4.985  0.5860E+00  0.4249E+03
      5.086  0.5157E+00  0.4252E+03
      5.187  0.8998E-07  0.4265E+03
      5.287  0.2739E+00  0.4277E+03
      5.388  0.1471E+01  0.4296E+03
      5.489  0.1589E-02  0.4323E+03
      5.590  0.4260E+01  0.4359E+03
      5.690  0.7395E+00  0.4382E+03
      5.791  0.2205E+01  0.4405E+03
      5.892  0.2941E+01  0.4430E+03
      5.993  0.0000E+00  0.4461E+03
      6.093  0.4391E+01  0.4497E+03
      6.194  0.7351E+00  0.4536E+03
      6.295  0.3781E+01  0.4584E+03
      6.396  0.2205E+01  0.4623E+03
      6.496  0.5266E+01  0.4675E+03
      6.597  0.2945E+01  0.4727E+03
      6.698  0.4980E+01  0.4778E+03
      6.799  0.3981E+01  0.4816E+03
      6.899  0.4754E+01  0.4863E+03
      7.000  0.2686E+01  0.4889E+03
      7.101  0.1814E+01  0.4924E+03
      7.202  0.2288E+01  0.4987E+03
      7.303  0.7351E+00  0.5030E+03
      7.403  0.1973E+01  0.5080E+03
      7.504  0.4242E+01  0.5124E+03
      7.605  0.2941E+01  0.5165E+03
      7.706  0.2298E+01  0.5213E+03
      7.806  0.1482E+01  0.5268E+03
      7.907  0.6246E+01  0.5324E+03
      8.008  0.1536E+01  0.5379E+03
      8.109  0.8425E+00  0.5422E+03
      8.209  0.6543E+01  0.5480E+03
      8.310  0.3588E+01  0.5534E+03
      8.411  0.3075E+01  0.5593E+03
      8.512  0.5557E+01  0.5657E+03
      8.612  0.4747E+01  0.5720E+03
      8.713  0.5683E+01  0.5776E+03
      8.814  0.6259E+01  0.5830E+03
      8.915  0.6766E+01  0.5898E+03
      9.015  0.4982E+01  0.5954E+03
      9.116  0.3956E+01  0.5978E+03
      9.217  0.3676E+00  0.5998E+03
      9.318  0.0000E+00  0.6000E+03
      9.419  0.0000E+00  0.6000E+03
      9.519  0.0000E+00  0.6000E+03
      9.620  0.0000E+00  0.6000E+03
      9.721  0.0000E+00  0.6000E+03
      9.822  0.0000E+00  0.6000E+03
      9.922  0.0000E+00  0.6000E+03
     10.023  0.0000E+00  0.6000E+03
     10.124  0.0000E+00  0.6000E+03
     10.225  0.0000E+00  0.6000E+03
     10.325  0.0000E+00  0.6000E+03
     10.426  0.0000E+00  0.6000E+03
     10.527  0.0000E+00  0.6000E+03
     10.628  0.0000E+00  0.6000E+03
