 running on  192 total cores
 distrk:  each k-point on  192 cores,    1 groups
 distr:  one band on   24 cores,    8 groups
 using from now: INCAR     
 vasp.5.4.1 24Jun15 (build Nov 25 2015 16:39:35) complex                        
  
 POSCAR found type information on POSCAR  C  N  H  Pb I 
 POSCAR found :  5 types and      96 ions
 scaLAPACK will be used

 ----------------------------------------------------------------------------- 
|                                                                             |
|  ADVICE TO THIS USER RUNNING 'VASP/VAMP'   (HEAR YOUR MASTER'S VOICE ...):  |
|                                                                             |
|      You have a (more or less) 'large supercell' and for larger cells       |
|      it might be more efficient to use real space projection opertators     |
|      So try LREAL= Auto  in the INCAR   file.                               |
|      Mind: At the moment your POTCAR file does not contain real space       |
|       projectors, and has to be modified,  BUT if you                       |
|      want to do an extremely  accurate calculation you might also keep the  |
|      reciprocal projection scheme          (i.e. LREAL=.FALSE.)             |
|                                                                             |
 ----------------------------------------------------------------------------- 


 ----------------------------------------------------------------------------- 
|                                                                             |
|  ADVICE TO THIS USER RUNNING 'VASP/VAMP'   (HEAR YOUR MASTER'S VOICE ...):  |
|                                                                             |
|      You enforced a specific xc-type in the INCAR file,                     |
|      a different type was found on the POTCAR file                          |
|          I HOPE YOU KNOW, WHAT YOU ARE  DOING                               |
|                                                                             |
 ----------------------------------------------------------------------------- 

 LDA part: xc-table for Pade appr. of Perdew
 POSCAR, INCAR and KPOINTS ok, starting setup
 WARNING: small aliasing (wrap around) errors must be expected
 FFT: planning ...
 WAVECAR not read
 entering main loop
       N       E                     dE             d eps       ncg     rms          rms(c)
DAV:   1     0.422573141499E+04    0.42257E+04   -0.19295E+05 32544   0.146E+03
DAV:   2     0.843861379911E+03   -0.33819E+04   -0.31325E+04 35584   0.322E+02
DAV:   3     0.234066288724E+03   -0.60980E+03   -0.58952E+03 43952   0.157E+02
DAV:   4     0.188206127152E+03   -0.45860E+02   -0.44762E+02 43992   0.438E+01
DAV:   5     0.185954849758E+03   -0.22513E+01   -0.22431E+01 50224   0.100E+01    0.979E+01
DAV:   6     0.555014310140E+02   -0.13045E+03   -0.15180E+03 37120   0.505E+01    0.489E+01
DAV:   7    -0.935431795113E+02   -0.14904E+03   -0.15912E+02 39048   0.219E+01    0.284E+01
DAV:   8    -0.201752099619E+03   -0.10821E+03   -0.64875E+01 37696   0.130E+01    0.184E+01
DAV:   9    -0.333924518002E+03   -0.13217E+03   -0.12428E+02 36640   0.162E+01    0.921E+00
DAV:  10    -0.381157517724E+03   -0.47233E+02   -0.46696E+01 37224   0.103E+01    0.663E+00
DAV:  11    -0.410475104909E+03   -0.29318E+02   -0.40442E+01 37728   0.832E+00    0.380E+00
DAV:  12    -0.421171185808E+03   -0.10696E+02   -0.16661E+01 41264   0.542E+00    0.254E+00
DAV:  13    -0.422866234183E+03   -0.16950E+01   -0.25479E+00 39808   0.257E+00    0.208E+00
DAV:  14    -0.423486194827E+03   -0.61996E+00   -0.93599E-01 38896   0.136E+00    0.112E+00
DAV:  15    -0.423542783332E+03   -0.56589E-01   -0.17757E-01 42296   0.713E-01    0.639E-01
DAV:  16    -0.423549704987E+03   -0.69217E-02   -0.27273E-02 41760   0.310E-01    0.408E-01
DAV:  17    -0.423553051706E+03   -0.33467E-02   -0.96474E-03 39016   0.169E-01    0.225E-01
DAV:  18    -0.423554662998E+03   -0.16113E-02   -0.29562E-03 40176   0.942E-02    0.831E-02
DAV:  19    -0.423555081012E+03   -0.41801E-03   -0.71981E-04 39904   0.515E-02    0.453E-02
DAV:  20    -0.423555349281E+03   -0.26827E-03   -0.21304E-04 37720   0.288E-02    0.239E-02
DAV:  21    -0.423555476862E+03   -0.12758E-03   -0.12725E-04 38616   0.191E-02    0.145E-02
DAV:  22    -0.423555485718E+03   -0.88561E-05   -0.19348E-05 44160   0.867E-03    0.101E-02
DAV:  23    -0.423555487616E+03   -0.18982E-05   -0.64480E-06 40776   0.407E-03    0.414E-03
DAV:  24    -0.423555489957E+03   -0.23405E-05   -0.26560E-06 34936   0.301E-03    0.168E-03
DAV:  25    -0.423555490058E+03   -0.10132E-06   -0.68248E-07 41640   0.145E-03    0.142E-03
DAV:  26    -0.423555490061E+03   -0.33433E-08   -0.12411E-07 43872   0.766E-04    0.104E-03
DAV:  27    -0.423555490007E+03    0.54162E-07   -0.36384E-08 34536   0.436E-04    0.368E-04
DAV:  28    -0.423555489906E+03    0.10139E-06   -0.26372E-08 31544   0.331E-04    0.276E-04
DAV:  29    -0.423555489903E+03    0.32051E-08   -0.41949E-09 30328   0.163E-04
   1 F= -.42355549E+03 E0= -.42355549E+03  d E =-.111158E-21  mag=     0.0000     0.0000     0.0000
Application 22254254 resources: utime ~1673274s, stime ~2608s, Rss ~415968, inblocks ~2666239, outblocks ~3873564
