 running on  672 total cores
 distrk:  each k-point on   96 cores,    7 groups
 distr:  one band on   24 cores,    4 groups
 using from now: INCAR     
 vasp.5.4.1 05Feb16 (build Jun 25 2016 17:05:53) complex                        
  
 POSCAR found type information on POSCAR  C  N  H  Pb I 
 POSCAR found :  5 types and      96 ions
 scaLAPACK will be used

 ----------------------------------------------------------------------------- 
|                                                                             |
|           W    W    AA    RRRRR   N    N  II  N    N   GGGG   !!!           |
|           W    W   A  A   R    R  NN   N  II  NN   N  G    G  !!!           |
|           W    W  A    A  R    R  N N  N  II  N N  N  G       !!!           |
|           W WW W  AAAAAA  RRRRR   N  N N  II  N  N N  G  GGG   !            |
|           WW  WW  A    A  R   R   N   NN  II  N   NN  G    G                |
|           W    W  A    A  R    R  N    N  II  N    N   GGGG   !!!           |
|                                                                             |
|      You have enabled k-point parallelism (KPAR>1).                         |
|      This developmental code was originally  written by Paul Kent at ORNL,  |
|      and carefully double checked in Vienna.                                |
|      GW as well as linear response parallelism added by Martijn Marsman     |
|      and Georg Kresse.                                                      |
|      Carefully verify results versus KPAR=1.                                |
|      Report problems to Paul Kent and Vienna.                               |
|                                                                             |
 ----------------------------------------------------------------------------- 


 ----------------------------------------------------------------------------- 
|                                                                             |
|  ADVICE TO THIS USER RUNNING 'VASP/VAMP'   (HEAR YOUR MASTER'S VOICE ...):  |
|                                                                             |
|      You have a (more or less) 'large supercell' and for larger cells       |
|      it might be more efficient to use real space projection opertators     |
|      So try LREAL= Auto  in the INCAR   file.                               |
|      Mind: At the moment your POTCAR file does not contain real space       |
|       projectors, and has to be modified,  BUT if you                       |
|      want to do an extremely  accurate calculation you might also keep the  |
|      reciprocal projection scheme          (i.e. LREAL=.FALSE.)             |
|                                                                             |
 ----------------------------------------------------------------------------- 

 LDA part: xc-table for Pade appr. of Perdew
 POSCAR, INCAR and KPOINTS ok, starting setup
 WARNING: small aliasing (wrap around) errors must be expected
 FFT: planning ...
 WAVECAR not read
 entering main loop
       N       E                     dE             d eps       ncg     rms          ort
DAV:   1     0.392234304521E+05    0.39223E+05   -0.10849E+06  3528   0.494E+03
DAV:   2     0.963490079441E+04   -0.29589E+05   -0.28971E+05  3528   0.169E+03
DAV:   3     0.214836110819E+04   -0.74865E+04   -0.73023E+04  3528   0.534E+02
DAV:   4     0.494446127577E+03   -0.16539E+04   -0.15786E+04  3528   0.223E+02
DAV:   5     0.276014311632E+03   -0.21843E+03   -0.21468E+03  3528   0.865E+01
 gam= 0.000 g(H,U,f)=  0.119E+03 0.504E+01 0.000E+00 ort(H,U,f) = 0.000E+00 0.000E+00 0.000E+00
SDA:   6    -0.445227849763E+03   -0.72124E+03   -0.21468E+03  3528   0.124E+03 0.000E+00
 gam= 0.000 trial= 0.400  step= 0.344 mean= 0.400
 gam= 0.355 g(H,U,f)=  0.423E+02 0.157E+01 0.180E-17 ort(H,U,f) =-0.169E+01 0.247E+01 0.273E-17
CGA:   7    -0.466415865222E+03   -0.21188E+02   -0.21256E+02  3528   0.439E+02 0.777E+00
 gam= 0.355 trial= 0.397  step= 0.384 mean= 0.397
 gam= 0.209 g(H,U,f)=  0.881E+01 0.374E+00 0.000E+00 ort(H,U,f) =-0.909E+00 0.894E+00 0.000E+00
CGA:   8    -0.474897703957E+03   -0.84818E+01   -0.84822E+01  3528   0.918E+01-0.146E-01
 gam= 0.209 trial= 0.397  step= 0.657 mean= 0.397
 gam= 0.322 g(H,U,f)=  0.281E+01 0.146E+00 0.000E+00 ort(H,U,f) =-0.326E+00 0.315E+00 0.000E+00
CGA:   9    -0.477914522785E+03   -0.30168E+01   -0.30167E+01  3528   0.295E+01-0.108E-01
 gam= 0.322 trial= 0.410  step= 0.630 mean= 0.410
 gam= 0.374 g(H,U,f)=  0.106E+01 0.459E-01 0.000E+00 ort(H,U,f) =-0.136E+00 0.126E+00 0.000E+00
CGA:  10    -0.478842563961E+03   -0.92804E+00   -0.92901E+00  3528   0.110E+01-0.941E-02
 gam= 0.374 trial= 0.421  step= 0.438 mean= 0.421
 gam= 0.404 g(H,U,f)=  0.426E+00 0.199E-01 0.408-105 ort(H,U,f) =-0.563E-01 0.545E-01 0.127-104
CGA:  11    -0.479083899583E+03   -0.24134E+00   -0.24136E+00  3528   0.446E+00-0.183E-02
 gam= 0.404 trial= 0.421  step= 0.563 mean= 0.421
 gam= 0.254 g(H,U,f)=  0.109E+00 0.433E-02 0.000E+00 ort(H,U,f) =-0.192E-01 0.174E-01 0.000E+00
CGA:  12    -0.479209121034E+03   -0.12522E+00   -0.12535E+00  3528   0.113E+00-0.180E-02
 gam= 0.254 trial= 0.429  step= 0.693 mean= 0.429
 gam= 0.307 g(H,U,f)=  0.339E-01 0.966E-03 0.000E+00 ort(H,U,f) =-0.428E-02 0.381E-02 0.000E+00
CGA:  13    -0.479248128274E+03   -0.39007E-01   -0.39075E-01  3528   0.348E-01-0.468E-03
 gam= 0.307 trial= 0.442  step= 0.635 mean= 0.442
 gam= 0.426 g(H,U,f)=  0.146E-01 0.287E-03 0.000E+00 ort(H,U,f) =-0.976E-03 0.980E-03 0.000E+00
CGA:  14    -0.479259136991E+03   -0.11009E-01   -0.11010E-01  3528   0.148E-01 0.473E-05
 gam= 0.426 trial= 0.451  step= 0.441 mean= 0.451
 gam= 0.443 g(H,U,f)=  0.650E-02 0.834E-04 0.937-202 ort(H,U,f) =-0.498E-03 0.239E-03-0.281-200
CGA:  15    -0.479262412247E+03   -0.32753E-02   -0.32739E-02  3528   0.658E-02-0.258E-03
 gam= 0.443 trial= 0.451  step= 0.537 mean= 0.451
 gam= 0.313 g(H,U,f)=  0.203E-02 0.302E-04 0.000E+00 ort(H,U,f) =-0.148E-04 0.530E-04 0.000E+00
CGA:  16    -0.479264150029E+03   -0.17378E-02   -0.17362E-02  3528   0.206E-02 0.382E-04
 gam= 0.313 trial= 0.455  step= 0.745 mean= 0.455
 gam= 0.386 g(H,U,f)=  0.783E-03 0.138E-04 0.000E+00 ort(H,U,f) =-0.566E-04 0.342E-05 0.000E+00
CGA:  17    -0.479264915025E+03   -0.76500E-03   -0.77275E-03  3528   0.797E-03-0.532E-04
 gam= 0.386 trial= 0.470  step= 0.671 mean= 0.470
 gam= 0.374 g(H,U,f)=  0.291E-03 0.731E-05 0.000E+00 ort(H,U,f) = 0.553E-05 0.499E-05 0.000E+00
CGA:  18    -0.479265176362E+03   -0.26134E-03   -0.26030E-03  3528   0.298E-03 0.105E-04
 gam= 0.374 trial= 0.480  step= 0.656 mean= 0.480
 gam= 0.453 g(H,U,f)=  0.131E-03 0.418E-05 0.546-175 ort(H,U,f) =-0.144E-04 0.536E-05 0.128-174
CGA:  19    -0.479265274537E+03   -0.98175E-04   -0.98972E-04  3528   0.135E-03-0.903E-05
 gam= 0.453 trial= 0.488  step= 0.446 mean= 0.488
 gam= 0.399 g(H,U,f)=  0.520E-04 0.183E-05 0.159E-49 ort(H,U,f) = 0.118E-04 0.377E-05 0.584E-49
CGA:  20    -0.479265303370E+03   -0.28832E-04   -0.29163E-04  3528   0.538E-04 0.155E-04
 gam= 0.399 trial= 0.486  step= 0.677 mean= 0.486
 gam= 0.581 g(H,U,f)=  0.307E-04 0.637E-06 0.000E+00 ort(H,U,f) =-0.101E-04 0.168E-05 0.000E+00
CGA:  21    -0.479265322881E+03   -0.19511E-04   -0.20312E-04  3528   0.313E-04-0.842E-05
 gam= 0.581 trial= 0.496  step= 0.514 mean= 0.496
 gam= 0.325 g(H,U,f)=  0.100E-04 0.155E-06 0.000E+00 ort(H,U,f) = 0.216E-05 0.550E-06 0.000E+00
CGA:  22    -0.479265329695E+03   -0.68137E-05   -0.67889E-05  3528   0.102E-04 0.271E-05
 gam= 0.325 trial= 0.497  step= 0.620 mean= 0.497
 gam= 0.404 g(H,U,f)=  0.406E-05 0.451E-07 0.000E+00 ort(H,U,f) =-0.118E-06 0.722E-07 0.000E+00
CGA:  23    -0.479265333117E+03   -0.34224E-05   -0.34252E-05  3528   0.411E-05-0.454E-07
 gam= 0.404 trial= 0.503  step= 0.869 mean= 0.503
 gam= 0.000 g(H,U,f)=  0.430E-05 0.242E-07 0.000E+00 ort(H,U,f) =-0.224E-05-0.126E-07 0.000E+00
CGA:  24    -0.479265334482E+03   -0.13655E-05   -0.17765E-05  3528   0.433E-05-0.225E-05
 gam= 0.000 trial= 0.521  step= 0.279 mean= 0.521
 gam= 0.168 g(H,U,f)=  0.706E-06 0.221E-07 0.000E+00 ort(H,U,f) = 0.108E-05 0.214E-07 0.000E+00
CGA:  25    -0.479265334953E+03   -0.47027E-06   -0.60334E-06  3528   0.728E-06 0.110E-05
 gam= 0.168 trial= 0.509  step= 1.000 mean= 0.509
 gam= 0.000 g(H,U,f)=  0.142E-05 0.615E-08 0.000E+00 ort(H,U,f) =-0.763E-06 0.132E-07 0.000E+00
CGA:  26    -0.479265335225E+03   -0.27276E-06   -0.45677E-06  3528   0.143E-05-0.749E-06
 gam= 0.000 trial= 0.534  step= 0.463 mean= 0.534
 gam= 0.136 g(H,U,f)=  0.191E-06 0.370E-08 0.000E+00 ort(H,U,f) =-0.136E-06 0.470E-08 0.000E+00
CGA:  27    -0.479265335561E+03   -0.33524E-06   -0.33066E-06  3528   0.195E-06-0.131E-06
 gam= 0.136 trial= 0.530  step= 0.473 mean= 0.530
 gam= 0.290 g(H,U,f)=  0.543E-07 0.234E-08 0.000E+00 ort(H,U,f) = 0.256E-07 0.344E-08 0.000E+00
CGA:  28    -0.479265335602E+03   -0.40920E-07   -0.41847E-07  3528   0.566E-07 0.291E-07
 gam= 0.290 trial= 0.527  step=-0.742 mean= 0.527
 BOPT < 0, no correction made
 gam= 0.000 g(H,U,f)=  0.323E-07 0.116E-08 0.000E+00 ort(H,U,f) = 0.265E-07 0.235E-08 0.000E+00
CGA:  29    -0.479265335648E+03   -0.46417E-07    0.24147E-07  3528   0.334E-07 0.289E-07
 gam= 0.000 trial= 0.527  step=-0.453 mean= 0.527
 BOPT < 0, no correction made
 gam= 0.664 g(H,U,f)=  0.215E-07 0.717E-09 0.000E+00 ort(H,U,f) = 0.111E-07 0.911E-09 0.000E+00
CGA:  30    -0.479265335676E+03   -0.27801E-07    0.75680E-08  3528   0.222E-07 0.120E-07
 gam= 0.664 trial= 0.527  step=-0.282 mean= 0.527
 BOPT < 0, no correction made
 gam= 0.000 g(H,U,f)=  0.162E-07 0.270E-09 0.000E+00 ort(H,U,f) = 0.179E-07 0.809E-09 0.000E+00
CGA:  31    -0.479265335707E+03   -0.30694E-07    0.42542E-08  3528   0.165E-07 0.187E-07
 gam= 0.000 trial= 0.527  step= 0.735 mean= 0.527
 gam= 1.126 g(H,U,f)=  0.184E-07 0.144E-09 0.000E+00 ort(H,U,f) = 0.121E-08 0.196E-09 0.000E+00
CGA:  32    -0.479265335713E+03   -0.60791E-08   -0.60526E-08  3528   0.186E-07 0.140E-08
 gam= 1.126 trial= 0.538  step=-0.373 mean= 0.538
 BOPT < 0, no correction made
   1 F= -.47926534E+03 E0= -.47926534E+03  d E =0.000000E+00
Application 4208315 resources: utime ~26731255s, stime ~45406s, Rss ~453724, inblocks ~15979559, outblocks ~5805353
