  96  96   0   0
  0.2080188E+02  0.1257760E-08  0.1245754E-08  0.1274818E-08  0.5000000E-15
  1.000000000000000E-004
  CAR 
 MAPbI3-Cubic                            
      9.84540387    -22.21706712  301      1.13509925      1.00000000
    -22.217  0.0000E+00  0.0000E+00
    -22.110  0.0000E+00  0.0000E+00
    -22.003  0.0000E+00  0.0000E+00
    -21.896  0.0000E+00  0.0000E+00
    -21.790  0.0000E+00  0.0000E+00
    -21.683  0.0000E+00  0.0000E+00
    -21.576  0.0000E+00  0.0000E+00
    -21.469  0.0000E+00  0.0000E+00
    -21.362  0.0000E+00  0.0000E+00
    -21.255  0.0000E+00  0.0000E+00
    -21.148  0.0000E+00  0.0000E+00
    -21.041  0.0000E+00  0.0000E+00
    -20.935  0.0000E+00  0.0000E+00
    -20.828  0.0000E+00  0.0000E+00
    -20.721  0.0000E+00  0.1600E+02
    -20.614  0.0000E+00  0.1600E+02
    -20.507  0.0000E+00  0.1600E+02
    -20.400  0.0000E+00  0.1600E+02
    -20.293  0.0000E+00  0.1600E+02
    -20.186  0.0000E+00  0.1600E+02
    -20.080  0.0000E+00  0.1600E+02
    -19.973  0.0000E+00  0.1600E+02
    -19.866  0.0000E+00  0.1600E+02
    -19.759  0.0000E+00  0.1600E+02
    -19.652  0.0000E+00  0.1600E+02
    -19.545  0.0000E+00  0.1600E+02
    -19.438  0.0000E+00  0.1600E+02
    -19.331  0.0000E+00  0.1600E+02
    -19.225  0.0000E+00  0.1600E+02
    -19.118  0.0000E+00  0.1600E+02
    -19.011  0.0000E+00  0.1600E+02
    -18.904  0.0000E+00  0.1600E+02
    -18.797  0.0000E+00  0.1600E+02
    -18.690  0.0000E+00  0.1600E+02
    -18.583  0.0000E+00  0.1600E+02
    -18.476  0.0000E+00  0.1600E+02
    -18.370  0.0000E+00  0.1600E+02
    -18.263  0.0000E+00  0.1600E+02
    -18.156  0.0000E+00  0.1600E+02
    -18.049  0.0000E+00  0.1600E+02
    -17.942  0.0000E+00  0.1600E+02
    -17.835  0.0000E+00  0.1600E+02
    -17.728  0.0000E+00  0.1600E+02
    -17.621  0.0000E+00  0.1600E+02
    -17.515  0.0000E+00  0.1600E+02
    -17.408  0.0000E+00  0.1600E+02
    -17.301  0.0000E+00  0.1600E+02
    -17.194  0.0000E+00  0.4800E+02
    -17.087  0.0000E+00  0.9600E+02
    -16.980  0.0000E+00  0.9600E+02
    -16.873  0.0000E+00  0.9600E+02
    -16.766  0.0000E+00  0.9600E+02
    -16.660  0.0000E+00  0.9600E+02
    -16.553  0.0000E+00  0.9600E+02
    -16.446  0.0000E+00  0.9600E+02
    -16.339  0.0000E+00  0.9600E+02
    -16.232  0.0000E+00  0.9600E+02
    -16.125  0.0000E+00  0.9600E+02
    -16.018  0.0000E+00  0.9600E+02
    -15.911  0.0000E+00  0.9600E+02
    -15.805  0.0000E+00  0.9600E+02
    -15.698  0.0000E+00  0.9600E+02
    -15.591  0.0000E+00  0.9600E+02
    -15.484  0.0000E+00  0.9600E+02
    -15.377  0.0000E+00  0.9600E+02
    -15.270  0.0000E+00  0.9600E+02
    -15.163  0.0000E+00  0.9600E+02
    -15.056  0.0000E+00  0.9600E+02
    -14.950  0.0000E+00  0.9600E+02
    -14.843  0.0000E+00  0.9600E+02
    -14.736  0.0000E+00  0.9600E+02
    -14.629  0.0000E+00  0.9600E+02
    -14.522  0.0000E+00  0.9600E+02
    -14.415  0.0000E+00  0.9600E+02
    -14.308  0.0000E+00  0.9600E+02
    -14.201  0.0000E+00  0.9600E+02
    -14.095  0.0000E+00  0.9600E+02
    -13.988  0.0000E+00  0.9600E+02
    -13.881  0.0000E+00  0.9600E+02
    -13.774  0.0000E+00  0.9600E+02
    -13.667  0.0000E+00  0.9600E+02
    -13.560  0.0000E+00  0.9600E+02
    -13.453  0.0000E+00  0.9600E+02
    -13.346  0.0000E+00  0.9600E+02
    -13.240  0.0000E+00  0.1040E+03
    -13.133  0.0000E+00  0.1120E+03
    -13.026  0.0000E+00  0.1120E+03
    -12.919  0.0000E+00  0.1120E+03
    -12.812  0.0000E+00  0.1120E+03
    -12.705  0.0000E+00  0.1120E+03
    -12.598  0.0000E+00  0.1120E+03
    -12.491  0.0000E+00  0.1120E+03
    -12.385  0.0000E+00  0.1120E+03
    -12.278  0.1145E-01  0.1125E+03
    -12.171  0.1379E+01  0.1156E+03
    -12.064  0.5442E+01  0.1212E+03
    -11.957  0.4331E+01  0.1274E+03
    -11.850  0.2791E+01  0.1294E+03
    -11.743  0.4159E+01  0.1369E+03
    -11.636  0.2772E+01  0.1418E+03
    -11.530  0.1462E+02  0.1473E+03
    -11.423  0.4050E+01  0.1555E+03
    -11.316  0.0000E+00  0.1600E+03
    -11.209  0.0000E+00  0.1600E+03
    -11.102  0.0000E+00  0.1600E+03
    -10.995  0.0000E+00  0.1600E+03
    -10.888  0.0000E+00  0.1600E+03
    -10.781  0.0000E+00  0.1600E+03
    -10.675  0.0000E+00  0.1600E+03
    -10.568  0.0000E+00  0.1600E+03
    -10.461  0.0000E+00  0.1600E+03
    -10.354  0.0000E+00  0.1600E+03
    -10.247  0.0000E+00  0.1600E+03
    -10.140  0.0000E+00  0.1600E+03
    -10.033  0.0000E+00  0.1600E+03
     -9.926  0.0000E+00  0.1600E+03
     -9.820  0.0000E+00  0.1600E+03
     -9.713  0.0000E+00  0.1600E+03
     -9.606  0.0000E+00  0.1600E+03
     -9.499  0.0000E+00  0.1600E+03
     -9.392  0.0000E+00  0.1600E+03
     -9.285  0.0000E+00  0.1600E+03
     -9.178  0.1817E+01  0.1602E+03
     -9.071  0.1716E+02  0.1755E+03
     -8.965  0.0000E+00  0.1920E+03
     -8.858  0.0000E+00  0.1920E+03
     -8.751  0.0000E+00  0.1920E+03
     -8.644  0.0000E+00  0.1920E+03
     -8.537  0.0000E+00  0.1920E+03
     -8.430  0.0000E+00  0.1920E+03
     -8.323  0.0000E+00  0.1920E+03
     -8.216  0.0000E+00  0.1920E+03
     -8.110  0.0000E+00  0.1920E+03
     -8.003  0.0000E+00  0.1921E+03
     -7.896  0.0000E+00  0.1921E+03
     -7.789  0.0000E+00  0.1925E+03
     -7.682  0.0000E+00  0.1934E+03
     -7.575  0.1205E+01  0.1941E+03
     -7.468  0.0000E+00  0.1944E+03
     -7.361  0.0000E+00  0.1964E+03
     -7.255  0.1386E+01  0.1988E+03
     -7.148  0.1368E+01  0.2000E+03
     -7.041  0.8507E+01  0.2085E+03
     -6.934  0.1046E+02  0.2142E+03
     -6.827  0.5111E+01  0.2201E+03
     -6.720  0.0000E+00  0.2216E+03
     -6.613  0.1380E+00  0.2223E+03
     -6.506  0.7982E-11  0.2232E+03
     -6.400  0.0000E+00  0.2235E+03
     -6.293  0.0000E+00  0.2239E+03
     -6.186  0.0000E+00  0.2239E+03
     -6.079  0.0000E+00  0.2240E+03
     -5.972  0.0000E+00  0.2240E+03
     -5.865  0.0000E+00  0.2240E+03
     -5.758  0.0000E+00  0.2240E+03
     -5.651  0.0000E+00  0.2240E+03
     -5.545  0.0000E+00  0.2240E+03
     -5.438  0.0000E+00  0.2240E+03
     -5.331  0.0000E+00  0.2240E+03
     -5.224  0.0000E+00  0.2240E+03
     -5.117  0.0000E+00  0.2240E+03
     -5.010  0.0000E+00  0.2240E+03
     -4.903  0.0000E+00  0.2240E+03
     -4.796  0.1477E+02  0.2296E+03
     -4.690  0.8317E+01  0.2560E+03
     -4.583  0.0000E+00  0.2560E+03
     -4.476  0.0000E+00  0.2560E+03
     -4.369  0.0000E+00  0.2560E+03
     -4.262  0.0000E+00  0.2560E+03
     -4.155  0.0000E+00  0.2560E+03
     -4.048  0.0000E+00  0.2560E+03
     -3.941  0.0000E+00  0.2560E+03
     -3.835  0.0000E+00  0.2560E+03
     -3.728  0.0000E+00  0.2560E+03
     -3.621  0.0000E+00  0.2560E+03
     -3.514  0.0000E+00  0.2560E+03
     -3.407  0.0000E+00  0.2560E+03
     -3.300  0.0000E+00  0.2560E+03
     -3.193  0.0000E+00  0.2560E+03
     -3.086  0.0000E+00  0.2560E+03
     -2.980  0.0000E+00  0.2560E+03
     -2.873  0.0000E+00  0.2560E+03
     -2.766  0.6931E+00  0.2567E+03
     -2.659  0.7081E+00  0.2591E+03
     -2.552  0.0000E+00  0.2616E+03
     -2.445  0.1520E+01  0.2640E+03
     -2.338  0.0000E+00  0.2667E+03
     -2.231  0.6931E+01  0.2702E+03
     -2.125  0.0000E+00  0.2735E+03
     -2.018  0.6331E+01  0.2773E+03
     -1.911  0.0000E+00  0.2796E+03
     -1.804  0.0000E+00  0.2800E+03
     -1.697  0.8532E-01  0.2801E+03
     -1.590  0.3023E+01  0.2820E+03
     -1.483  0.1386E+01  0.2861E+03
     -1.376  0.4378E+01  0.2942E+03
     -1.270  0.1395E+01  0.3004E+03
     -1.163  0.3533E+01  0.3047E+03
     -1.056  0.4191E+01  0.3087E+03
     -0.949  0.6530E+01  0.3137E+03
     -0.842  0.6931E+01  0.3205E+03
     -0.735  0.1003E+02  0.3280E+03
     -0.628  0.6900E+01  0.3347E+03
     -0.521  0.9078E+01  0.3413E+03
     -0.415  0.7851E+01  0.3503E+03
     -0.308  0.5549E+01  0.3600E+03
     -0.201  0.8317E+01  0.3689E+03
     -0.094  0.2561E+01  0.3766E+03
      0.013  0.4248E+01  0.3836E+03
      0.120  0.0000E+00  0.3892E+03
      0.227  0.1190E-11  0.3923E+03
      0.334  0.1312E-11  0.3947E+03
      0.440  0.2593E-05  0.3963E+03
      0.547  0.1386E+01  0.3981E+03
      0.654  0.0000E+00  0.3991E+03
      0.761  0.0000E+00  0.3993E+03
      0.868  0.0000E+00  0.3998E+03
      0.975  0.0000E+00  0.3999E+03
      1.082  0.0000E+00  0.3999E+03
      1.189  0.0000E+00  0.4000E+03
      1.295  0.0000E+00  0.4000E+03
      1.402  0.0000E+00  0.4000E+03
      1.509  0.0000E+00  0.4000E+03
      1.616  0.0000E+00  0.4000E+03
      1.723  0.0000E+00  0.4000E+03
      1.830  0.0000E+00  0.4000E+03
      1.937  0.0000E+00  0.4000E+03
      2.044  0.0000E+00  0.4000E+03
      2.150  0.0000E+00  0.4000E+03
      2.257  0.0000E+00  0.4000E+03
      2.364  0.0000E+00  0.4000E+03
      2.471  0.0000E+00  0.4000E+03
      2.578  0.0000E+00  0.4000E+03
      2.685  0.0000E+00  0.4000E+03
      2.792  0.0000E+00  0.4000E+03
      2.899  0.0000E+00  0.4000E+03
      3.005  0.0000E+00  0.4000E+03
      3.112  0.0000E+00  0.4000E+03
      3.219  0.0000E+00  0.4000E+03
      3.326  0.0000E+00  0.4005E+03
      3.433  0.0000E+00  0.4007E+03
      3.540  0.2772E+01  0.4024E+03
      3.647  0.5008E+00  0.4033E+03
      3.754  0.2338E+00  0.4043E+03
      3.860  0.1444E+01  0.4063E+03
      3.967  0.1380E+01  0.4077E+03
      4.074  0.0000E+00  0.4081E+03
      4.181  0.6931E+00  0.4090E+03
      4.288  0.0000E+00  0.4102E+03
      4.395  0.1579E-06  0.4108E+03
      4.502  0.1782E-10  0.4136E+03
      4.609  0.1386E+01  0.4159E+03
      4.715  0.2064E+01  0.4184E+03
      4.822  0.1054E-03  0.4210E+03
      4.929  0.1372E+01  0.4233E+03
      5.036  0.0000E+00  0.4239E+03
      5.143  0.0000E+00  0.4240E+03
      5.250  0.0000E+00  0.4240E+03
      5.357  0.0000E+00  0.4240E+03
      5.464  0.0000E+00  0.4240E+03
      5.570  0.0000E+00  0.4241E+03
      5.677  0.1222E+01  0.4245E+03
      5.784  0.2772E+01  0.4270E+03
      5.891  0.2772E+01  0.4305E+03
      5.998  0.3112E+00  0.4347E+03
      6.105  0.4292E+01  0.4378E+03
      6.212  0.2581E+01  0.4403E+03
      6.319  0.0000E+00  0.4423E+03
      6.425  0.0000E+00  0.4447E+03
      6.532  0.4042E+01  0.4480E+03
      6.639  0.7654E-02  0.4506E+03
      6.746  0.1393E+01  0.4564E+03
      6.853  0.3533E+01  0.4602E+03
      6.960  0.4481E+01  0.4630E+03
      7.067  0.4243E+01  0.4682E+03
      7.174  0.4283E+01  0.4728E+03
      7.280  0.1592E+01  0.4767E+03
      7.387  0.1795E+01  0.4806E+03
      7.494  0.2196E+01  0.4844E+03
      7.601  0.1399E+01  0.4871E+03
      7.708  0.1383E+01  0.4902E+03
      7.815  0.3972E+01  0.4939E+03
      7.922  0.0000E+00  0.4961E+03
      8.029  0.1386E+01  0.4992E+03
      8.135  0.0000E+00  0.5016E+03
      8.242  0.1386E+01  0.5033E+03
      8.349  0.1386E+01  0.5039E+03
      8.456  0.0000E+00  0.5040E+03
      8.563  0.0000E+00  0.5040E+03
      8.670  0.0000E+00  0.5040E+03
      8.777  0.0000E+00  0.5040E+03
      8.884  0.0000E+00  0.5040E+03
      8.990  0.0000E+00  0.5040E+03
      9.097  0.0000E+00  0.5040E+03
      9.204  0.0000E+00  0.5040E+03
      9.311  0.0000E+00  0.5040E+03
      9.418  0.0000E+00  0.5040E+03
      9.525  0.0000E+00  0.5040E+03
      9.632  0.0000E+00  0.5040E+03
      9.739  0.0000E+00  0.5040E+03
      9.845  0.0000E+00  0.5040E+03
