       N       E                     dE             d eps       ncg     rms          ort
DAV:   1     0.392234304521E+05    0.39223E+05   -0.10849E+06  3528   0.494E+03
DAV:   2     0.963490079441E+04   -0.29589E+05   -0.28971E+05  3528   0.169E+03
DAV:   3     0.214836110819E+04   -0.74865E+04   -0.73023E+04  3528   0.534E+02
DAV:   4     0.494446127577E+03   -0.16539E+04   -0.15786E+04  3528   0.223E+02
DAV:   5     0.276014311632E+03   -0.21843E+03   -0.21468E+03  3528   0.865E+01
SDA:   6    -0.445227849763E+03   -0.72124E+03   -0.21468E+03  3528   0.124E+03 0.000E+00
CGA:   7    -0.466415865222E+03   -0.21188E+02   -0.21256E+02  3528   0.439E+02 0.777E+00
CGA:   8    -0.474897703957E+03   -0.84818E+01   -0.84822E+01  3528   0.918E+01-0.146E-01
CGA:   9    -0.477914522785E+03   -0.30168E+01   -0.30167E+01  3528   0.295E+01-0.108E-01
CGA:  10    -0.478842563961E+03   -0.92804E+00   -0.92901E+00  3528   0.110E+01-0.941E-02
CGA:  11    -0.479083899583E+03   -0.24134E+00   -0.24136E+00  3528   0.446E+00-0.183E-02
CGA:  12    -0.479209121034E+03   -0.12522E+00   -0.12535E+00  3528   0.113E+00-0.180E-02
CGA:  13    -0.479248128274E+03   -0.39007E-01   -0.39075E-01  3528   0.348E-01-0.468E-03
CGA:  14    -0.479259136991E+03   -0.11009E-01   -0.11010E-01  3528   0.148E-01 0.473E-05
CGA:  15    -0.479262412247E+03   -0.32753E-02   -0.32739E-02  3528   0.658E-02-0.258E-03
CGA:  16    -0.479264150029E+03   -0.17378E-02   -0.17362E-02  3528   0.206E-02 0.382E-04
CGA:  17    -0.479264915025E+03   -0.76500E-03   -0.77275E-03  3528   0.797E-03-0.532E-04
CGA:  18    -0.479265176362E+03   -0.26134E-03   -0.26030E-03  3528   0.298E-03 0.105E-04
CGA:  19    -0.479265274537E+03   -0.98175E-04   -0.98972E-04  3528   0.135E-03-0.903E-05
CGA:  20    -0.479265303370E+03   -0.28832E-04   -0.29163E-04  3528   0.538E-04 0.155E-04
CGA:  21    -0.479265322881E+03   -0.19511E-04   -0.20312E-04  3528   0.313E-04-0.842E-05
CGA:  22    -0.479265329695E+03   -0.68137E-05   -0.67889E-05  3528   0.102E-04 0.271E-05
CGA:  23    -0.479265333117E+03   -0.34224E-05   -0.34252E-05  3528   0.411E-05-0.454E-07
CGA:  24    -0.479265334482E+03   -0.13655E-05   -0.17765E-05  3528   0.433E-05-0.225E-05
CGA:  25    -0.479265334953E+03   -0.47027E-06   -0.60334E-06  3528   0.728E-06 0.110E-05
CGA:  26    -0.479265335225E+03   -0.27276E-06   -0.45677E-06  3528   0.143E-05-0.749E-06
CGA:  27    -0.479265335561E+03   -0.33524E-06   -0.33066E-06  3528   0.195E-06-0.131E-06
CGA:  28    -0.479265335602E+03   -0.40920E-07   -0.41847E-07  3528   0.566E-07 0.291E-07
CGA:  29    -0.479265335648E+03   -0.46417E-07    0.24147E-07  3528   0.334E-07 0.289E-07
CGA:  30    -0.479265335676E+03   -0.27801E-07    0.75680E-08  3528   0.222E-07 0.120E-07
CGA:  31    -0.479265335707E+03   -0.30694E-07    0.42542E-08  3528   0.165E-07 0.187E-07
CGA:  32    -0.479265335713E+03   -0.60791E-08   -0.60526E-08  3528   0.186E-07 0.140E-08
   1 F= -.47926534E+03 E0= -.47926534E+03  d E =0.000000E+00
