 running on   24 total cores
 distrk:  each k-point on   24 cores,    1 groups
 distr:  one band on    3 cores,    8 groups
 using from now: INCAR     
 vasp.5.4.1 24Jun15 (build Nov 25 2015 16:01:35) complex                        
  
 POSCAR found type information on POSCAR  C  N  H  Pb I 
 POSCAR found :  5 types and      96 ions
 scaLAPACK will be used

 ----------------------------------------------------------------------------- 
|                                                                             |
|  ADVICE TO THIS USER RUNNING 'VASP/VAMP'   (HEAR YOUR MASTER'S VOICE ...):  |
|                                                                             |
|      You have a (more or less) 'large supercell' and for larger cells       |
|      it might be more efficient to use real space projection opertators     |
|      So try LREAL= Auto  in the INCAR   file.                               |
|      Mind: At the moment your POTCAR file does not contain real space       |
|       projectors, and has to be modified,  BUT if you                       |
|      want to do an extremely  accurate calculation you might also keep the  |
|      reciprocal projection scheme          (i.e. LREAL=.FALSE.)             |
|                                                                             |
 ----------------------------------------------------------------------------- 


 ----------------------------------------------------------------------------- 
|                                                                             |
|  ADVICE TO THIS USER RUNNING 'VASP/VAMP'   (HEAR YOUR MASTER'S VOICE ...):  |
|                                                                             |
|      You enforced a specific xc-type in the INCAR file,                     |
|      a different type was found on the POTCAR file                          |
|          I HOPE YOU KNOW, WHAT YOU ARE  DOING                               |
|                                                                             |
 ----------------------------------------------------------------------------- 

 LDA part: xc-table for Pade appr. of Perdew
 POSCAR, INCAR and KPOINTS ok, starting setup
 WARNING: small aliasing (wrap around) errors must be expected
 FFT: planning ...
 WAVECAR not read
 entering main loop
       N       E                     dE             d eps       ncg     rms          rms(c)
DAV:   1     0.359869418279E+04    0.35987E+04   -0.18945E+05  7176   0.170E+03
DAV:   2     0.197225210394E+03   -0.34015E+04   -0.32107E+04  8016   0.354E+02
DAV:   3    -0.398267567589E+03   -0.59549E+03   -0.58700E+03  9448   0.171E+02
DAV:   4    -0.438479966448E+03   -0.40212E+02   -0.40041E+02  9624   0.490E+01
DAV:   5    -0.439993292406E+03   -0.15133E+01   -0.15111E+01  9776   0.923E+00    0.296E+01
DAV:   6    -0.419540190032E+03    0.20453E+02   -0.41382E+01  9512   0.103E+01    0.156E+01
DAV:   7    -0.417070944393E+03    0.24692E+01   -0.14554E+01 10256   0.638E+00    0.778E+00
DAV:   8    -0.416898458663E+03    0.17249E+00   -0.30457E+00  8568   0.319E+00    0.181E+00
DAV:   9    -0.416827711016E+03    0.70748E-01   -0.74048E-01  9368   0.174E+00    0.728E-01
DAV:  10    -0.416839662664E+03   -0.11952E-01   -0.11045E-01  8976   0.590E-01    0.464E-01
DAV:  11    -0.416839339340E+03    0.32332E-03   -0.13495E-02  9864   0.272E-01    0.204E-01
DAV:  12    -0.416840750903E+03   -0.14116E-02   -0.97633E-03  9880   0.158E-01    0.109E-01
DAV:  13    -0.416840886917E+03   -0.13601E-03   -0.14216E-03  8376   0.786E-02    0.752E-02
DAV:  14    -0.416840931304E+03   -0.44387E-04   -0.28026E-04  8680   0.294E-02    0.349E-02
DAV:  15    -0.416840975654E+03   -0.44351E-04   -0.17610E-04  8240   0.219E-02    0.123E-02
DAV:  16    -0.416840980161E+03   -0.45064E-05   -0.17748E-05 10464   0.823E-03    0.131E-02
DAV:  17    -0.416840980065E+03    0.95519E-07   -0.36187E-06  8128   0.340E-03    0.633E-03
DAV:  18    -0.416840980061E+03    0.39290E-08   -0.10266E-05  9024   0.507E-03    0.367E-03
DAV:  19    -0.416840980089E+03   -0.27354E-07   -0.10401E-06  8032   0.237E-03    0.273E-03
DAV:  20    -0.416840980091E+03   -0.17499E-08   -0.54169E-07  8352   0.116E-03    0.429E-04
DAV:  21    -0.416840980137E+03   -0.46679E-07   -0.57031E-08  6872   0.550E-04    0.299E-04
DAV:  22    -0.416840980130E+03    0.76034E-08   -0.33952E-09  4848   0.218E-04
   1 F= -.41684098E+03 E0= -.41684098E+03  d E =-.371578E-31
Application 22054457 resources: utime ~167134s, stime ~94s, Rss ~640344, inblocks ~184890, outblocks ~194552
