    8    8  100    1
  0.3394927E+02  0.6476000E-09  0.6476000E-09  0.6476000E-09  0.5000000E-15
  1.000000000000000E-004
  CAR 
 Name                                    
     72     10     48
 
  0.0000000E+00  0.0000000E+00  0.0000000E+00  0.1562500E-01
    1       -9.043100
    2       -8.602400
    3       -8.602400
    4       -8.602400
    5       -6.305388
    6       -6.305388
    7       -6.305388
    8       -6.172063
    9       -6.172063
   10       -6.172063
   11       -6.172063
   12       -6.172063
   13       -6.172063
   14       -6.169539
   15       -6.169539
   16       -6.169539
   17       -6.090392
   18       -6.090392
   19       -6.064896
   20       -6.064896
   21       -6.064896
   22       -5.669222
   23       -5.669222
   24       -5.669222
   25       -2.223424
   26       -2.223424
   27       -2.223424
   28        0.126826
   29        0.126826
   30        0.126826
   31        0.126826
   32        0.126826
   33        0.126826
   34        1.779648
   35        1.779648
   36        1.779648
   37        2.355108
   38        4.447706
   39        4.447706
   40        4.447706
   41        4.524368
   42        4.524368
   43        4.524368
   44        6.418703
   45        6.418703
   46        6.418703
   47        9.152107
   48       10.280776
 
  0.2500000E+00  0.0000000E+00  0.0000000E+00  0.9375000E-01
    1       -8.976669
    2       -8.663551
    3       -8.603034
    4       -8.603034
    5       -6.287421
    6       -6.287421
    7       -6.261019
    8       -6.193276
    9       -6.193276
   10       -6.191051
   11       -6.191051
   12       -6.189670
   13       -6.189670
   14       -6.161670
   15       -6.139182
   16       -6.139182
   17       -6.095355
   18       -6.086675
   19       -6.073095
   20       -6.073095
   21       -6.068622
   22       -5.823268
   23       -5.636837
   24       -5.636837
   25       -2.168250
   26       -2.168250
   27       -1.795704
   28       -0.091139
   29       -0.091139
   30       -0.022015
   31       -0.022015
   32        0.315440
   33        0.315440
   34        0.546556
   35        1.454193
   36        1.454193
   37        3.619923
   38        4.474052
   39        4.820511
   40        5.018547
   41        5.018547
   42        5.176293
   43        5.176293
   44        5.848228
   45        6.932182
   46        6.932182
   47        9.053906
   48        9.053910
 
  0.5000000E+00  0.0000000E+00  0.0000000E+00  0.4687500E-01
    1       -8.817525
    2       -8.817525
    3       -8.603706
    4       -8.603706
    5       -6.241949
    6       -6.241949
    7       -6.241949
    8       -6.241949
    9       -6.205558
   10       -6.205558
   11       -6.197619
   12       -6.197619
   13       -6.161140
   14       -6.161140
   15       -6.114017
   16       -6.114017
   17       -6.088577
   18       -6.088577
   19       -6.077652
   20       -6.077652
   21       -6.057563
   22       -6.057563
   23       -5.605986
   24       -5.605986
   25       -2.105148
   26       -2.105148
   27       -0.768062
   28       -0.768062
   29       -0.297015
   30       -0.297015
   31       -0.155993
   32       -0.155993
   33        0.824065
   34        0.824065
   35        0.824065
   36        0.824065
   37        4.593369
   38        4.593369
   39        5.167920
   40        5.167920
   41        5.803431
   42        5.803431
   43        6.477771
   44        6.477771
   45        7.260160
   46        7.260160
   47        8.100555
   48        8.100555
 
  0.2500000E+00  0.2500000E+00  0.0000000E+00  0.1875000E+00
    1       -8.919816
    2       -8.654724
    3       -8.654724
    4       -8.611998
    5       -6.286143
    6       -6.275570
    7       -6.210317
    8       -6.209906
    9       -6.209906
   10       -6.205223
   11       -6.205223
   12       -6.194870
   13       -6.192129
   14       -6.136360
   15       -6.136360
   16       -6.126490
   17       -6.095867
   18       -6.085350
   19       -6.078563
   20       -6.074094
   21       -6.074094
   22       -5.768721
   23       -5.768721
   24       -5.635191
   25       -2.125123
   26       -1.870876
   27       -1.870876
   28       -0.493842
   29       -0.172108
   30        0.006623
   31        0.006623
   32        0.339682
   33        0.339682
   34        0.412461
   35        1.102510
   36        1.614209
   37        3.880831
   38        4.696901
   39        5.026481
   40        5.026481
   41        5.386522
   42        5.386522
   43        6.210744
   44        6.261439
   45        6.721353
   46        7.174598
   47        7.795642
   48        7.795642
 
  0.5000000E+00  0.2500000E+00  0.0000000E+00  0.1875000E+00
    1       -8.784720
    2       -8.784720
    3       -8.633425
    4       -8.633425
    5       -6.252684
    6       -6.252684
    7       -6.242929
    8       -6.242929
    9       -6.220178
   10       -6.220178
   11       -6.209328
   12       -6.209328
   13       -6.124317
   14       -6.124317
   15       -6.109316
   16       -6.109316
   17       -6.087886
   18       -6.087886
   19       -6.081923
   20       -6.081923
   21       -6.003710
   22       -6.003710
   23       -5.675197
   24       -5.675197
   25       -2.017942
   26       -2.017942
   27       -1.133082
   28       -1.133082
   29       -0.443412
   30       -0.443412
   31        0.452593
   32        0.452593
   33        0.464945
   34        0.464945
   35        1.058360
   36        1.058360
   37        4.698741
   38        4.698741
   39        5.278345
   40        5.278345
   41        5.810934
   42        5.810934
   43        6.724639
   44        6.724639
   45        7.147411
   46        7.147411
   47        7.292912
   48        7.292912
 
  0.5000000E+00  0.5000000E+00  0.0000000E+00  0.4687500E-01
    1       -8.707503
    2       -8.707503
    3       -8.707503
    4       -8.707503
    5       -6.239957
    6       -6.239957
    7       -6.239957
    8       -6.239957
    9       -6.237466
   10       -6.237466
   11       -6.237466
   12       -6.237466
   13       -6.096222
   14       -6.096222
   15       -6.096222
   16       -6.096222
   17       -6.094774
   18       -6.094774
   19       -6.094774
   20       -6.094774
   21       -5.843560
   22       -5.843560
   23       -5.843560
   24       -5.843560
   25       -1.685916
   26       -1.685916
   27       -1.685916
   28       -1.685916
   29       -0.129604
   30       -0.129604
   31       -0.129604
   32       -0.129604
   33        1.069365
   34        1.069365
   35        1.069365
   36        1.069365
   37        4.778885
   38        4.778885
   39        4.778885
   40        4.778885
   41        6.971999
   42        6.971999
   43        6.971999
   44        6.971999
   45        7.334757
   46        7.334757
   47        7.334757
   48        7.334757
 
  0.2500000E+00  0.2500000E+00  0.2500000E+00  0.1250000E+00
    1       -8.872662
    2       -8.654498
    3       -8.654498
    4       -8.654498
    5       -6.275988
    6       -6.275988
    7       -6.224814
    8       -6.224814
    9       -6.224814
   10       -6.210910
   11       -6.210910
   12       -6.210910
   13       -6.126104
   14       -6.121588
   15       -6.121588
   16       -6.121588
   17       -6.090455
   18       -6.090455
   19       -6.076856
   20       -6.076856
   21       -6.076856
   22       -5.737875
   23       -5.737875
   24       -5.737875
   25       -2.006353
   26       -2.006353
   27       -2.006353
   28       -0.780781
   29       -0.075374
   30       -0.075374
   31       -0.075374
   32        0.562367
   33        0.562367
   34        0.562367
   35        1.404108
   36        1.404108
   37        3.653564
   38        4.710765
   39        4.710765
   40        4.710765
   41        6.213503
   42        6.213503
   43        6.213503
   44        6.929059
   45        6.929059
   46        7.026457
   47        7.907372
   48        7.907372
 
  0.5000000E+00  0.2500000E+00  0.2500000E+00  0.1875000E+00
    1       -8.761232
    2       -8.761232
    3       -8.654271
    4       -8.654271
    5       -6.255963
    6       -6.255963
    7       -6.247355
    8       -6.247355
    9       -6.232000
   10       -6.232000
   11       -6.222277
   12       -6.222277
   13       -6.107144
   14       -6.107144
   15       -6.102126
   16       -6.102126
   17       -6.085310
   18       -6.085310
   19       -6.080499
   20       -6.080499
   21       -5.949494
   22       -5.949494
   23       -5.707373
   24       -5.707373
   25       -2.133227
   26       -2.133227
   27       -1.551269
   28       -1.551269
   29       -0.071382
   30       -0.071382
   31        0.663070
   32        0.663070
   33        0.833713
   34        0.833713
   35        0.954400
   36        0.954400
   37        4.232804
   38        4.232804
   39        4.866905
   40        4.866905
   41        6.416257
   42        6.416257
   43        6.440108
   44        6.440108
   45        7.528685
   46        7.528685
   47        7.630079
   48        7.630080
 
  0.5000000E+00  0.5000000E+00  0.2500000E+00  0.9375000E-01
    1       -8.706421
    2       -8.706421
    3       -8.706421
    4       -8.706421
    5       -6.246839
    6       -6.246839
    7       -6.246839
    8       -6.246839
    9       -6.245986
   10       -6.245986
   11       -6.245986
   12       -6.245986
   13       -6.089253
   14       -6.089253
   15       -6.089253
   16       -6.089253
   17       -6.088065
   18       -6.088065
   19       -6.088065
   20       -6.088065
   21       -5.816243
   22       -5.816243
   23       -5.816243
   24       -5.816243
   25       -2.039227
   26       -2.039227
   27       -2.039227
   28       -2.039227
   29        0.478801
   30        0.478801
   31        0.478801
   32        0.478801
   33        1.082667
   34        1.082667
   35        1.082667
   36        1.082667
   37        4.179573
   38        4.179573
   39        4.179573
   40        4.179573
   41        6.775375
   42        6.775375
   43        6.775375
   44        6.775375
   45        7.236315
   46        7.236315
   47        7.236315
   48        7.236315
 
  0.5000000E+00  0.5000000E+00  0.5000000E+00  0.1562500E-01
    1       -8.705313
    2       -8.705313
    3       -8.705313
    4       -8.705313
    5       -6.253151
    6       -6.253151
    7       -6.253151
    8       -6.253151
    9       -6.253151
   10       -6.253151
   11       -6.253151
   12       -6.253151
   13       -6.082844
   14       -6.082844
   15       -6.082844
   16       -6.082844
   17       -6.082844
   18       -6.082844
   19       -6.082844
   20       -6.082844
   21       -5.787633
   22       -5.787633
   23       -5.787633
   24       -5.787633
   25       -2.289329
   26       -2.289329
   27       -2.289329
   28       -2.289329
   29        1.096176
   30        1.096176
   31        1.096176
   32        1.096176
   33        1.096176
   34        1.096176
   35        1.096176
   36        1.096176
   37        3.530788
   38        3.530788
   39        3.530788
   40        3.530788
   41        6.986436
   42        6.986436
   43        6.986436
   44        6.986436
   45        6.986436
   46        6.986436
   47        6.986436
   48        6.986436
