       N       E                     dE             d eps       ncg     rms          rms(c)
DAV:   1     0.457226090471E+03    0.45723E+03   -0.31780E+04   960   0.127E+03
DAV:   2     0.531407102108E+01   -0.45191E+03   -0.43850E+03  1088   0.310E+02
DAV:   3    -0.196538863022E+02   -0.24968E+02   -0.24826E+02  1176   0.728E+01
DAV:   4    -0.199998551005E+02   -0.34597E+00   -0.34586E+00  1152   0.752E+00
DAV:   5    -0.200046207660E+02   -0.47657E-02   -0.47656E-02  1112   0.941E-01    0.112E+01
DAV:   6    -0.191348469772E+02    0.86977E+00   -0.18855E+00  1016   0.977E+00    0.909E+00
DAV:   7    -0.190840958935E+02    0.50751E-01   -0.74229E-01  1048   0.317E+00    0.322E+00
DAV:   8    -0.190844454698E+02   -0.34958E-03   -0.65925E-02  1048   0.191E+00    0.119E+00
DAV:   9    -0.190856890824E+02   -0.12436E-02   -0.76632E-03  1048   0.611E-01    0.286E-01
DAV:  10    -0.190855726729E+02    0.11641E-03   -0.11946E-03  1072   0.241E-01    0.130E-01
DAV:  11    -0.190856987840E+02   -0.12611E-03   -0.58714E-04  1064   0.136E-01    0.409E-02
DAV:  12    -0.190857070734E+02   -0.82894E-05   -0.67793E-05  1064   0.610E-02    0.259E-02
DAV:  13    -0.190857201177E+02   -0.13044E-04   -0.36142E-05  1000   0.177E-02    0.435E-02
DAV:  14    -0.190857184704E+02    0.16472E-05   -0.92517E-06   912   0.154E-02    0.833E-03
DAV:  15    -0.190857192372E+02   -0.76679E-06   -0.17094E-06   776   0.403E-03
   1 F= -.19085719E+02 E0= -.19085719E+02  d E =-.190857E+02
       N       E                     dE             d eps       ncg     rms          rms(c)
DAV:   1    -0.237694166648E+02   -0.46837E+01   -0.10243E+02  1024   0.732E+01    0.204E+01
DAV:   2    -0.198348602416E+02    0.39346E+01   -0.10070E+01   992   0.296E+01    0.661E+00
DAV:   3    -0.193772338956E+02    0.45763E+00   -0.96675E-01  1000   0.613E+00    0.608E+00
DAV:   4    -0.192393750387E+02    0.13786E+00   -0.21734E-01   968   0.166E+00    0.133E+00
DAV:   5    -0.192328942505E+02    0.64808E-02   -0.16158E-02   992   0.747E-01    0.638E-01
DAV:   6    -0.192323532502E+02    0.54100E-03   -0.32816E-03  1024   0.275E-01    0.303E-01
DAV:   7    -0.192325647960E+02   -0.21155E-03   -0.51186E-04  1024   0.106E-01    0.654E-02
DAV:   8    -0.192326324544E+02   -0.67658E-04   -0.13015E-04  1024   0.656E-02    0.150E-02
DAV:   9    -0.192326492703E+02   -0.16816E-04   -0.32795E-05   992   0.397E-02    0.138E-02
DAV:  10    -0.192326508398E+02   -0.15694E-05   -0.31319E-06   800   0.733E-03    0.291E-03
DAV:  11    -0.192326505632E+02    0.27660E-06   -0.58226E-07   616   0.394E-03
   2 F= -.19232651E+02 E0= -.19232649E+02  d E =-.146931E+00
       N       E                     dE             d eps       ncg     rms          rms(c)
DAV:   1    -0.194489970920E+02   -0.21635E+00   -0.43951E+00  1032   0.144E+01    0.331E+00
DAV:   2    -0.192638405304E+02    0.18516E+00   -0.53664E-01  1016   0.606E+00    0.103E+00
DAV:   3    -0.192454832340E+02    0.18357E-01   -0.48360E-02   968   0.120E+00    0.881E-01
DAV:   4    -0.192424339126E+02    0.30493E-02   -0.58451E-03   984   0.334E-01    0.158E-01
DAV:   5    -0.192421616042E+02    0.27231E-03   -0.14786E-03  1008   0.275E-01    0.113E-01
DAV:   6    -0.192421914839E+02   -0.29880E-04   -0.21299E-04  1048   0.937E-02    0.506E-02
DAV:   7    -0.192421844695E+02    0.70144E-05   -0.31049E-05  1048   0.409E-02    0.123E-02
DAV:   8    -0.192421861576E+02   -0.16881E-05   -0.46797E-06   888   0.932E-03    0.605E-03
DAV:   9    -0.192421862804E+02   -0.12279E-06   -0.40080E-07   664   0.267E-03
   3 F= -.19242186E+02 E0= -.19242186E+02  d E =-.156467E+00
