 running on 1344 total cores
 distrk:  each k-point on  192 cores,    7 groups
 distr:  one band on   12 cores,   16 groups
 using from now: INCAR     
 vasp.5.4.1 24Jun15 (build Nov 25 2015 16:01:35) complex                        
  
 POSCAR found type information on POSCAR  C  N  H  Pb I 
 POSCAR found :  5 types and      96 ions
 scaLAPACK will be used

 ----------------------------------------------------------------------------- 
|                                                                             |
|           W    W    AA    RRRRR   N    N  II  N    N   GGGG   !!!           |
|           W    W   A  A   R    R  NN   N  II  NN   N  G    G  !!!           |
|           W    W  A    A  R    R  N N  N  II  N N  N  G       !!!           |
|           W WW W  AAAAAA  RRRRR   N  N N  II  N  N N  G  GGG   !            |
|           WW  WW  A    A  R   R   N   NN  II  N   NN  G    G                |
|           W    W  A    A  R    R  N    N  II  N    N   GGGG   !!!           |
|                                                                             |
|      For optimal performance we recommend to set                            |
|        NCORE= 4 - approx SQRT( number of cores)                             |
|      NCORE specifies how many cores store one orbital (NPAR=cpu/NCORE).     |
|      This setting can  greatly improve the performance of VASP for DFT.     |
|      The default, NPAR=number of cores might be grossly inefficient         |
|      on modern multi-core architectures or massively parallel machines.     |
|      Do your own testing !!!!                                               |
|      Unfortunately you need to use the default for GW and RPA calculations. |
|      (for HF NCORE is supported but not extensively tested yet)             |
|                                                                             |
 ----------------------------------------------------------------------------- 


 ----------------------------------------------------------------------------- 
|                                                                             |
|           W    W    AA    RRRRR   N    N  II  N    N   GGGG   !!!           |
|           W    W   A  A   R    R  NN   N  II  NN   N  G    G  !!!           |
|           W    W  A    A  R    R  N N  N  II  N N  N  G       !!!           |
|           W WW W  AAAAAA  RRRRR   N  N N  II  N  N N  G  GGG   !            |
|           WW  WW  A    A  R   R   N   NN  II  N   NN  G    G                |
|           W    W  A    A  R    R  N    N  II  N    N   GGGG   !!!           |
|                                                                             |
|      You have enabled k-point parallelism (KPAR>1).                         |
|      This developmental code was originally  written by Paul Kent at ORNL,  |
|      and carefully double checked in Vienna.                                |
|      GW as well as linear response parallelism added by Martijn Marsman     |
|      and Georg Kresse.                                                      |
|      Carefully verify results versus KPAR=1.                                |
|      Report problems to Paul Kent and Vienna.                               |
|                                                                             |
 ----------------------------------------------------------------------------- 


 ----------------------------------------------------------------------------- 
|                                                                             |
|  ADVICE TO THIS USER RUNNING 'VASP/VAMP'   (HEAR YOUR MASTER'S VOICE ...):  |
|                                                                             |
|      You have a (more or less) 'large supercell' and for larger cells       |
|      it might be more efficient to use real space projection opertators     |
|      So try LREAL= Auto  in the INCAR   file.                               |
|      Mind: At the moment your POTCAR file does not contain real space       |
|       projectors, and has to be modified,  BUT if you                       |
|      want to do an extremely  accurate calculation you might also keep the  |
|      reciprocal projection scheme          (i.e. LREAL=.FALSE.)             |
|                                                                             |
 ----------------------------------------------------------------------------- 

 LDA part: xc-table for Pade appr. of Perdew
 POSCAR, INCAR and KPOINTS ok, starting setup
 WARNING: small aliasing (wrap around) errors must be expected
 FFT: planning ...
 WAVECAR not read
  WARNING: DENMP: can't reach specified precision
  Number of Electrons is NELECT =   399.999999999859     
 entering main loop
       N       E                     dE             d eps       ncg     rms          ort
DAV:   1     0.347109558510E+05    0.34711E+05   -0.11415E+06  3584   0.486E+03
DAV:   2     0.858652683096E+04   -0.26124E+05   -0.25405E+05  3584   0.168E+03
DAV:   3     0.179153002964E+04   -0.67950E+04   -0.66893E+04  3584   0.498E+02
DAV:   4     0.437367951349E+03   -0.13542E+04   -0.12991E+04  3584   0.208E+02
DAV:   5     0.274126695914E+03   -0.16324E+03   -0.16075E+03  3584   0.776E+01
 gam= 0.000 g(H,U,f)=  0.104E+03 0.525E+01 0.000E+00 ort(H,U,f) = 0.000E+00 0.000E+00 0.000E+00
SDA:   6    -0.449471601968E+03   -0.72360E+03   -0.16075E+03  3584   0.109E+03 0.000E+00
 gam= 0.000 trial= 0.400  step= 0.337 mean= 0.400
 gam= 0.351 g(H,U,f)=  0.367E+02 0.171E+01 0.000E+00 ort(H,U,f) =-0.204E+01 0.266E+01 0.000E+00
CGA:   7    -0.467823156640E+03   -0.18352E+02   -0.18416E+02  3584   0.384E+02 0.615E+00
 gam= 0.351 trial= 0.397  step= 0.392 mean= 0.397
 gam= 0.211 g(H,U,f)=  0.769E+01 0.405E+00 0.000E+00 ort(H,U,f) =-0.986E+00 0.100E+01 0.000E+00
CGA:   8    -0.475379258176E+03   -0.75561E+01   -0.75564E+01  3584   0.809E+01 0.146E-01
 gam= 0.211 trial= 0.397  step= 0.670 mean= 0.397
 gam= 0.335 g(H,U,f)=  0.256E+01 0.149E+00 0.000E+00 ort(H,U,f) =-0.344E+00 0.338E+00 0.000E+00
CGA:   9    -0.478092892920E+03   -0.27136E+01   -0.27130E+01  3584   0.271E+01-0.611E-02
 gam= 0.335 trial= 0.410  step= 0.636 mean= 0.410
 gam= 0.370 g(H,U,f)=  0.958E+00 0.443E-01 0.000E+00 ort(H,U,f) =-0.137E+00 0.130E+00 0.000E+00
CGA:  10    -0.478953808772E+03   -0.86092E+00   -0.86167E+00  3584   0.100E+01-0.703E-02
 gam= 0.370 trial= 0.422  step= 0.438 mean= 0.422
 gam= 0.401 g(H,U,f)=  0.384E+00 0.185E-01 0.000E+00 ort(H,U,f) =-0.537E-01 0.524E-01 0.000E+00
CGA:  11    -0.479172826109E+03   -0.21902E+00   -0.21903E+00  3584   0.402E+00-0.126E-02
 gam= 0.401 trial= 0.422  step= 0.550 mean= 0.422
 gam= 0.250 g(H,U,f)=  0.965E-01 0.406E-02 0.000E+00 ort(H,U,f) =-0.179E-01 0.163E-01 0.000E+00
CGA:  12    -0.479283288216E+03   -0.11046E+00   -0.11057E+00  3584   0.101E+00-0.159E-02
 gam= 0.250 trial= 0.429  step= 0.687 mean= 0.429
 gam= 0.305 g(H,U,f)=  0.297E-01 0.971E-03 0.000E+00 ort(H,U,f) =-0.406E-02 0.362E-02 0.000E+00
CGA:  13    -0.479317623330E+03   -0.34335E-01   -0.34395E-01  3584   0.306E-01-0.434E-03
 gam= 0.305 trial= 0.442  step= 0.655 mean= 0.442
 gam= 0.389 g(H,U,f)=  0.116E-01 0.276E-03 0.535-170 ort(H,U,f) =-0.985E-03 0.940E-03 0.566-169
CGA:  14    -0.479327605931E+03   -0.99826E-02   -0.99883E-02  3584   0.119E-01-0.450E-04
 gam= 0.389 trial= 0.452  step= 0.471 mean= 0.452
 gam= 0.508 g(H,U,f)=  0.597E-02 0.830E-04 0.000E+00 ort(H,U,f) =-0.464E-03 0.225E-03 0.000E+00
CGA:  15    -0.479330403367E+03   -0.27974E-02   -0.27997E-02  3584   0.605E-02-0.239E-03
 gam= 0.508 trial= 0.453  step= 0.486 mean= 0.453
 gam= 0.301 g(H,U,f)=  0.179E-02 0.299E-04 0.000E+00 ort(H,U,f) =-0.200E-04 0.655E-04 0.000E+00
CGA:  16    -0.479331845468E+03   -0.14421E-02   -0.14414E-02  3584   0.182E-02 0.455E-04
 gam= 0.301 trial= 0.455  step= 0.744 mean= 0.455
 gam= 0.379 g(H,U,f)=  0.678E-03 0.123E-04 0.000E+00 ort(H,U,f) =-0.573E-04 0.487E-05 0.000E+00
CGA:  17    -0.479332520942E+03   -0.67547E-03   -0.68310E-03  3584   0.690E-03-0.525E-04
 gam= 0.379 trial= 0.469  step= 0.682 mean= 0.469
 gam= 0.369 g(H,U,f)=  0.248E-03 0.665E-05 0.164-246 ort(H,U,f) = 0.318E-06 0.440E-05 0.210-246
CGA:  18    -0.479332750010E+03   -0.22907E-03   -0.22859E-03  3584   0.255E-03 0.472E-05
 gam= 0.369 trial= 0.480  step= 0.661 mean= 0.480
 gam= 0.366 g(H,U,f)=  0.899E-04 0.349E-05 0.000E+00 ort(H,U,f) =-0.418E-05 0.447E-05 0.000E+00
CGA:  19    -0.479332834871E+03   -0.84861E-04   -0.84839E-04  3584   0.934E-04 0.284E-06
 gam= 0.366 trial= 0.489  step= 0.590 mean= 0.489
 gam= 0.388 g(H,U,f)=  0.348E-04 0.143E-05 0.000E+00 ort(H,U,f) = 0.638E-05 0.276E-05 0.000E+00
CGA:  20    -0.479332862927E+03   -0.28056E-04   -0.27594E-04  3584   0.362E-04 0.914E-05
 gam= 0.388 trial= 0.494  step= 0.721 mean= 0.494
 gam= 1.037 g(H,U,f)=  0.370E-04 0.578E-06 0.000E+00 ort(H,U,f) =-0.111E-04 0.127E-05 0.000E+00
CGA:  21    -0.479332876142E+03   -0.13215E-04   -0.14331E-04  3584   0.375E-04-0.983E-05
 gam= 1.037 trial= 0.505  step= 0.318 mean= 0.505
 gam= 0.353 g(H,U,f)=  0.131E-04 0.148E-06 0.000E+00 ort(H,U,f) = 0.343E-05 0.676E-06 0.000E+00
CGA:  22    -0.479332880109E+03   -0.39676E-05   -0.43516E-05  3584   0.133E-04 0.411E-05
 gam= 0.353 trial= 0.496  step= 0.262 mean= 0.496
 gam= 0.552 g(H,U,f)=  0.724E-05 0.881E-07 0.000E+00 ort(H,U,f) = 0.294E-05 0.157E-06 0.000E+00
CGA:  23    -0.479332881677E+03   -0.15674E-05   -0.19295E-05  3584   0.733E-05 0.310E-05
 gam= 0.552 trial= 0.484  step= 0.433 mean= 0.484
 gam= 0.473 g(H,U,f)=  0.343E-05 0.394E-07 0.000E+00 ort(H,U,f) =-0.998E-06 0.390E-07 0.000E+00
CGA:  24    -0.479332883657E+03   -0.19808E-05   -0.19560E-05  3584   0.347E-05-0.959E-06
 gam= 0.473 trial= 0.482  step= 1.037 mean= 0.482
 gam= 0.000 g(H,U,f)=  0.163E-04 0.567E-07 0.000E+00 ort(H,U,f) =-0.585E-05-0.457E-07 0.000E+00
CGA:  25    -0.479332883584E+03    0.73691E-07   -0.15626E-05  3584   0.164E-04-0.589E-05
 gam= 0.000 trial= 0.510  step= 0.201 mean= 0.510
 gam= 0.124 g(H,U,f)=  0.201E-05 0.261E-07 0.000E+00 ort(H,U,f) = 0.352E-05 0.221E-07 0.000E+00
CGA:  26    -0.479332884684E+03   -0.10999E-05   -0.16463E-05  3584   0.203E-05 0.354E-05
 gam= 0.124 trial= 0.494  step= 0.290 mean= 0.494
 gam= 0.470 g(H,U,f)=  0.933E-06 0.240E-07 0.000E+00 ort(H,U,f) = 0.700E-06 0.254E-07 0.000E+00
CGA:  27    -0.479332884967E+03   -0.28375E-06   -0.35816E-06  3584   0.957E-06 0.726E-06
 gam= 0.470 trial= 0.484  step= 1.903 mean= 0.484
 gam= 0.000 g(H,U,f)=  0.183E-04 0.339E-07 0.107-202 ort(H,U,f) =-0.503E-05-0.214E-07-0.298-202
CGA:  28    -0.479332882617E+03    0.23505E-05   -0.12357E-05  3584   0.183E-04-0.505E-05
 gam= 0.000 trial= 0.555  step= 0.240 mean= 0.555
 gam= 0.221 g(H,U,f)=  0.406E-05 0.230E-08 0.737-186 ort(H,U,f) = 0.383E-05-0.336E-08 0.186-185
CGA:  29    -0.479332884220E+03   -0.16029E-05   -0.22036E-05  3584   0.406E-05 0.382E-05
 gam= 0.221 trial= 0.539  step= 0.438 mean= 0.539
 gam= 0.182 g(H,U,f)=  0.738E-06 0.126E-08 0.584-151 ort(H,U,f) = 0.320E-06 0.352E-09 0.185-150
CGA:  30    -0.479332885278E+03   -0.10577E-05   -0.10739E-05  3584   0.739E-06 0.320E-06
 gam= 0.182 trial= 0.534  step=-2.826 mean= 0.534
 BOPT < 0, no correction made
 gam= 0.000 g(H,U,f)=  0.820E-06 0.419E-08 0.344-113 ort(H,U,f) =-0.600E-06-0.118E-08 0.348-113
CGA:  31    -0.479332885744E+03   -0.46622E-06    0.11272E-05  3584   0.824E-06-0.601E-06
 gam= 0.000 trial= 0.534  step= 0.110 mean= 0.534
 gam= 0.000 g(H,U,f)=  0.269E-06 0.147E-08 0.963-108 ort(H,U,f) = 0.445E-06 0.245E-08 0.124-107
CGA:  32    -0.479332885694E+03    0.49866E-07   -0.45149E-07  3584   0.271E-06 0.448E-06
 gam= 0.000 trial= 0.513  step= 0.081 mean= 0.513
 gam= 0.000 g(H,U,f)=  0.134E-06 0.805E-09 0.855-104 ort(H,U,f) = 0.182E-06 0.108E-08 0.971-104
CGA:  33    -0.479332885665E+03    0.28569E-07   -0.10936E-07  3584   0.135E-06 0.183E-06
 gam= 0.000 trial= 0.491  step= 0.067 mean= 0.491
 gam= 0.000 g(H,U,f)=  0.804E-07 0.541E-09 0.140-100 ort(H,U,f) = 0.100E-06 0.656E-09 0.152-100
CGA:  34    -0.479332885648E+03    0.16997E-07   -0.45040E-08  3584   0.809E-07 0.101E-06
 gam= 0.000 trial= 0.470  step= 0.060 mean= 0.470
 gam= 0.000 g(H,U,f)=  0.535E-07 0.408E-09 0.985E-98 ort(H,U,f) = 0.639E-07 0.468E-09 0.105E-97
CGA:  35    -0.479332885638E+03    0.10787E-07   -0.24343E-08  3584   0.539E-07 0.644E-07
 gam= 0.000 trial= 0.450  step= 0.058 mean= 0.450
 gam= 0.000 g(H,U,f)=  0.376E-07 0.329E-09 0.505E-95 ort(H,U,f) = 0.440E-07 0.365E-09 0.530E-95
CGA:  36    -0.479332885630E+03    0.71959E-08   -0.15655E-08  3584   0.379E-07 0.444E-07
 gam= 0.000 trial= 0.430  step= 0.061 mean= 0.430
   1 F= -.47933289E+03 E0= -.47933289E+03  d E =-.306346E-89
Application 22296071 resources: utime ~25709934s, stime ~33765s, Rss ~384004, inblocks ~19055061, outblocks ~10971638
