       N       E                     dE             d eps       ncg     rms          ort
DAV:   1     0.347109558510E+05    0.34711E+05   -0.11415E+06  3584   0.486E+03
DAV:   2     0.858652683096E+04   -0.26124E+05   -0.25405E+05  3584   0.168E+03
DAV:   3     0.179153002964E+04   -0.67950E+04   -0.66893E+04  3584   0.498E+02
DAV:   4     0.437367951349E+03   -0.13542E+04   -0.12991E+04  3584   0.208E+02
DAV:   5     0.274126695914E+03   -0.16324E+03   -0.16075E+03  3584   0.776E+01
SDA:   6    -0.449471601968E+03   -0.72360E+03   -0.16075E+03  3584   0.109E+03 0.000E+00
CGA:   7    -0.467823156640E+03   -0.18352E+02   -0.18416E+02  3584   0.384E+02 0.615E+00
CGA:   8    -0.475379258176E+03   -0.75561E+01   -0.75564E+01  3584   0.809E+01 0.146E-01
CGA:   9    -0.478092892920E+03   -0.27136E+01   -0.27130E+01  3584   0.271E+01-0.611E-02
CGA:  10    -0.478953808772E+03   -0.86092E+00   -0.86167E+00  3584   0.100E+01-0.703E-02
CGA:  11    -0.479172826109E+03   -0.21902E+00   -0.21903E+00  3584   0.402E+00-0.126E-02
CGA:  12    -0.479283288216E+03   -0.11046E+00   -0.11057E+00  3584   0.101E+00-0.159E-02
CGA:  13    -0.479317623330E+03   -0.34335E-01   -0.34395E-01  3584   0.306E-01-0.434E-03
CGA:  14    -0.479327605931E+03   -0.99826E-02   -0.99883E-02  3584   0.119E-01-0.450E-04
CGA:  15    -0.479330403367E+03   -0.27974E-02   -0.27997E-02  3584   0.605E-02-0.239E-03
CGA:  16    -0.479331845468E+03   -0.14421E-02   -0.14414E-02  3584   0.182E-02 0.455E-04
CGA:  17    -0.479332520942E+03   -0.67547E-03   -0.68310E-03  3584   0.690E-03-0.525E-04
CGA:  18    -0.479332750010E+03   -0.22907E-03   -0.22859E-03  3584   0.255E-03 0.472E-05
CGA:  19    -0.479332834871E+03   -0.84861E-04   -0.84839E-04  3584   0.934E-04 0.284E-06
CGA:  20    -0.479332862927E+03   -0.28056E-04   -0.27594E-04  3584   0.362E-04 0.914E-05
CGA:  21    -0.479332876142E+03   -0.13215E-04   -0.14331E-04  3584   0.375E-04-0.983E-05
CGA:  22    -0.479332880109E+03   -0.39676E-05   -0.43516E-05  3584   0.133E-04 0.411E-05
CGA:  23    -0.479332881677E+03   -0.15674E-05   -0.19295E-05  3584   0.733E-05 0.310E-05
CGA:  24    -0.479332883657E+03   -0.19808E-05   -0.19560E-05  3584   0.347E-05-0.959E-06
CGA:  25    -0.479332883584E+03    0.73691E-07   -0.15626E-05  3584   0.164E-04-0.589E-05
CGA:  26    -0.479332884684E+03   -0.10999E-05   -0.16463E-05  3584   0.203E-05 0.354E-05
CGA:  27    -0.479332884967E+03   -0.28375E-06   -0.35816E-06  3584   0.957E-06 0.726E-06
CGA:  28    -0.479332882617E+03    0.23505E-05   -0.12357E-05  3584   0.183E-04-0.505E-05
CGA:  29    -0.479332884220E+03   -0.16029E-05   -0.22036E-05  3584   0.406E-05 0.382E-05
CGA:  30    -0.479332885278E+03   -0.10577E-05   -0.10739E-05  3584   0.739E-06 0.320E-06
CGA:  31    -0.479332885744E+03   -0.46622E-06    0.11272E-05  3584   0.824E-06-0.601E-06
CGA:  32    -0.479332885694E+03    0.49866E-07   -0.45149E-07  3584   0.271E-06 0.448E-06
CGA:  33    -0.479332885665E+03    0.28569E-07   -0.10936E-07  3584   0.135E-06 0.183E-06
CGA:  34    -0.479332885648E+03    0.16997E-07   -0.45040E-08  3584   0.809E-07 0.101E-06
CGA:  35    -0.479332885638E+03    0.10787E-07   -0.24343E-08  3584   0.539E-07 0.644E-07
CGA:  36    -0.479332885630E+03    0.71959E-08   -0.15655E-08  3584   0.379E-07 0.444E-07
   1 F= -.47933289E+03 E0= -.47933289E+03  d E =-.306346E-89
