  96  96   0   0
  0.2080188E+02  0.1257760E-08  0.1245754E-08  0.1274818E-08  0.5000000E-15
  1.000000000000000E-004
  CAR 
 MAPbI3-Cubic                            
     10.63761811    -19.70008619  301      1.58686966      1.00000000
    -19.700  0.0000E+00  0.0000E+00
    -19.599  0.0000E+00  0.0000E+00
    -19.498  0.0000E+00  0.0000E+00
    -19.397  0.0000E+00  0.0000E+00
    -19.296  0.0000E+00  0.0000E+00
    -19.194  0.0000E+00  0.0000E+00
    -19.093  0.0000E+00  0.0000E+00
    -18.992  0.0000E+00  0.0000E+00
    -18.891  0.0000E+00  0.0000E+00
    -18.790  0.0000E+00  0.0000E+00
    -18.689  0.0000E+00  0.0000E+00
    -18.588  0.0000E+00  0.0000E+00
    -18.487  0.0000E+00  0.0000E+00
    -18.385  0.0000E+00  0.0000E+00
    -18.284  0.0000E+00  0.1600E+02
    -18.183  0.0000E+00  0.1600E+02
    -18.082  0.0000E+00  0.1600E+02
    -17.981  0.0000E+00  0.1600E+02
    -17.880  0.0000E+00  0.1600E+02
    -17.779  0.0000E+00  0.1600E+02
    -17.678  0.0000E+00  0.1600E+02
    -17.576  0.0000E+00  0.1600E+02
    -17.475  0.0000E+00  0.1600E+02
    -17.374  0.0000E+00  0.1600E+02
    -17.273  0.0000E+00  0.1600E+02
    -17.172  0.0000E+00  0.1600E+02
    -17.071  0.0000E+00  0.1600E+02
    -16.970  0.0000E+00  0.1600E+02
    -16.869  0.0000E+00  0.1600E+02
    -16.767  0.0000E+00  0.1600E+02
    -16.666  0.0000E+00  0.1600E+02
    -16.565  0.0000E+00  0.1600E+02
    -16.464  0.0000E+00  0.1600E+02
    -16.363  0.0000E+00  0.4800E+02
    -16.262  0.0000E+00  0.4800E+02
    -16.161  0.0000E+00  0.4800E+02
    -16.060  0.0000E+00  0.4800E+02
    -15.958  0.0000E+00  0.4800E+02
    -15.857  0.0000E+00  0.4800E+02
    -15.756  0.0000E+00  0.4800E+02
    -15.655  0.0000E+00  0.4800E+02
    -15.554  0.0000E+00  0.4800E+02
    -15.453  0.0000E+00  0.4800E+02
    -15.352  0.0000E+00  0.4800E+02
    -15.251  0.0000E+00  0.4800E+02
    -15.149  0.0000E+00  0.4800E+02
    -15.048  0.0000E+00  0.4800E+02
    -14.947  0.0000E+00  0.4800E+02
    -14.846  0.0000E+00  0.4800E+02
    -14.745  0.0000E+00  0.4800E+02
    -14.644  0.0000E+00  0.4800E+02
    -14.543  0.0000E+00  0.4800E+02
    -14.442  0.0000E+00  0.4800E+02
    -14.340  0.0000E+00  0.4800E+02
    -14.239  0.0000E+00  0.4800E+02
    -14.138  0.0000E+00  0.4800E+02
    -14.037  0.0000E+00  0.4800E+02
    -13.936  0.0000E+00  0.4800E+02
    -13.835  0.0000E+00  0.8000E+02
    -13.734  0.0000E+00  0.9600E+02
    -13.633  0.0000E+00  0.9600E+02
    -13.531  0.0000E+00  0.9600E+02
    -13.430  0.0000E+00  0.9600E+02
    -13.329  0.0000E+00  0.9600E+02
    -13.228  0.0000E+00  0.9600E+02
    -13.127  0.0000E+00  0.9600E+02
    -13.026  0.0000E+00  0.9600E+02
    -12.925  0.0000E+00  0.9600E+02
    -12.824  0.0000E+00  0.9600E+02
    -12.722  0.0000E+00  0.9600E+02
    -12.621  0.0000E+00  0.9600E+02
    -12.520  0.0000E+00  0.9600E+02
    -12.419  0.0000E+00  0.9600E+02
    -12.318  0.0000E+00  0.9600E+02
    -12.217  0.0000E+00  0.9600E+02
    -12.116  0.0000E+00  0.9600E+02
    -12.015  0.0000E+00  0.9600E+02
    -11.913  0.0000E+00  0.9600E+02
    -11.812  0.0000E+00  0.9600E+02
    -11.711  0.0000E+00  0.9600E+02
    -11.610  0.0000E+00  0.9600E+02
    -11.509  0.0000E+00  0.9600E+02
    -11.408  0.5041E-08  0.9600E+02
    -11.307  0.0000E+00  0.1120E+03
    -11.206  0.0000E+00  0.1120E+03
    -11.104  0.0000E+00  0.1120E+03
    -11.003  0.0000E+00  0.1120E+03
    -10.902  0.0000E+00  0.1120E+03
    -10.801  0.1465E+01  0.1122E+03
    -10.700  0.0000E+00  0.1141E+03
    -10.599  0.1478E+01  0.1192E+03
    -10.498  0.3794E+01  0.1261E+03
    -10.397  0.0000E+00  0.1291E+03
    -10.295  0.8756E+00  0.1361E+03
    -10.194  0.5792E+01  0.1415E+03
    -10.093  0.1681E+01  0.1444E+03
     -9.992  0.4334E+01  0.1549E+03
     -9.891  0.0000E+00  0.1600E+03
     -9.790  0.0000E+00  0.1600E+03
     -9.689  0.0000E+00  0.1600E+03
     -9.588  0.0000E+00  0.1600E+03
     -9.486  0.0000E+00  0.1600E+03
     -9.385  0.0000E+00  0.1600E+03
     -9.284  0.0000E+00  0.1600E+03
     -9.183  0.0000E+00  0.1600E+03
     -9.082  0.0000E+00  0.1600E+03
     -8.981  0.0000E+00  0.1600E+03
     -8.880  0.0000E+00  0.1600E+03
     -8.779  0.0000E+00  0.1600E+03
     -8.677  0.0000E+00  0.1600E+03
     -8.576  0.0000E+00  0.1600E+03
     -8.475  0.0000E+00  0.1600E+03
     -8.374  0.0000E+00  0.1600E+03
     -8.273  0.0000E+00  0.1600E+03
     -8.172  0.0000E+00  0.1600E+03
     -8.071  0.0000E+00  0.1600E+03
     -7.970  0.0000E+00  0.1600E+03
     -7.868  0.0000E+00  0.1600E+03
     -7.767  0.0000E+00  0.1680E+03
     -7.666  0.8752E+01  0.1889E+03
     -7.565  0.0000E+00  0.1920E+03
     -7.464  0.0000E+00  0.1920E+03
     -7.363  0.0000E+00  0.1920E+03
     -7.262  0.0000E+00  0.1920E+03
     -7.161  0.0000E+00  0.1920E+03
     -7.059  0.0000E+00  0.1920E+03
     -6.958  0.2263E-10  0.1920E+03
     -6.857  0.0000E+00  0.1921E+03
     -6.756  0.0000E+00  0.1925E+03
     -6.655  0.0000E+00  0.1934E+03
     -6.554  0.0000E+00  0.1941E+03
     -6.453  0.2279E+01  0.1947E+03
     -6.351  0.0000E+00  0.1964E+03
     -6.250  0.1465E+01  0.1988E+03
     -6.149  0.1465E+01  0.2003E+03
     -6.048  0.2736E+01  0.2021E+03
     -5.947  0.3662E+01  0.2039E+03
     -5.846  0.1065E+02  0.2104E+03
     -5.745  0.4891E+00  0.2216E+03
     -5.644  0.0000E+00  0.2226E+03
     -5.542  0.0000E+00  0.2235E+03
     -5.441  0.7467E+00  0.2237E+03
     -5.340  0.0000E+00  0.2239E+03
     -5.239  0.0000E+00  0.2240E+03
     -5.138  0.0000E+00  0.2240E+03
     -5.037  0.0000E+00  0.2240E+03
     -4.936  0.0000E+00  0.2240E+03
     -4.835  0.0000E+00  0.2240E+03
     -4.733  0.0000E+00  0.2240E+03
     -4.632  0.0000E+00  0.2240E+03
     -4.531  0.0000E+00  0.2240E+03
     -4.430  0.0000E+00  0.2240E+03
     -4.329  0.0000E+00  0.2240E+03
     -4.228  0.0000E+00  0.2240E+03
     -4.127  0.0000E+00  0.2240E+03
     -4.026  0.0000E+00  0.2240E+03
     -3.924  0.0000E+00  0.2240E+03
     -3.823  0.0000E+00  0.2240E+03
     -3.722  0.0000E+00  0.2240E+03
     -3.621  0.8184E+01  0.2253E+03
     -3.520  0.1099E+02  0.2560E+03
     -3.419  0.0000E+00  0.2560E+03
     -3.318  0.0000E+00  0.2560E+03
     -3.217  0.0000E+00  0.2560E+03
     -3.115  0.0000E+00  0.2560E+03
     -3.014  0.0000E+00  0.2560E+03
     -2.913  0.0000E+00  0.2560E+03
     -2.812  0.0000E+00  0.2560E+03
     -2.711  0.0000E+00  0.2560E+03
     -2.610  0.0000E+00  0.2560E+03
     -2.509  0.0000E+00  0.2560E+03
     -2.408  0.0000E+00  0.2560E+03
     -2.306  0.0000E+00  0.2560E+03
     -2.205  0.6526E-04  0.2561E+03
     -2.104  0.2265E+01  0.2585E+03
     -2.003  0.1459E+01  0.2617E+03
     -1.902  0.1458E+01  0.2639E+03
     -1.801  0.0000E+00  0.2666E+03
     -1.700  0.5860E+01  0.2708E+03
     -1.599  0.2215E+01  0.2741E+03
     -1.497  0.2196E+01  0.2781E+03
     -1.396  0.0000E+00  0.2796E+03
     -1.295  0.0000E+00  0.2800E+03
     -1.194  0.2282E+01  0.2825E+03
     -1.093  0.0000E+00  0.2856E+03
     -0.992  0.5794E+01  0.2899E+03
     -0.891  0.2304E+01  0.2953E+03
     -0.790  0.1465E+01  0.2990E+03
     -0.688  0.2197E+01  0.3018E+03
     -0.587  0.3133E+01  0.3051E+03
     -0.486  0.2029E+01  0.3101E+03
     -0.385  0.5801E+01  0.3173E+03
     -0.284  0.4324E+01  0.3208E+03
     -0.183  0.5957E+01  0.3256E+03
     -0.082  0.5535E+01  0.3326E+03
      0.019  0.8661E+01  0.3415E+03
      0.121  0.5040E+01  0.3496E+03
      0.222  0.1465E+01  0.3530E+03
      0.323  0.4695E+01  0.3580E+03
      0.424  0.5680E+01  0.3623E+03
      0.525  0.2934E+01  0.3686E+03
      0.626  0.5129E+01  0.3759E+03
      0.727  0.1099E+02  0.3828E+03
      0.828  0.5123E+01  0.3908E+03
      0.930  0.5184E-02  0.3941E+03
      1.031  0.7347E+00  0.3964E+03
      1.132  0.2517E-12  0.3979E+03
      1.233  0.7315E-04  0.3993E+03
      1.334  0.0000E+00  0.3995E+03
      1.435  0.0000E+00  0.3999E+03
      1.536  0.0000E+00  0.3999E+03
      1.637  0.0000E+00  0.4000E+03
      1.739  0.0000E+00  0.4000E+03
      1.840  0.0000E+00  0.4000E+03
      1.941  0.0000E+00  0.4000E+03
      2.042  0.0000E+00  0.4000E+03
      2.143  0.0000E+00  0.4000E+03
      2.244  0.0000E+00  0.4001E+03
      2.345  0.1920E+00  0.4001E+03
      2.446  0.0000E+00  0.4003E+03
      2.548  0.0000E+00  0.4004E+03
      2.649  0.0000E+00  0.4006E+03
      2.750  0.7325E+00  0.4011E+03
      2.851  0.1517E-01  0.4016E+03
      2.952  0.0000E+00  0.4021E+03
      3.053  0.2930E+01  0.4028E+03
      3.154  0.1465E+01  0.4035E+03
      3.255  0.7325E+00  0.4044E+03
      3.357  0.4691E-11  0.4051E+03
      3.458  0.1699E-07  0.4061E+03
      3.559  0.3661E+01  0.4076E+03
      3.660  0.1465E+01  0.4090E+03
      3.761  0.0000E+00  0.4093E+03
      3.862  0.8917E+00  0.4103E+03
      3.963  0.0000E+00  0.4117E+03
      4.064  0.4592E+00  0.4131E+03
      4.166  0.7173E+00  0.4141E+03
      4.267  0.5159E+00  0.4158E+03
      4.368  0.1460E+01  0.4173E+03
      4.469  0.6250E+00  0.4196E+03
      4.570  0.0000E+00  0.4209E+03
      4.671  0.7325E+00  0.4220E+03
      4.772  0.0000E+00  0.4227E+03
      4.873  0.0000E+00  0.4236E+03
      4.975  0.0000E+00  0.4243E+03
      5.076  0.2219E-04  0.4250E+03
      5.177  0.2006E+00  0.4261E+03
      5.278  0.7325E+00  0.4272E+03
      5.379  0.3635E+01  0.4290E+03
      5.480  0.7325E+00  0.4312E+03
      5.581  0.3251E+01  0.4344E+03
      5.682  0.1465E+01  0.4371E+03
      5.784  0.1968E-06  0.4396E+03
      5.885  0.2869E+01  0.4422E+03
      5.986  0.2197E+01  0.4451E+03
      6.087  0.7207E+00  0.4487E+03
      6.188  0.6491E+01  0.4536E+03
      6.289  0.3691E+01  0.4579E+03
      6.390  0.1450E+01  0.4618E+03
      6.491  0.8589E+01  0.4680E+03
      6.593  0.3559E+01  0.4735E+03
      6.694  0.7325E+00  0.4773E+03
      6.795  0.3135E+01  0.4806E+03
      6.896  0.2018E+01  0.4844E+03
      6.997  0.2930E+01  0.4899E+03
      7.098  0.1733E+01  0.4930E+03
      7.199  0.3662E+01  0.4981E+03
      7.300  0.1624E+01  0.5025E+03
      7.402  0.3642E+01  0.5067E+03
      7.503  0.3774E+01  0.5110E+03
      7.604  0.2177E+01  0.5160E+03
      7.705  0.3570E+01  0.5220E+03
      7.806  0.4953E+01  0.5265E+03
      7.907  0.2630E+01  0.5331E+03
      8.008  0.5922E+01  0.5373E+03
      8.109  0.1255E+01  0.5415E+03
      8.211  0.7202E+01  0.5472E+03
      8.312  0.7293E+01  0.5529E+03
      8.413  0.4184E+01  0.5591E+03
      8.514  0.3025E+01  0.5656E+03
      8.615  0.5667E+01  0.5716E+03
      8.716  0.4395E+01  0.5779E+03
      8.817  0.2024E+01  0.5828E+03
      8.918  0.2970E+01  0.5891E+03
      9.020  0.3617E+01  0.5940E+03
      9.121  0.1943E+01  0.5979E+03
      9.222  0.1336E+01  0.5999E+03
      9.323  0.0000E+00  0.6000E+03
      9.424  0.0000E+00  0.6000E+03
      9.525  0.0000E+00  0.6000E+03
      9.626  0.0000E+00  0.6000E+03
      9.727  0.0000E+00  0.6000E+03
      9.829  0.0000E+00  0.6000E+03
      9.930  0.0000E+00  0.6000E+03
     10.031  0.0000E+00  0.6000E+03
     10.132  0.0000E+00  0.6000E+03
     10.233  0.0000E+00  0.6000E+03
     10.334  0.0000E+00  0.6000E+03
     10.435  0.0000E+00  0.6000E+03
     10.536  0.0000E+00  0.6000E+03
     10.638  0.0000E+00  0.6000E+03
