 vasp.5.4.1 24Jun15 (build Nov 25 2015 16:39:35) complex                        
  
 executed on         CrayXC-Intel date 2016.06.22  00:47:56
 running on  192 total cores
 distrk:  each k-point on  192 cores,    1 groups
 distr:  one band on NCORES_PER_BAND=  24 cores,    8 groups


--------------------------------------------------------------------------------------------------------


 INCAR:
 POTCAR:    PAW_PBE C 08Apr2002                   
 POTCAR:    PAW_PBE N 08Apr2002                   
 POTCAR:    PAW_PBE H 15Jun2001                   
 POTCAR:    PAW_PBE Pb_d 06Sep2000                
 POTCAR:    PAW_PBE I 08Apr2002                   
 POTCAR:    PAW_PBE C 08Apr2002                   
   VRHFIN =C: s2p2                                                              
   LEXCH  = PE                                                                  
   EATOM  =   147.1560 eV,   10.8157 Ry                                         
                                                                                
   TITEL  = PAW_PBE C 08Apr2002                                                 
   LULTRA =        F    use ultrasoft PP ?                                      
   IUNSCR =        1    unscreen: 0-lin 1-nonlin 2-no                           
   RPACOR =    1.200    partial core radius                                     
   POMASS =   12.011; ZVAL   =    4.000    mass and valenz                      
   RCORE  =    1.500    outmost cutoff radius                                   
   RWIGS  =    1.630; RWIGS  =    0.863    wigner-seitz radius (au A)           
   ENMAX  =  400.000; ENMIN  =  300.000 eV                                      
   ICORE  =        2    local potential                                         
   LCOR   =        T    correct aug charges                                     
   LPAW   =        T    paw PP                                                  
   EAUG   =  644.873                                                            
   DEXC   =    0.000                                                            
   RMAX   =    1.529    core radius for proj-oper                               
   RAUG   =    1.300    factor for augmentation sphere                          
   RDEP   =    1.501    radius for radial grids                                 
   RDEPT  =    1.300    core radius for aug-charge                              
                                                                                
   Atomic configuration                                                         
    4 entries                                                                   
     n  l   j            E        occ.                                          
     1  0  0.50      -273.3789   2.0000                                         
     2  0  0.50       -13.7508   2.0000                                         
     2  1  0.50        -5.2854   2.0000                                         
     3  2  1.50        -5.4423   0.0000                                         
   Description                                                                  
     l       E           TYP  RCUT    TYP  RCUT                                 
     0    -13.7508458     23  1.200                                             
     0     -8.2022199     23  1.200                                             
     1     -5.2854383     23  1.500                                             
     1     34.0145650     23  1.500                                             
     2     -5.4423304      7  1.500                                             
  local pseudopotential read in
  partial core-charges read in
  partial kinetic energy density read in
  atomic valenz-charges read in
  non local Contribution for L=           0  read in
    real space projection operators read in
  non local Contribution for L=           0  read in
    real space projection operators read in
  non local Contribution for L=           1  read in
    real space projection operators read in
  non local Contribution for L=           1  read in
    real space projection operators read in
    PAW grid and wavefunctions read in
 
   number of l-projection  operators is LMAX  =           4
   number of lm-projection operators is LMMAX =           8
 
 POTCAR:    PAW_PBE N 08Apr2002                   
   VRHFIN =N: s2p3                                                              
   LEXCH  = PE                                                                  
   EATOM  =   264.5486 eV,   19.4438 Ry                                         
                                                                                
   TITEL  = PAW_PBE N 08Apr2002                                                 
   LULTRA =        F    use ultrasoft PP ?                                      
   IUNSCR =        1    unscreen: 0-lin 1-nonlin 2-no                           
   RPACOR =    1.200    partial core radius                                     
   POMASS =   14.001; ZVAL   =    5.000    mass and valenz                      
   RCORE  =    1.500    outmost cutoff radius                                   
   RWIGS  =    1.400; RWIGS  =    0.741    wigner-seitz radius (au A)           
   ENMAX  =  400.000; ENMIN  =  300.000 eV                                      
   ICORE  =        2    local potential                                         
   LCOR   =        T    correct aug charges                                     
   LPAW   =        T    paw PP                                                  
   EAUG   =  627.112                                                            
   DEXC   =    0.000                                                            
   RMAX   =    1.529    core radius for proj-oper                               
   RAUG   =    1.300    factor for augmentation sphere                          
   RDEP   =    1.514    radius for radial grids                                 
   RDEPT  =    1.338    core radius for aug-charge                              
                                                                                
   Atomic configuration                                                         
    4 entries                                                                   
     n  l   j            E        occ.                                          
     1  0  0.50      -384.7179   2.0000                                         
     2  0  0.50       -18.5828   2.0000                                         
     2  1  0.50        -7.0898   3.0000                                         
     3  2  1.50        -6.8029   0.0000                                         
   Description                                                                  
     l       E           TYP  RCUT    TYP  RCUT                                 
     0    -18.5828119     23  1.200                                             
     0    -13.5018863     23  1.200                                             
     1     -7.0897853     23  1.500                                             
     1      9.5240782     23  1.500                                             
     2     -6.8029130      7  1.500                                             
  local pseudopotential read in
  partial core-charges read in
  partial kinetic energy density read in
  atomic valenz-charges read in
  non local Contribution for L=           0  read in
    real space projection operators read in
  non local Contribution for L=           0  read in
    real space projection operators read in
  non local Contribution for L=           1  read in
    real space projection operators read in
  non local Contribution for L=           1  read in
    real space projection operators read in
    PAW grid and wavefunctions read in
 
   number of l-projection  operators is LMAX  =           4
   number of lm-projection operators is LMMAX =           8
 
 POTCAR:    PAW_PBE H 15Jun2001                   
   VRHFIN =H: ultrasoft test                                                    
   LEXCH  = PE                                                                  
   EATOM  =    12.4884 eV,    0.9179 Ry                                         
                                                                                
   TITEL  = PAW_PBE H 15Jun2001                                                 
   LULTRA =        F    use ultrasoft PP ?                                      
   IUNSCR =        0    unscreen: 0-lin 1-nonlin 2-no                           
   RPACOR =    0.000    partial core radius                                     
   POMASS =    1.000; ZVAL   =    1.000    mass and valenz                      
   RCORE  =    1.100    outmost cutoff radius                                   
   RWIGS  =    0.700; RWIGS  =    0.370    wigner-seitz radius (au A)           
   ENMAX  =  250.000; ENMIN  =  200.000 eV                                      
   RCLOC  =    0.701    cutoff for local pot                                    
   LCOR   =        T    correct aug charges                                     
   LPAW   =        T    paw PP                                                  
   EAUG   =  400.000                                                            
   RMAX   =    1.123    core radius for proj-oper                               
   RAUG   =    1.200    factor for augmentation sphere                          
   RDEP   =    1.112    radius for radial grids                                 
   RDEPT  =    0.926    core radius for aug-charge                              
                                                                                
   Atomic configuration                                                         
    2 entries                                                                   
     n  l   j            E        occ.                                          
     1  0  0.50        -6.4927   1.0000                                         
     2  1  0.50        -3.4015   0.0000                                         
   Description                                                                  
     l       E           TYP  RCUT    TYP  RCUT                                 
     0     -6.4927494     23  1.100                                             
     0      6.8029130     23  1.100                                             
     1     -4.0817478     23  1.100                                             
  local pseudopotential read in
  atomic valenz-charges read in
  non local Contribution for L=           0  read in
    real space projection operators read in
  non local Contribution for L=           0  read in
    real space projection operators read in
  non local Contribution for L=           1  read in
    real space projection operators read in
    PAW grid and wavefunctions read in
 
   number of l-projection  operators is LMAX  =           3
   number of lm-projection operators is LMMAX =           5
 
 POTCAR:    PAW_PBE Pb_d 06Sep2000                
   VRHFIN =Pb:                                                                  
   LEXCH  = PE                                                                  
   EATOM  =  1661.6185 eV,  122.1255 Ry                                         
                                                                                
   TITEL  = PAW_PBE Pb_d 06Sep2000                                              
   LULTRA =        F    use ultrasoft PP ?                                      
   IUNSCR =        1    unscreen: 0-lin 1-nonlin 2-no                           
   RPACOR =    2.200    partial core radius                                     
   POMASS =  207.200; ZVAL   =   14.000    mass and valenz                      
   RCORE  =    2.500    outmost cutoff radius                                   
   RWIGS  =    3.260; RWIGS  =    1.725    wigner-seitz radius (au A)           
   ENMAX  =  237.835; ENMIN  =  178.376 eV                                      
   ICORE  =        3    local potential                                         
   LCOR   =        T    correct aug charges                                     
   LPAW   =        T    paw PP                                                  
   EAUG   =  391.914                                                            
   DEXC   =    0.000                                                            
   RMAX   =    2.565    core radius for proj-oper                               
   RAUG   =    1.300    factor for augmentation sphere                          
   RDEP   =    2.643    radius for radial grids                                 
   RDEPT  =    2.092    core radius for aug-charge                              
                                                                                
   Atomic configuration                                                         
   16 entries                                                                   
     n  l   j            E        occ.                                          
     1  0  0.50    -88091.8466   2.0000                                         
     2  0  0.50    -15753.4197   2.0000                                         
     2  1  1.50    -13508.1797   6.0000                                         
     3  0  0.50     -3781.7194   2.0000                                         
     3  1  1.50     -3138.2529   6.0000                                         
     3  2  2.50     -2483.2977  10.0000                                         
     4  0  0.50      -856.2895   2.0000                                         
     4  1  1.50      -645.4942   6.0000                                         
     4  2  2.50      -401.8768  10.0000                                         
     4  3  3.50      -132.9059  14.0000                                         
     5  0  0.50      -144.0950   2.0000                                         
     5  1  1.50       -85.7879   6.0000                                         
     5  2  2.50       -21.1769  10.0000                                         
     6  0  0.50       -12.0372   2.0000                                         
     6  1  1.50        -3.4971   2.0000                                         
     5  3  2.50        -2.7212   0.0000                                         
   Description                                                                  
     l       E           TYP  RCUT    TYP  RCUT                                 
     2    -21.1768523     23  2.500                                             
     2      1.3605826     23  2.500                                             
     0    -12.0371562     23  2.500                                             
     0     13.6058260     23  2.500                                             
     1     -3.4971339     23  2.500                                             
     1     13.6058260     23  2.500                                             
     3     -1.3605826      7  2.500                                             
  local pseudopotential read in
  partial core-charges read in
  partial kinetic energy density read in
  atomic valenz-charges read in
  non local Contribution for L=           2  read in
    real space projection operators read in
  non local Contribution for L=           2  read in
    real space projection operators read in
  non local Contribution for L=           0  read in
    real space projection operators read in
  non local Contribution for L=           0  read in
    real space projection operators read in
  non local Contribution for L=           1  read in
    real space projection operators read in
  non local Contribution for L=           1  read in
    real space projection operators read in
    PAW grid and wavefunctions read in
 
   number of l-projection  operators is LMAX  =           6
   number of lm-projection operators is LMMAX =          18
 
 POTCAR:    PAW_PBE I 08Apr2002                   
   VRHFIN =I : s2p5                                                             
   LEXCH  = PE                                                                  
   EATOM  =   315.8678 eV,   23.2156 Ry                                         
                                                                                
   TITEL  = PAW_PBE I 08Apr2002                                                 
   LULTRA =        F    use ultrasoft PP ?                                      
   IUNSCR =        1    unscreen: 0-lin 1-nonlin 2-no                           
   RPACOR =    2.200    partial core radius                                     
   POMASS =  126.904; ZVAL   =    7.000    mass and valenz                      
   RCORE  =    2.300    outmost cutoff radius                                   
   RWIGS  =    2.810; RWIGS  =    1.487    wigner-seitz radius (au A)           
   ENMAX  =  175.647; ENMIN  =  131.735 eV                                      
   ICORE  =        3    local potential                                         
   LCOR   =        T    correct aug charges                                     
   LPAW   =        T    paw PP                                                  
   EAUG   =  370.139                                                            
   DEXC   =    0.000                                                            
   RMAX   =    2.359    core radius for proj-oper                               
   RAUG   =    1.300    factor for augmentation sphere                          
   RDEP   =    2.392    radius for radial grids                                 
   RDEPT  =    2.170    core radius for aug-charge                              
                                                                                
   Atomic configuration                                                         
   13 entries                                                                   
     n  l   j            E        occ.                                          
     1  0  0.50    -32976.3739   2.0000                                         
     2  0  0.50     -5094.5933   2.0000                                         
     2  1  1.50     -4572.0131   6.0000                                         
     3  0  0.50     -1028.2813   2.0000                                         
     3  1  1.50      -859.0250   6.0000                                         
     3  2  2.50      -605.7620  10.0000                                         
     4  0  0.50      -180.5540   2.0000                                         
     4  1  1.50      -127.5306   6.0000                                         
     4  2  2.50       -50.2720  10.0000                                         
     5  0  0.50       -17.4058   2.0000                                         
     5  1  0.50        -7.0851   5.0000                                         
     5  2  1.50        -7.0750   0.0000                                         
     4  3  2.50        -7.0750   0.0000                                         
   Description                                                                  
     l       E           TYP  RCUT    TYP  RCUT                                 
     0    -17.4058016     23  2.300                                             
     0    -18.7663842     23  2.300                                             
     1     -7.0850686     23  2.300                                             
     1     -4.2150896     23  2.300                                             
     2     -7.0750295     23  2.300                                             
     3     -1.3605826     23  2.300                                             
  local pseudopotential read in
  partial core-charges read in
  partial kinetic energy density read in
  atomic valenz-charges read in
  non local Contribution for L=           0  read in
    real space projection operators read in
  non local Contribution for L=           0  read in
    real space projection operators read in
  non local Contribution for L=           1  read in
    real space projection operators read in
  non local Contribution for L=           1  read in
    real space projection operators read in
  non local Contribution for L=           2  read in
    real space projection operators read in
    PAW grid and wavefunctions read in
 
   number of l-projection  operators is LMAX  =           5
   number of lm-projection operators is LMMAX =          13
 

 ----------------------------------------------------------------------------- 
|                                                                             |
|  ADVICE TO THIS USER RUNNING 'VASP/VAMP'   (HEAR YOUR MASTER'S VOICE ...):  |
|                                                                             |
|      You have a (more or less) 'large supercell' and for larger cells       |
|      it might be more efficient to use real space projection opertators     |
|      So try LREAL= Auto  in the INCAR   file.                               |
|      Mind: At the moment your POTCAR file does not contain real space       |
|       projectors, and has to be modified,  BUT if you                       |
|      want to do an extremely  accurate calculation you might also keep the  |
|      reciprocal projection scheme          (i.e. LREAL=.FALSE.)             |
|                                                                             |
 ----------------------------------------------------------------------------- 


 ----------------------------------------------------------------------------- 
|                                                                             |
|  ADVICE TO THIS USER RUNNING 'VASP/VAMP'   (HEAR YOUR MASTER'S VOICE ...):  |
|                                                                             |
|      You enforced a specific xc-type in the INCAR file,                     |
|      a different type was found on the POTCAR file                          |
|          I HOPE YOU KNOW, WHAT YOU ARE  DOING                               |
|                                                                             |
 ----------------------------------------------------------------------------- 

  PAW_PBE C 08Apr2002                   :
 energy of atom  1       EATOM= -147.1560
 kinetic energy error for atom=    0.0032 (will be added to EATOM!!)
  PAW_PBE N 08Apr2002                   :
 energy of atom  2       EATOM= -264.5486
 kinetic energy error for atom=    0.0061 (will be added to EATOM!!)
  PAW_PBE H 15Jun2001                   :
 energy of atom  3       EATOM=  -12.4884
 kinetic energy error for atom=    0.0002 (will be added to EATOM!!)
  PAW_PBE Pb_d 06Sep2000                :
 energy of atom  4       EATOM=-1661.6185
 kinetic energy error for atom=    0.0012 (will be added to EATOM!!)
  PAW_PBE I 08Apr2002                   :
 energy of atom  5       EATOM= -315.8678
 kinetic energy error for atom=    0.0003 (will be added to EATOM!!)
 
 
 POSCAR: C N H Pb I                              
  positions in direct lattice
  No initial velocities read in
 exchange correlation table for  LEXCH =       14
   RHO(1)=    0.500       N(1)  =     2000
   RHO(2)=  100.500       N(2)  =     4000
 


--------------------------------------------------------------------------------------------------------


 ion  position               nearest neighbor table
   1  0.199  0.250  0.225-  25 1.10  33 1.10  17 1.10   9 1.48
   2  0.695  0.250  0.232-  26 1.10  34 1.10  18 1.10  10 1.48
   3  0.195  0.750  0.232-  27 1.10  35 1.10  19 1.10  11 1.48
   4  0.699  0.750  0.225-  28 1.10  36 1.10  20 1.10  12 1.48
   5  0.199  0.250  0.725-  29 1.10  37 1.10  21 1.10  13 1.48
   6  0.695  0.250  0.732-  30 1.10  38 1.10  22 1.10  14 1.48
   7  0.195  0.750  0.732-  31 1.10  39 1.10  23 1.10  15 1.48
   8  0.699  0.750  0.725-  32 1.10  40 1.10  24 1.10  16 1.48
   9  0.305  0.250  0.274-  57 1.04  41 1.05  49 1.05   1 1.48
  10  0.804  0.250  0.274-  58 1.04  42 1.05  50 1.05   2 1.48
  11  0.304  0.750  0.274-  59 1.04  43 1.05  51 1.05   3 1.48
  12  0.805  0.750  0.274-  60 1.04  44 1.05  52 1.05   4 1.48
  13  0.305  0.250  0.774-  61 1.04  45 1.05  53 1.05   5 1.48
  14  0.804  0.250  0.774-  62 1.04  46 1.05  54 1.05   6 1.48
  15  0.304  0.750  0.774-  63 1.04  47 1.05  55 1.05   7 1.48
  16  0.805  0.750  0.774-  64 1.04  48 1.05  56 1.05   8 1.48
  17  0.210  0.250  0.140-   1 1.10
  18  0.700  0.250  0.146-   2 1.10
  19  0.200  0.750  0.146-   3 1.10
  20  0.710  0.750  0.140-   4 1.10
  21  0.210  0.250  0.640-   5 1.10
  22  0.700  0.250  0.646-   6 1.10
  23  0.200  0.750  0.646-   7 1.10
  24  0.710  0.750  0.640-   8 1.10
  25  0.156  0.322  0.251-   1 1.10
  26  0.653  0.322  0.260-   2 1.10
  27  0.153  0.822  0.260-   3 1.10
  28  0.656  0.822  0.251-   4 1.10
  29  0.156  0.322  0.751-   5 1.10
  30  0.653  0.322  0.760-   6 1.10
  31  0.153  0.822  0.760-   7 1.10
  32  0.656  0.822  0.751-   8 1.10
  33  0.156  0.177  0.251-   1 1.10
  34  0.653  0.177  0.261-   2 1.10
  35  0.153  0.677  0.261-   3 1.10
  36  0.656  0.677  0.251-   4 1.10
  37  0.156  0.177  0.751-   5 1.10
  38  0.653  0.177  0.761-   6 1.10
  39  0.153  0.677  0.761-   7 1.10
  40  0.656  0.677  0.751-   8 1.10
  41  0.349  0.318  0.252-   9 1.05
  42  0.847  0.318  0.249-  10 1.05
  43  0.347  0.818  0.249-  11 1.05
  44  0.849  0.818  0.252-  12 1.05
  45  0.349  0.318  0.752-  13 1.05
  46  0.847  0.318  0.749-  14 1.05
  47  0.347  0.818  0.749-  15 1.05
  48  0.849  0.818  0.752-  16 1.05
  49  0.350  0.182  0.253-   9 1.05
  50  0.847  0.182  0.249-  10 1.05
  51  0.347  0.682  0.249-  11 1.05
  52  0.850  0.682  0.253-  12 1.05
  53  0.350  0.182  0.753-  13 1.05
  54  0.847  0.182  0.749-  14 1.05
  55  0.347  0.682  0.749-  15 1.05
  56  0.850  0.682  0.753-  16 1.05
  57  0.301  0.250  0.356-   9 1.04
  58  0.806  0.250  0.356-  10 1.04
  59  0.306  0.750  0.356-  11 1.04
  60  0.801  0.750  0.356-  12 1.04
  61  0.301  0.250  0.856-  13 1.04
  62  0.806  0.250  0.856-  14 1.04
  63  0.306  0.750  0.856-  15 1.04
  64  0.801  0.750  0.856-  16 1.04
  65  0.472  0.500  0.489-  90 3.08  85 3.14  87 3.15  77 3.17  73 3.22  89 3.25
  66  0.972  0.500  0.489-  89 3.08  88 3.14  86 3.15  78 3.17  74 3.22  90 3.25
  67  0.472  1.000  0.489-  92 3.08  85 3.14  87 3.15  79 3.17  75 3.22  91 3.25
  68  0.972  0.000  0.489-  91 3.08  88 3.14  86 3.15  80 3.17  76 3.22  92 3.25
  69  0.472  0.500  0.989-  94 3.08  81 3.14  83 3.15  73 3.17  77 3.22  93 3.25
  70  0.972  0.500  0.989-  93 3.08  84 3.14  82 3.15  74 3.17  78 3.22  94 3.25
  71  0.472  1.000  0.989-  96 3.08  81 3.14  83 3.15  75 3.17  79 3.22  95 3.25
  72  0.972  0.000  0.989-  95 3.08  84 3.14  82 3.15  76 3.17  80 3.22  96 3.25
  73  0.455  0.500  0.238-  69 3.17  65 3.22
  74  0.955  0.500  0.238-  70 3.17  66 3.22
  75  0.455  1.000  0.238-  71 3.17  67 3.22
  76  0.955  0.000  0.238-  72 3.17  68 3.22
  77  0.455  0.500  0.738-  65 3.17  69 3.22
  78  0.955  0.500  0.738-  66 3.17  70 3.22
  79  0.455  1.000  0.738-  67 3.17  71 3.22
  80  0.955  0.000  0.738-  68 3.17  72 3.22
  81  0.457  0.250  0.011-  71 3.14  69 3.14
  82  0.943  0.250  0.013-  72 3.15  70 3.15
  83  0.443  0.750  0.013-  69 3.15  71 3.15
  84  0.957  0.750  0.011-  70 3.14  72 3.14
  85  0.457  0.250  0.511-  67 3.14  65 3.14
  86  0.943  0.250  0.513-  68 3.15  66 3.15
  87  0.443  0.750  0.513-  65 3.15  67 3.15
  88  0.957  0.750  0.511-  66 3.14  68 3.14
  89  0.216  0.492  0.461-  66 3.08  65 3.25
  90  0.716  0.508  0.461-  65 3.08  66 3.25
  91  0.216  0.008  0.461-  68 3.08  67 3.25
  92  0.716  0.992  0.461-  67 3.08  68 3.25
  93  0.216  0.492  0.961-  70 3.08  69 3.25
  94  0.716  0.508  0.961-  69 3.08  70 3.25
  95  0.216  0.008  0.961-  72 3.08  71 3.25
  96  0.716  0.992  0.961-  71 3.08  72 3.25
 
  LATTYP: Found a triclinic cell.
 ALAT       =    17.8238589327
 B/A-ratio  =     0.6989248630
 C/A-ratio  =     1.0156975818
 COS(alpha) =     0.0001355172
 COS(beta)  =     0.5146378593
 COS(gamma) =     0.6988877578
  
  Lattice vectors:
  
 A1 = (  -0.1406063366, -12.4576271275, -12.7466742118)
 A2 = (  -0.0011956322, -12.4575380825,   0.0007464135)
 A3 = ( -12.7162481321,  -0.0020049566, -12.8856194186)


Analysis of symmetry for initial positions (statically):
=====================================================================
 Subroutine PRICEL returns following result:
 
  LATTYP: Found a triclinic cell.
 ALAT       =     8.8502626515
 B/A-ratio  =     1.4075896561
 C/A-ratio  =     0.7202149489
 COS(alpha) =     0.0000518785
 COS(beta)  =     0.0156138721
 COS(gamma) =     0.7036188608
  
  Lattice vectors:
  
 A1 = (  -6.2878208978,   6.2278110854,  -0.0694726034)
 A2 = (   0.0011956322,  12.4575380825,  -0.0007464135)
 A3 = (  -0.0697053522,  -0.0000445225,  -6.3737103126)
 
   4 primitive cells build up your supercell.
 

 Routine SETGRP: Setting up the symmetry group for a 
 triclinic supercell.


 Subroutine GETGRP returns: Found  1 space group operations
 (whereof  1 operations were pure point group operations)
 out of a pool of  2 trial point group operations.


The static configuration has the point symmetry C_1 .


Analysis of symmetry for dynamics (positions and initial velocities):
=====================================================================
 Subroutine PRICEL returns following result:
 
  LATTYP: Found a triclinic cell.
 ALAT       =     8.8502626515
 B/A-ratio  =     1.4075896561
 C/A-ratio  =     0.7202149489
 COS(alpha) =     0.0000518785
 COS(beta)  =     0.0156138721
 COS(gamma) =     0.7036188608
  
  Lattice vectors:
  
 A1 = (  -6.2878208978,   6.2278110854,  -0.0694726034)
 A2 = (   0.0011956322,  12.4575380825,  -0.0007464135)
 A3 = (  -0.0697053522,  -0.0000445225,  -6.3737103126)
 
   4 primitive cells build up your supercell.
 

 Routine SETGRP: Setting up the symmetry group for a 
 triclinic supercell.


 Subroutine GETGRP returns: Found  1 space group operations
 (whereof  1 operations were pure point group operations)
 out of a pool of  2 trial point group operations.


The dynamic configuration has the point symmetry C_1 .


Analysis of structural, dynamic, and magnetic symmetry:
=====================================================================
 Subroutine PRICEL returns following result:
 
  LATTYP: Found a triclinic cell.
 ALAT       =     8.8502626515
 B/A-ratio  =     1.4075896561
 C/A-ratio  =     0.7202149489
 COS(alpha) =     0.0000518785
 COS(beta)  =     0.0156138721
 COS(gamma) =     0.7036188608
  
  Lattice vectors:
  
 A1 = (  -6.2878208978,   6.2278110854,  -0.0694726034)
 A2 = (   0.0011956322,  12.4575380825,  -0.0007464135)
 A3 = (  -0.0697053522,  -0.0000445225,  -6.3737103126)
 
   4 primitive cells build up your supercell.
 

 Routine SETGRP: Setting up the symmetry group for a 
 triclinic supercell.


 Subroutine GETGRP returns: Found  1 space group operations
 (whereof  1 operations were pure point group operations)
 out of a pool of  2 trial point group operations.


The (compounded) configuration has the point symmetry C_1 .


 Subroutine INISYM returns: Found  1 space group operations
 (whereof  1 operations are pure point group operations),
 and found     4 'primitive' translations

 
 
 KPOINTS: Automatic 3x3x3                         

Automatic generation of k-mesh.
Space group operators:
 irot       det(A)        alpha          n_x          n_y          n_z        tau_x        tau_y        tau_z
    1     1.000000     0.000000     1.000000     0.000000     0.000000     0.000000     0.000000     0.000000
 
 Subroutine IBZKPT returns following result:
 ===========================================
 
 Found     27 irreducible k-points:
 
 Following reciprocal coordinates:
            Coordinates               Weight
  0.000000  0.000000  0.000000      1.000000
  0.333333 -0.000000 -0.000000      1.000000
 -0.333333  0.000000  0.000000      1.000000
  0.000000  0.333333 -0.000000      1.000000
  0.333333  0.333333  0.000000      1.000000
 -0.333333  0.333333  0.000000      1.000000
 -0.000000 -0.333333  0.000000      1.000000
  0.333333 -0.333333 -0.000000      1.000000
 -0.333333 -0.333333 -0.000000      1.000000
  0.000000  0.000000  0.333333      1.000000
  0.333333  0.000000  0.333333      1.000000
 -0.333333  0.000000  0.333333      1.000000
  0.000000  0.333333  0.333333      1.000000
  0.333333  0.333333  0.333333      1.000000
 -0.333333  0.333333  0.333333      1.000000
  0.000000 -0.333333  0.333333      1.000000
  0.333333 -0.333333  0.333333      1.000000
 -0.333333 -0.333333  0.333333      1.000000
  0.000000  0.000000 -0.333333      1.000000
  0.333333 -0.000000 -0.333333      1.000000
 -0.333333 -0.000000 -0.333333      1.000000
 -0.000000  0.333333 -0.333333      1.000000
  0.333333  0.333333 -0.333333      1.000000
 -0.333333  0.333333 -0.333333      1.000000
 -0.000000 -0.333333 -0.333333      1.000000
  0.333333 -0.333333 -0.333333      1.000000
 -0.333333 -0.333333 -0.333333      1.000000
 
 Following cartesian coordinates:
            Coordinates               Weight
  0.000000  0.000000  0.000000      1.000000
  0.026507 -0.000003 -0.000290      1.000000
 -0.026507  0.000003  0.000290      1.000000
 -0.000004  0.026758 -0.000000      1.000000
  0.026503  0.026755 -0.000290      1.000000
 -0.026511  0.026760  0.000290      1.000000
  0.000004 -0.026758  0.000000      1.000000
  0.026511 -0.026760 -0.000290      1.000000
 -0.026503 -0.026755  0.000290      1.000000
 -0.000287  0.000002  0.026152      1.000000
  0.026220 -0.000001  0.025862      1.000000
 -0.026794  0.000004  0.026442      1.000000
 -0.000291  0.026759  0.026152      1.000000
  0.026215  0.026757  0.025862      1.000000
 -0.026798  0.026762  0.026442      1.000000
 -0.000283 -0.026756  0.026152      1.000000
  0.026224 -0.026759  0.025862      1.000000
 -0.026790 -0.026753  0.026442      1.000000
  0.000287 -0.000002 -0.026152      1.000000
  0.026794 -0.000004 -0.026442      1.000000
 -0.026220  0.000001 -0.025862      1.000000
  0.000283  0.026756 -0.026152      1.000000
  0.026790  0.026753 -0.026442      1.000000
 -0.026224  0.026759 -0.025862      1.000000
  0.000291 -0.026759 -0.026152      1.000000
  0.026798 -0.026762 -0.026442      1.000000
 -0.026215 -0.026757 -0.025862      1.000000
 


--------------------------------------------------------------------------------------------------------




 Dimension of arrays:
   k-points           NKPTS =     27   k-points in BZ     NKDIM =     27   number of bands    NBANDS=    600
   number of dos      NEDOS =    301   number of ions     NIONS =     96
   non local maximal  LDIM  =      6   non local SUM 2l+1 LMDIM =     18
   total plane-waves  NPLWV = ******
   max r-space proj   IRMAX =      1   max aug-charges    IRDMAX= 314103
   dimension x,y,z NGX =   112 NGY =  108 NGZ =  112
   dimension x,y,z NGXF=   224 NGYF=  216 NGZF=  224
   support grid    NGXF=   448 NGYF=  432 NGZF=  448
   ions per type =               8   8  48   8  24
 NGX,Y,Z   is equivalent  to a cutoff of  14.80, 14.41, 14.61 a.u.
 NGXF,Y,Z  is equivalent  to a cutoff of  29.61, 28.83, 29.21 a.u.


 I would recommend the setting:
   dimension x,y,z NGX =   109 NGY =  107 NGZ =  110
 SYSTEM =  MAPbI3-Cubic                            
 POSCAR =  C N H Pb I                              

 Startparameter for this run:
   NWRITE =      2    write-flag & timer
   PREC   = accura    normal or accurate (medium, high low for compatibility)
   ISTART =      0    job   : 0-new  1-cont  2-samecut
   ICHARG =      2    charge: 1-file 2-atom 10-const
   ISPIN  =      1    spin polarized calculation?
   LNONCOLLINEAR =      T non collinear calculations
   LSORBIT =      T    spin-orbit coupling
   INIWAV =      1    electr: 0-lowe 1-rand  2-diag
   LASPH  =      F    aspherical Exc in radial PAW
   METAGGA=      F    non-selfconsistent MetaGGA calc.

 Electronic Relaxation 1
   ENCUT  =  700.0 eV  51.45 Ry    7.17 a.u.  27.13 26.87 27.50*2*pi/ulx,y,z
   ENINI  =  700.0     initial cutoff
   ENAUG  =  644.9 eV  augmentation charge cutoff
   NELM   =     60;   NELMIN=  2; NELMDL= -5     # of ELM steps 
   EDIFF  = 0.1E-07   stopping-criterion for ELM
   LREAL  =      F    real-space projection
   NLSPLINE    = F    spline interpolate recip. space projectors
   LCOMPAT=      F    compatible to vasp.4.4
   GGA_COMPAT  = T    GGA compatible to vasp.4.4-vasp.4.6
   LMAXPAW     = -100 max onsite density
   LMAXMIX     =    2 max onsite mixed and CHGCAR
   VOSKOWN=      0    Vosko Wilk Nusair interpolation
   ROPT   =    0.00000   0.00000   0.00000   0.00000
   ROPT   =    0.00000
 Ionic relaxation
   EDIFFG = 0.1E-06   stopping-criterion for IOM
   NSW    =      0    number of steps for IOM
   NBLOCK =      1;   KBLOCK =      1    inner block; outer block 
   IBRION =     -1    ionic relax: 0-MD 1-quasi-New 2-CG
   NFREE  =      0    steps in history (QN), initial steepest desc. (CG)
   ISIF   =      2    stress and relaxation
   IWAVPR =     10    prediction:  0-non 1-charg 2-wave 3-comb
   ISYM   =      2    0-nonsym 1-usesym 2-fastsym
   LCORR  =      T    Harris-Foulkes like correction to forces

   POTIM  = 0.5000    time-step for ionic-motion
   TEIN   =    0.0    initial temperature
   TEBEG  =    0.0;   TEEND  =   0.0 temperature during run
   SMASS  =  -3.00    Nose mass-parameter (am)
   estimated Nose-frequenzy (Omega)   =  0.10E-29 period in steps =****** mass=  -0.362E-26a.u.
   SCALEE = 1.0000    scale energy and forces
   NPACO  =    256;   APACO  = 16.0  distance and # of slots for P.C.
   PSTRESS=    0.0 pullay stress

  Mass of Ions in am
   POMASS =  12.01 14.00  1.00207.20126.90
  Ionic Valenz
   ZVAL   =   4.00  5.00  1.00 14.00  7.00
  Atomic Wigner-Seitz radii
   RWIGS  =  -1.00 -1.00 -1.00 -1.00 -1.00
  virtual crystal weights 
   VCA    =   1.00  1.00  1.00  1.00  1.00
   NELECT =     400.0000    total number of electrons
   NUPDOWN=      -1.0000    fix difference up-down

 DOS related values:
   EMIN   =  10.00;   EMAX   =-10.00  energy-range for DOS
   EFERMI =   0.00
   ISMEAR =     0;   SIGMA  =   0.00  broadening in eV -4-tet -1-fermi 0-gaus

 Electronic relaxation 2 (details)
   IALGO  =     38    algorithm
   LDIAG  =      T    sub-space diagonalisation (order eigenvalues)
   LSUBROT=      F    optimize rotation matrix (better conditioning)
   TURBO    =      0    0=normal 1=particle mesh
   IRESTART =      0    0=no restart 2=restart with 2 vectors
   NREBOOT  =      0    no. of reboots
   NMIN     =      0    reboot dimension
   EREF     =   0.00    reference energy to select bands
   IMIX   =      4    mixing-type and parameters
     AMIX     =   0.40;   BMIX     =  1.00
     AMIX_MAG =   1.60;   BMIX_MAG =  1.00
     AMIN     =   0.10
     WC   =   100.;   INIMIX=   1;  MIXPRE=   1;  MAXMIX= -45

 Intra band minimization:
   WEIMIN = 0.0000     energy-eigenvalue tresh-hold
   EBREAK =  0.42E-11  absolut break condition
   DEPER  =   0.30     relativ break condition  

   TIME   =   0.40     timestep for ELM

  volume/ion in A,a.u.               =      20.80       140.38
  Fermi-wavevector in a.u.,A,eV,Ry     =   0.957863  1.810099 12.483376  0.917502
  Thomas-Fermi vector in A             =   2.086919
 
 Write flags
   LWAVE  =      F    write WAVECAR
   LCHARG =      F    write CHGCAR
   LVTOT  =      F    write LOCPOT, total local potential
   LVHAR  =      F    write LOCPOT, Hartree potential only
   LELF   =      F    write electronic localiz. function (ELF)
   LORBIT =      0    0 simple, 1 ext, 2 COOP (PROOUT)


 Dipole corrections
   LMONO  =      F    monopole corrections only (constant potential shift)
   LDIPOL =      F    correct potential (dipole corrections)
   IDIPOL =      0    1-x, 2-y, 3-z, 4-all directions 
   EPSILON=  1.0000000 bulk dielectric constant

 Core level calculations are selected ICORELEVEL =  1
 Exchange correlation treatment:
   GGA     =    PS    GGA type
   LEXCH   =    14    internal setting for exchange type
   VOSKOWN=      0    Vosko Wilk Nusair interpolation
   LHFCALC =     F    Hartree Fock is set to
   LHFONE  =     F    Hartree Fock one center treatment
   AEXX    =    0.0000 exact exchange contribution

 Linear response parameters
   LEPSILON=     F    determine dielectric tensor
   LRPA    =     F    only Hartree local field effects (RPA)
   LNABLA  =     F    use nabla operator in PAW spheres
   LVEL    =     F    velocity operator in full k-point grid
   LINTERFAST=   F  fast interpolation
   KINTER  =     0    interpolate to denser k-point grid
   CSHIFT  =0.1000    complex shift for real part using Kramers Kronig
   OMEGAMAX=  -1.0    maximum frequency
   DEG_THRESHOLD= 0.2000000E-02 threshold for treating states as degnerate
   RTIME   =    0.100 relaxation time in fs

 Orbital magnetization related:
   ORBITALMAG=     F  switch on orbital magnetization
   LCHIMAG   =     F  perturbation theory with respect to B field
   DQ        =  0.001000  dq finite difference perturbation B field



--------------------------------------------------------------------------------------------------------


 Static calculation
 charge density and potential will be updated during run
 non collinear spin polarized calculation
 Variant of blocked Davidson
 Davidson routine will perform the subspace rotation
 perform sub-space diagonalisation
    after iterative eigenvector-optimisation
 modified Broyden-mixing scheme, WC =      100.0
 initial mixing is a Kerker type mixing with AMIX =  0.4000 and BMIX =      1.0000
 Hartree-type preconditioning will be used
 using additional bands          400
 reciprocal scheme for non local part
 use partial core corrections
 calculate Harris-corrections to forces 
   (improved forces if not selfconsistent)
 use gradient corrections 
 use of overlap-Matrix (Vanderbilt PP)
 Gauss-broadening in eV      SIGMA  =   0.00


--------------------------------------------------------------------------------------------------------


  energy-cutoff  :      700.00
  volume of cell :     1996.98
      direct lattice vectors                 reciprocal lattice vectors
    12.576837428  0.001915912  0.138198793     0.079520802 -0.000007684 -0.000869670
     0.001195632 12.457538083 -0.000746413    -0.000012224  0.080272684 -0.000000427
     0.139410704  0.000089045 12.747420625    -0.000862111  0.000004784  0.078456671

  length of vectors
    12.577596840 12.457538162 12.748182927     0.079525558  0.080272685  0.078461408


 
 k-points in units of 2pi/SCALE and weight: Automatic 3x3x3                         
   0.00000000  0.00000000  0.00000000       0.037
   0.02650693 -0.00000256 -0.00028989       0.037
  -0.02650693  0.00000256  0.00028989       0.037
  -0.00000407  0.02675756 -0.00000014       0.037
   0.02650286  0.02675500 -0.00029003       0.037
  -0.02651101  0.02676012  0.00028975       0.037
   0.00000407 -0.02675756  0.00000014       0.037
   0.02651101 -0.02676012 -0.00028975       0.037
  -0.02650286 -0.02675500  0.00029003       0.037
  -0.00028737  0.00000159  0.02615222       0.037
   0.02621956 -0.00000097  0.02586233       0.037
  -0.02679430  0.00000416  0.02644211       0.037
  -0.00029144  0.02675916  0.02615208       0.037
   0.02621549  0.02675659  0.02586219       0.037
  -0.02679838  0.02676172  0.02644197       0.037
  -0.00028330 -0.02675597  0.02615237       0.037
   0.02622364 -0.02675853  0.02586248       0.037
  -0.02679023 -0.02675341  0.02644226       0.037
   0.00028737 -0.00000159 -0.02615222       0.037
   0.02679430 -0.00000416 -0.02644211       0.037
  -0.02621956  0.00000097 -0.02586233       0.037
   0.00028330  0.02675597 -0.02615237       0.037
   0.02679023  0.02675341 -0.02644226       0.037
  -0.02622364  0.02675853 -0.02586248       0.037
   0.00029144 -0.02675916 -0.02615208       0.037
   0.02679838 -0.02676172 -0.02644197       0.037
  -0.02621549 -0.02675659 -0.02586219       0.037
 
 k-points in reciprocal lattice and weights: Automatic 3x3x3                         
   0.00000000  0.00000000  0.00000000       0.037
   0.33333333 -0.00000000 -0.00000000       0.037
  -0.33333333  0.00000000  0.00000000       0.037
   0.00000000  0.33333333 -0.00000000       0.037
   0.33333333  0.33333333  0.00000000       0.037
  -0.33333333  0.33333333  0.00000000       0.037
  -0.00000000 -0.33333333  0.00000000       0.037
   0.33333333 -0.33333333 -0.00000000       0.037
  -0.33333333 -0.33333333 -0.00000000       0.037
   0.00000000  0.00000000  0.33333333       0.037
   0.33333333  0.00000000  0.33333333       0.037
  -0.33333333  0.00000000  0.33333333       0.037
   0.00000000  0.33333333  0.33333333       0.037
   0.33333333  0.33333333  0.33333333       0.037
  -0.33333333  0.33333333  0.33333333       0.037
   0.00000000 -0.33333333  0.33333333       0.037
   0.33333333 -0.33333333  0.33333333       0.037
  -0.33333333 -0.33333333  0.33333333       0.037
   0.00000000  0.00000000 -0.33333333       0.037
   0.33333333 -0.00000000 -0.33333333       0.037
  -0.33333333 -0.00000000 -0.33333333       0.037
  -0.00000000  0.33333333 -0.33333333       0.037
   0.33333333  0.33333333 -0.33333333       0.037
  -0.33333333  0.33333333 -0.33333333       0.037
  -0.00000000 -0.33333333 -0.33333333       0.037
   0.33333333 -0.33333333 -0.33333333       0.037
  -0.33333333 -0.33333333 -0.33333333       0.037
 
 position of ions in fractional coordinates (direct lattice) 
   0.19922437  0.24991757  0.22544181
   0.69476389  0.24989898  0.23238890
   0.19476389  0.74989898  0.23238890
   0.69922437  0.74991757  0.22544181
   0.19922437  0.24991757  0.72544181
   0.69476389  0.24989898  0.73238890
   0.19476389  0.74989898  0.73238890
   0.69922437  0.74991757  0.72544181
   0.30515096  0.25001070  0.27408077
   0.80392348  0.24999659  0.27368782
   0.30392348  0.74999659  0.27368782
   0.80515096  0.75001070  0.27408077
   0.30515096  0.25001070  0.77408077
   0.80392348  0.24999659  0.77368782
   0.30392348  0.74999659  0.77368782
   0.80515096  0.75001070  0.77408077
   0.21032292  0.24982080  0.13962611
   0.69982741  0.24982139  0.14615115
   0.19982741  0.74982139  0.14615115
   0.71032292  0.74982080  0.13962611
   0.21032292  0.24982080  0.63962611
   0.69982741  0.24982139  0.64615115
   0.19982741  0.74982139  0.64615115
   0.71032292  0.74982080  0.63962611
   0.15573178  0.32238688  0.25064850
   0.65294383  0.32231749  0.26038214
   0.15294383  0.82231749  0.26038214
   0.65573178  0.82238688  0.25064850
   0.15573178  0.32238688  0.75064850
   0.65294383  0.32231749  0.76038214
   0.15294383  0.82231749  0.76038214
   0.65573178  0.82238688  0.75064850
   0.15582265  0.17747075  0.25080033
   0.65306301  0.17748140  0.26050109
   0.15306301  0.67748140  0.26050109
   0.65582265  0.67747075  0.25080033
   0.15582265  0.17747075  0.75080033
   0.65306301  0.17748140  0.76050109
   0.15306301  0.67748140  0.76050109
   0.65582265  0.67747075  0.75080033
   0.34945449  0.31794866  0.25241474
   0.84681467  0.31779990  0.24909825
   0.34681467  0.81779990  0.24909825
   0.84945449  0.81794866  0.25241474
   0.34945449  0.31794866  0.75241474
   0.84681467  0.31779990  0.74909825
   0.34681467  0.81779990  0.74909825
   0.84945449  0.81794866  0.75241474
   0.34951146  0.18203371  0.25256630
   0.84689914  0.18217607  0.24921550
   0.34689914  0.68217607  0.24921550
   0.84951146  0.68203371  0.25256630
   0.34951146  0.18203371  0.75256630
   0.84689914  0.18217607  0.74921550
   0.34689914  0.68217607  0.74921550
   0.84951146  0.68203371  0.75256630
   0.30066553  0.25011280  0.35570861
   0.80567462  0.25007424  0.35550988
   0.30567462  0.75007424  0.35550988
   0.80066553  0.75011280  0.35570861
   0.30066553  0.25011280  0.85570861
   0.80567462  0.25007424  0.85550988
   0.30567462  0.75007424  0.85550988
   0.80066553  0.75011280  0.85570861
   0.47244373  0.50035347  0.48881096
   0.97243982  0.49962612  0.48881193
   0.47243982  0.99962612  0.48881193
   0.97244373  0.00035347  0.48881096
   0.47244373  0.50035347  0.98881096
   0.97243982  0.49962612  0.98881193
   0.47243982  0.99962612  0.98881193
   0.97244373  0.00035347  0.98881096
   0.45474909  0.50018470  0.23757159
   0.95473825  0.49979740  0.23757389
   0.45473825  0.99979740  0.23757389
   0.95474909  0.00018470  0.23757159
   0.45474909  0.50018470  0.73757159
   0.95473825  0.49979740  0.73757389
   0.45473825  0.99979740  0.73757389
   0.95474909  0.00018470  0.73757159
   0.45664105  0.24997763  0.01051570
   0.94262983  0.24998039  0.01314873
   0.44262983  0.74998039  0.01314873
   0.95664105  0.74997763  0.01051570
   0.45664105  0.24997763  0.51051570
   0.94262983  0.24998039  0.51314873
   0.44262983  0.74998039  0.51314873
   0.95664105  0.74997763  0.51051570
   0.21617313  0.49163577  0.46123970
   0.71616975  0.50835910  0.46123970
   0.21616975  0.00835910  0.46123970
   0.71617313  0.99163577  0.46123970
   0.21617313  0.49163577  0.96123970
   0.71616975  0.50835910  0.96123970
   0.21616975  0.00835910  0.96123970
   0.71617313  0.99163577  0.96123970
 
 position of ions in cartesian coordinates  (Angst):
   2.53734038  3.11375948  2.90114756
   8.77062879  3.11447780  3.05818809
   2.48280789  9.34228889  2.98871549
   8.82635691  9.34348647  2.96987375
   2.60704573  3.11380400  9.27485787
   8.84033414  3.11452232  9.43189840
   2.55251324  9.34233341  9.36242580
   8.89606226  9.34353100  9.34358406
   3.87634274  3.11512681  3.53580777
  10.14926879  3.11590660  3.59972843
   3.86144789  9.34371768  3.53025583
  10.16535927  9.34485381  3.60453396
   3.94604809  3.11517134  9.90951808
  10.21897414  3.11595112  9.97343874
   3.93115324  9.34376221  9.90396614
  10.23506462  9.34489833  9.97824427
   2.66496125  3.11256753  1.80875261
   8.82228934  3.11351333  1.95957897
   2.53446844  9.34132441  1.89010636
   8.95397778  9.34229453  1.87747880
   2.73466660  3.11261205  8.18246292
   8.89199469  3.11355785  8.33328928
   2.60417380  9.34136893  8.26381668
   9.02368313  9.34233905  8.25118911
   1.99394187  4.01646754  3.21640312
   8.24865382  4.01655660  3.40919616
   1.96083293 10.24436768  3.33972356
   8.28295840 10.24619454  3.28512931
   2.06364722  4.01651206  9.59011343
   8.31835918  4.01660112  9.78290647
   2.03053828 10.24441221  9.71343387
   8.35266375 10.24623906  9.65883962
   1.99493261  2.21116946  3.21845931
   8.24999621  2.21225571  3.41083696
   1.96217531  8.44006679  3.34136436
   8.28394914  8.44089646  3.28718550
   2.06463796  2.21121398  9.59216962
   8.31970156  2.21230023  9.78454727
   2.03188066  8.44011132  9.71507467
   8.35365449  8.44094098  9.66089581
   4.43060176  3.96154957  3.26569368
  10.68535732  3.96064900  3.29215167
   4.39753642 10.18846009  3.22267907
  10.71961829 10.19127657  3.33441987
   4.50030711  3.96159410  9.63940400
  10.75506267  3.96069352  9.66586198
   4.46724177 10.18850461  9.59638938
  10.78932364 10.19132109  9.70813019
   4.43117691  2.26838395  3.26773501
  10.68627392  2.27111009  3.29375931
   4.39845303  8.49892118  3.22428670
  10.72019344  8.49811094  3.33646120
   4.50088226  2.26842847  9.64144532
  10.75597928  2.27115462  9.66746962
   4.46815838  8.49896570  9.59799702
  10.78989879  8.49815546  9.71017151
   3.83131010  3.11639747  4.57573217
  10.18269956  3.11688465  4.64299060
   3.89487867  9.34469574  4.57351800
  10.12032663  9.34612446  4.64445836
   3.90101545  3.11644199 10.94944248
  10.25240492  3.11692918 11.01670091
   3.96458402  9.34474026 10.94722831
  10.19003198  9.34616899 11.01816867
   6.01059172  6.23412113  6.29599662
  12.29896052  6.22601801  6.36510838
   6.01113962 12.45382909  6.29563578
  12.29841262  0.00631005  6.36546923
   6.08029707  6.23416566 12.66970694
  12.36866587  6.22606253 12.73881870
   6.08084497 12.45387362 12.66934609
  12.36811797  0.00635457 12.73917954
   5.75302348  6.23196230  3.09089741
  12.04130574  6.22809554  3.16002498
   5.75348484 12.45590663  3.09055238
  12.04084438  0.00415122  3.16037001
   5.82272883  6.23200682  9.46460772
  12.11101109  6.22814006  9.53373529
   5.82319019 12.45595115  9.46426269
  12.11054973  0.00419574  9.53408033
   5.74486511  3.11498162  0.19696873
  11.85743410  3.11594745  0.29769616
   5.56961320  9.34375854  0.22822355
  12.03388164  9.34470862  0.26569492
   5.81457046  3.11502615  6.57067904
  11.92713945  3.11599197  6.67140647
   5.63931855  9.34380306  6.60193387
  12.10358699  9.34475314  6.63940523
   2.78366387  6.12502662  5.90912437
   9.07206005  6.33431601  5.97821085
   2.78304352  0.10458902  5.90948466
   9.07268040 12.35475362  5.97785056
   2.85336923  6.12507115 12.28283469
   9.14176540  6.33436054 12.35192117
   2.85274887  0.10463354 12.28319498
   9.14238576 12.35479814 12.35156088
 
 Euler angles ALPHA=     0.0000000  BETA=     0.0000000

 transformation matrix from SAXIS to cartesian coordinates
 ---------------------------------------------------------
     1.0000000 m_x     0.0000000 m_y     0.0000000 m_z
     0.0000000 m_x     1.0000000 m_y     0.0000000 m_z
     0.0000000 m_x     0.0000000 m_y     1.0000000 m_z

 transformation matrix from cartesian coordinates to SAXIS
 ---------------------------------------------------------
     1.0000000 m_x     0.0000000 m_y     0.0000000 m_z
     0.0000000 m_x     1.0000000 m_y     0.0000000 m_z
     0.0000000 m_x     0.0000000 m_y     1.0000000 m_z




--------------------------------------------------------------------------------------------------------


 k-point  1 :   0.0000 0.0000 0.0000  plane waves:  168014
 k-point  2 :   0.3333-0.0000-0.0000  plane waves:  168006
 k-point  3 :  -0.3333 0.0000 0.0000  plane waves:  168006
 k-point  4 :   0.0000 0.3333-0.0000  plane waves:  167990
 k-point  5 :   0.3333 0.3333 0.0000  plane waves:  168036
 k-point  6 :  -0.3333 0.3333 0.0000  plane waves:  168038
 k-point  7 :  -0.0000-0.3333 0.0000  plane waves:  167990
 k-point  8 :   0.3333-0.3333-0.0000  plane waves:  168038
 k-point  9 :  -0.3333-0.3333-0.0000  plane waves:  168036
 k-point 10 :   0.0000 0.0000 0.3333  plane waves:  167920
 k-point 11 :   0.3333 0.0000 0.3333  plane waves:  167874
 k-point 12 :  -0.3333 0.0000 0.3333  plane waves:  167964
 k-point 13 :   0.0000 0.3333 0.3333  plane waves:  167968
 k-point 14 :   0.3333 0.3333 0.3333  plane waves:  168024
 k-point 15 :  -0.3333 0.3333 0.3333  plane waves:  167940
 k-point 16 :   0.0000-0.3333 0.3333  plane waves:  167954
 k-point 17 :   0.3333-0.3333 0.3333  plane waves:  168026
 k-point 18 :  -0.3333-0.3333 0.3333  plane waves:  167946
 k-point 19 :   0.0000 0.0000-0.3333  plane waves:  167920
 k-point 20 :   0.3333-0.0000-0.3333  plane waves:  167964
 k-point 21 :  -0.3333-0.0000-0.3333  plane waves:  167874
 k-point 22 :  -0.0000 0.3333-0.3333  plane waves:  167954
 k-point 23 :   0.3333 0.3333-0.3333  plane waves:  167946
 k-point 24 :  -0.3333 0.3333-0.3333  plane waves:  168026
 k-point 25 :  -0.0000-0.3333-0.3333  plane waves:  167968
 k-point 26 :   0.3333-0.3333-0.3333  plane waves:  167940
 k-point 27 :  -0.3333-0.3333-0.3333  plane waves:  168024

 maximum and minimum number of plane-waves per node :      7122     6820

 maximum number of plane-waves:    168038
 maximum index in each direction: 
   IXMAX=   27   IYMAX=   27   IZMAX=   27
   IXMIN=  -27   IYMIN=  -27   IZMIN=  -27

 NGX is ok and might be reduce to 110
 WARNING: aliasing errors must be expected set NGY to 110 to avoid them
 NGZ is ok and might be reduce to 110
 aliasing errors are usually negligible using standard VASP settings
 and one can safely disregard these warnings

 parallel 3D FFT for wavefunctions:
    minimum data exchange during FFTs selected (reduces bandwidth)
 parallel 3D FFT for charge:
    minimum data exchange during FFTs selected (reduces bandwidth)


 total amount of memory used by VASP on root node   392927. kBytes
========================================================================

   base      :      30000. kBytes
   nonl-proj :      73667. kBytes
   fftplans  :      22714. kBytes
   grid      :      35610. kBytes
   one-center:        248. kBytes
   wavefun   :     230688. kBytes
 
     INWAV:  cpu time    0.0000: real time    0.0000
 Broyden mixing: mesh for mixing (old mesh)
   NGX = 55   NGY = 53   NGZ = 55
  (NGX  =224   NGY  =216   NGZ  =224)
  gives a total of 160325 points

 initial charge density was supplied:
 charge density of overlapping atoms calculated
 number of electron     400.0000000 magnetization      96.0000000     96.0000000     96.0000000
 keeping initial charge density in first step


--------------------------------------------------------------------------------------------------------


 Maximum index for augmentation-charges         5272 (set IRDMAX)


--------------------------------------------------------------------------------------------------------


 First call to EWALD:  gamma=   0.141
 Maximum number of real-space cells 3x 3x 3
 Maximum number of reciprocal cells 3x 3x 3

 FEWALD executed in parallel
    FEWALD:  cpu time    0.0040: real time    0.0040


----------------------------------------- Iteration    1(   1)  ---------------------------------------


    POTLOK:  cpu time    0.5600: real time    0.5574
    SETDIJ:  cpu time    2.1361: real time    2.1399
     EDDAV:  cpu time  235.5827: real time  235.7381
       DOS:  cpu time    0.0080: real time    0.0069
    --------------------------------------------
      LOOP:  cpu time  238.2869: real time  238.4909

 eigenvalue-minimisations  : 32544
 total energy-change (2. order) : 0.4233289E+04  (-0.1930793E+05)
 number of electron     400.0000000 magnetization      96.0000000     96.0000000     96.0000000
 augmentation part      400.0000000 magnetization      96.0000000     96.0000000     96.0000000

 Free energy of the ion-electron system (eV)
  ---------------------------------------------------
  alpha Z        PSCENC =       370.05370877
  Ewald energy   TEWEN  =    -15508.85391218
  -Hartree energ DENC   =     -8136.32138145
  -exchange      EXHF   =         0.00000000
  -V(xc)+E(xc)   XCENC  =       674.15623212
  PAW double counting   =     20172.90621935   -19413.33347658
  entropy T*S    EENTRO =        -0.00002787
  eigenvalues    EBANDS =      1325.67511954
  atomic energy  EATOM  =     24749.00668030
  Solvation  Ediel_sol  =         0.00000000
  ---------------------------------------------------
  free energy    TOTEN  =      4233.28916200 eV

  energy without entropy =     4233.28918987  energy(sigma->0) =     4233.28917593


--------------------------------------------------------------------------------------------------------




----------------------------------------- Iteration    1(   2)  ---------------------------------------


     EDDAV:  cpu time  251.7877: real time  251.9561
       DOS:  cpu time    0.0080: real time    0.0070
    --------------------------------------------
      LOOP:  cpu time  251.7997: real time  252.0749

 eigenvalue-minimisations  : 35608
 total energy-change (2. order) :-0.3387651E+04  (-0.3137585E+04)
 number of electron     400.0000000 magnetization      96.0000000     96.0000000     96.0000000
 augmentation part      400.0000000 magnetization      96.0000000     96.0000000     96.0000000

 Free energy of the ion-electron system (eV)
  ---------------------------------------------------
  alpha Z        PSCENC =       370.05370877
  Ewald energy   TEWEN  =    -15508.85391218
  -Hartree energ DENC   =     -8136.32138145
  -exchange      EXHF   =         0.00000000
  -V(xc)+E(xc)   XCENC  =       674.15623212
  PAW double counting   =     20172.90621935   -19413.33347658
  entropy T*S    EENTRO =        -0.00003038
  eigenvalues    EBANDS =     -2061.97592896
  atomic energy  EATOM  =     24749.00668030
  Solvation  Ediel_sol  =         0.00000000
  ---------------------------------------------------
  free energy    TOTEN  =       845.63811099 eV

  energy without entropy =      845.63814136  energy(sigma->0) =      845.63812617


--------------------------------------------------------------------------------------------------------




----------------------------------------- Iteration    1(   3)  ---------------------------------------


     EDDAV:  cpu time  296.5585: real time  296.7526
       DOS:  cpu time    0.0040: real time    0.0066
    --------------------------------------------
      LOOP:  cpu time  296.5665: real time  296.8068

 eigenvalue-minimisations  : 44008
 total energy-change (2. order) :-0.6102453E+03  (-0.5898547E+03)
 number of electron     400.0000000 magnetization      96.0000000     96.0000000     96.0000000
 augmentation part      400.0000000 magnetization      96.0000000     96.0000000     96.0000000

 Free energy of the ion-electron system (eV)
  ---------------------------------------------------
  alpha Z        PSCENC =       370.05370877
  Ewald energy   TEWEN  =    -15508.85391218
  -Hartree energ DENC   =     -8136.32138145
  -exchange      EXHF   =         0.00000000
  -V(xc)+E(xc)   XCENC  =       674.15623212
  PAW double counting   =     20172.90621935   -19413.33347658
  entropy T*S    EENTRO =        -0.00004222
  eigenvalues    EBANDS =     -2672.22120546
  atomic energy  EATOM  =     24749.00668030
  Solvation  Ediel_sol  =         0.00000000
  ---------------------------------------------------
  free energy    TOTEN  =       235.39282265 eV

  energy without entropy =      235.39286487  energy(sigma->0) =      235.39284376


--------------------------------------------------------------------------------------------------------




----------------------------------------- Iteration    1(   4)  ---------------------------------------


     EDDAV:  cpu time  297.0866: real time  297.2827
       DOS:  cpu time    0.0080: real time    0.0073
    --------------------------------------------
      LOOP:  cpu time  297.0986: real time  297.3012

 eigenvalue-minimisations  : 44072
 total energy-change (2. order) :-0.4582142E+02  (-0.4477175E+02)
 number of electron     400.0000000 magnetization      96.0000000     96.0000000     96.0000000
 augmentation part      400.0000000 magnetization      96.0000000     96.0000000     96.0000000

 Free energy of the ion-electron system (eV)
  ---------------------------------------------------
  alpha Z        PSCENC =       370.05370877
  Ewald energy   TEWEN  =    -15508.85391218
  -Hartree energ DENC   =     -8136.32138145
  -exchange      EXHF   =         0.00000000
  -V(xc)+E(xc)   XCENC  =       674.15623212
  PAW double counting   =     20172.90621935   -19413.33347658
  entropy T*S    EENTRO =        -0.00023816
  eigenvalues    EBANDS =     -2718.04242984
  atomic energy  EATOM  =     24749.00668030
  Solvation  Ediel_sol  =         0.00000000
  ---------------------------------------------------
  free energy    TOTEN  =       189.57140232 eV

  energy without entropy =      189.57164048  energy(sigma->0) =      189.57152140


--------------------------------------------------------------------------------------------------------




----------------------------------------- Iteration    1(   5)  ---------------------------------------


     EDDAV:  cpu time  329.3246: real time  329.5366
       DOS:  cpu time    0.0080: real time    0.0080
    CHARGE:  cpu time   11.7207: real time   11.7294
    MIXING:  cpu time    0.0160: real time    0.0162
    --------------------------------------------
      LOOP:  cpu time  341.0693: real time  341.4183

 eigenvalue-minimisations  : 50088
 total energy-change (2. order) :-0.2303804E+01  (-0.2292434E+01)
 number of electron     400.0000000 magnetization      67.0886456     67.0858450     67.0867796
 augmentation part        7.0110920 magnetization      63.4789013     63.4860089     63.4828243

 Broyden mixing:
  rms(total) = 0.98000E+01    rms(broyden)= 0.97998E+01
  rms(prec ) = 0.10292E+02
  weight for this iteration     100.00

 Free energy of the ion-electron system (eV)
  ---------------------------------------------------
  alpha Z        PSCENC =       370.05370877
  Ewald energy   TEWEN  =    -15508.85391218
  -Hartree energ DENC   =     -8136.32138145
  -exchange      EXHF   =         0.00000000
  -V(xc)+E(xc)   XCENC  =       674.15623212
  PAW double counting   =     20172.90621935   -19413.33347658
  entropy T*S    EENTRO =        -0.00040234
  eigenvalues    EBANDS =     -2720.34606992
  atomic energy  EATOM  =     24749.00668030
  Solvation  Ediel_sol  =         0.00000000
  ---------------------------------------------------
  free energy    TOTEN  =       187.26759807 eV

  energy without entropy =      187.26800041  energy(sigma->0) =      187.26779924


--------------------------------------------------------------------------------------------------------




----------------------------------------- Iteration    1(   6)  ---------------------------------------


    POTLOK:  cpu time    0.5560: real time    0.5602
    SETDIJ:  cpu time    2.1561: real time    2.1574
     EDDAV:  cpu time  259.2162: real time  259.3882
       DOS:  cpu time    0.0040: real time    0.0042
    CHARGE:  cpu time   11.8287: real time   11.8374
    MIXING:  cpu time    0.0160: real time    0.0150
    --------------------------------------------
      LOOP:  cpu time  273.7811: real time  274.0362

 eigenvalue-minimisations  : 36952
 total energy-change (2. order) :-0.1321852E+03  (-0.1531779E+03)
 number of electron     400.0000000 magnetization      50.1155345     50.1114010     50.1146767
 augmentation part        5.9454992 magnetization      50.8950712     50.9002928     50.8930106

 Broyden mixing:
  rms(total) = 0.47994E+01    rms(broyden)= 0.47993E+01
  rms(prec ) = 0.49784E+01
  weight for this iteration     100.00

 eigenvalues of (default mixing * dielectric matrix)
  average eigenvalue GAMMA=   0.7647
  0.7647

 Free energy of the ion-electron system (eV)
  ---------------------------------------------------
  alpha Z        PSCENC =       370.05370877
  Ewald energy   TEWEN  =    -15508.85391218
  -Hartree energ DENC   =     -8495.91553435
  -exchange      EXHF   =         0.00000000
  -V(xc)+E(xc)   XCENC  =       691.62749674
  PAW double counting   =     24213.23134155   -23476.36185835
  entropy T*S    EENTRO =        -0.00000000
  eigenvalues    EBANDS =     -2487.70557077
  atomic energy  EATOM  =     24749.00668030
  Solvation  Ediel_sol  =         0.00000000
  ---------------------------------------------------
  free energy    TOTEN  =        55.08235171 eV

  energy without entropy =       55.08235171  energy(sigma->0) =       55.08235171


--------------------------------------------------------------------------------------------------------




----------------------------------------- Iteration    1(   7)  ---------------------------------------


    POTLOK:  cpu time    0.5640: real time    0.5636
    SETDIJ:  cpu time    2.1081: real time    2.1125
     EDDAV:  cpu time  272.0210: real time  272.1992
       DOS:  cpu time    0.0080: real time    0.0068
    CHARGE:  cpu time   11.8407: real time   11.8498
    MIXING:  cpu time    0.0160: real time    0.0153
    --------------------------------------------
      LOOP:  cpu time  286.5619: real time  288.8326

 eigenvalue-minimisations  : 39320
 total energy-change (2. order) :-0.1503069E+03  (-0.1600411E+02)
 number of electron     400.0000000 magnetization      33.9205918     33.9142674     33.9244659
 augmentation part        5.6227808 magnetization      34.9444307     34.9498860     34.9310547

 Broyden mixing:
  rms(total) = 0.28108E+01    rms(broyden)= 0.28108E+01
  rms(prec ) = 0.29600E+01
  weight for this iteration     100.00

 eigenvalues of (default mixing * dielectric matrix)
  average eigenvalue GAMMA=   0.8475
  0.8475  0.8475

 Free energy of the ion-electron system (eV)
  ---------------------------------------------------
  alpha Z        PSCENC =       370.05370877
  Ewald energy   TEWEN  =    -15508.85391218
  -Hartree energ DENC   =     -8545.55799662
  -exchange      EXHF   =         0.00000000
  -V(xc)+E(xc)   XCENC  =       592.13090490
  PAW double counting   =     26693.73534453   -25957.03267482
  entropy T*S    EENTRO =        -0.00001970
  eigenvalues    EBANDS =     -2488.70658103
  atomic energy  EATOM  =     24749.00668030
  Solvation  Ediel_sol  =         0.00000000
  ---------------------------------------------------
  free energy    TOTEN  =       -95.22454585 eV

  energy without entropy =      -95.22452615  energy(sigma->0) =      -95.22453600


--------------------------------------------------------------------------------------------------------




----------------------------------------- Iteration    1(   8)  ---------------------------------------


    POTLOK:  cpu time    0.5680: real time    0.5685
    SETDIJ:  cpu time    2.1201: real time    2.1244
     EDDAV:  cpu time  260.7163: real time  260.8849
       DOS:  cpu time    0.0040: real time    0.0040
    CHARGE:  cpu time   11.8647: real time   11.8742
    MIXING:  cpu time    0.0160: real time    0.0163
    --------------------------------------------
      LOOP:  cpu time  275.2932: real time  275.4982

 eigenvalue-minimisations  : 37208
 total energy-change (2. order) :-0.1094350E+03  (-0.6445080E+01)
 number of electron     400.0000000 magnetization      15.4052837     15.3939973     15.4089127
 augmentation part        6.6943145 magnetization      16.5640019     16.5714371     16.5676605

 Broyden mixing:
  rms(total) = 0.18118E+01    rms(broyden)= 0.18118E+01
  rms(prec ) = 0.18646E+01
  weight for this iteration     100.00

 eigenvalues of (default mixing * dielectric matrix)
  average eigenvalue GAMMA=   1.0191
  1.4571  0.9671  0.6331

 Free energy of the ion-electron system (eV)
  ---------------------------------------------------
  alpha Z        PSCENC =       370.05370877
  Ewald energy   TEWEN  =    -15508.85391218
  -Hartree energ DENC   =     -8579.72559064
  -exchange      EXHF   =         0.00000000
  -V(xc)+E(xc)   XCENC  =       528.26861945
  PAW double counting   =     28738.23820253   -28003.67235410
  entropy T*S    EENTRO =        -0.00000000
  eigenvalues    EBANDS =     -2497.97487847
  atomic energy  EATOM  =     24749.00668030
  Solvation  Ediel_sol  =         0.00000000
  ---------------------------------------------------
  free energy    TOTEN  =      -204.65952435 eV

  energy without entropy =     -204.65952435  energy(sigma->0) =     -204.65952435


--------------------------------------------------------------------------------------------------------




----------------------------------------- Iteration    1(   9)  ---------------------------------------


    POTLOK:  cpu time    0.5640: real time    0.5645
    SETDIJ:  cpu time    2.1681: real time    2.1718
     EDDAV:  cpu time  257.9081: real time  258.0813
       DOS:  cpu time    0.0040: real time    0.0046
    CHARGE:  cpu time   11.8687: real time   11.8743
    MIXING:  cpu time    0.0160: real time    0.0168
    --------------------------------------------
      LOOP:  cpu time  272.5330: real time  272.7511

 eigenvalue-minimisations  : 36712
 total energy-change (2. order) :-0.1318347E+03  (-0.1239992E+02)
 number of electron     400.0000000 magnetization      10.1685958     10.1554456     10.1685406
 augmentation part        7.9552165 magnetization      10.9693014     10.9768386     10.9827530

 Broyden mixing:
  rms(total) = 0.90020E+00    rms(broyden)= 0.90019E+00
  rms(prec ) = 0.95280E+00
  weight for this iteration     100.00

 eigenvalues of (default mixing * dielectric matrix)
  average eigenvalue GAMMA=   1.0847
  1.8422  1.1007  0.6979  0.6979

 Free energy of the ion-electron system (eV)
  ---------------------------------------------------
  alpha Z        PSCENC =       370.05370877
  Ewald energy   TEWEN  =    -15508.85391218
  -Hartree energ DENC   =     -8611.21933182
  -exchange      EXHF   =         0.00000000
  -V(xc)+E(xc)   XCENC  =       462.69449804
  PAW double counting   =     30832.88579802   -30099.44755365
  entropy T*S    EENTRO =         0.00000000
  eigenvalues    EBANDS =     -2531.61414799
  atomic energy  EATOM  =     24749.00668030
  Solvation  Ediel_sol  =         0.00000000
  ---------------------------------------------------
  free energy    TOTEN  =      -336.49426051 eV

  energy without entropy =     -336.49426051  energy(sigma->0) =     -336.49426051


--------------------------------------------------------------------------------------------------------




----------------------------------------- Iteration    1(  10)  ---------------------------------------


    POTLOK:  cpu time    0.5880: real time    0.5868
    SETDIJ:  cpu time    2.2041: real time    2.2061
     EDDAV:  cpu time  261.2723: real time  261.4460
       DOS:  cpu time    0.0040: real time    0.0040
    CHARGE:  cpu time   11.9087: real time   11.9179
    MIXING:  cpu time    0.0200: real time    0.0167
    --------------------------------------------
      LOOP:  cpu time  275.9972: real time  276.2805

 eigenvalue-minimisations  : 37256
 total energy-change (2. order) :-0.4702001E+02  (-0.5001379E+01)
 number of electron     400.0000000 magnetization       6.4870669      6.4769688      6.4850199
 augmentation part        8.2611985 magnetization       7.0026563      7.0005579      7.0059120

 Broyden mixing:
  rms(total) = 0.66726E+00    rms(broyden)= 0.66725E+00
  rms(prec ) = 0.74541E+00
  weight for this iteration     100.00

 eigenvalues of (default mixing * dielectric matrix)
  average eigenvalue GAMMA=   1.1335
  1.6964  1.6964  0.8305  0.8305  0.6135

 Free energy of the ion-electron system (eV)
  ---------------------------------------------------
  alpha Z        PSCENC =       370.05370877
  Ewald energy   TEWEN  =    -15508.85391218
  -Hartree energ DENC   =     -8596.90016165
  -exchange      EXHF   =         0.00000000
  -V(xc)+E(xc)   XCENC  =       442.85352978
  PAW double counting   =     31154.13225688   -30419.12044037
  entropy T*S    EENTRO =         0.00000000
  eigenvalues    EBANDS =     -2574.68593418
  atomic energy  EATOM  =     24749.00668030
  Solvation  Ediel_sol  =         0.00000000
  ---------------------------------------------------
  free energy    TOTEN  =      -383.51427264 eV

  energy without entropy =     -383.51427264  energy(sigma->0) =     -383.51427264


--------------------------------------------------------------------------------------------------------




----------------------------------------- Iteration    1(  11)  ---------------------------------------


    POTLOK:  cpu time    0.5680: real time    0.5673
    SETDIJ:  cpu time    2.1601: real time    2.1616
     EDDAV:  cpu time  266.0886: real time  266.2668
       DOS:  cpu time    0.0040: real time    0.0040
    CHARGE:  cpu time   11.8647: real time   11.8719
    MIXING:  cpu time    0.0160: real time    0.0167
    --------------------------------------------
      LOOP:  cpu time  280.7015: real time  280.9544

 eigenvalue-minimisations  : 38200
 total energy-change (2. order) :-0.2578930E+02  (-0.3395825E+01)
 number of electron     400.0000000 magnetization       3.1123102      3.1059498      3.1101979
 augmentation part        8.1034760 magnetization       3.3431638      3.3390624      3.3418009

 Broyden mixing:
  rms(total) = 0.38648E+00    rms(broyden)= 0.38648E+00
  rms(prec ) = 0.43872E+00
  weight for this iteration     100.00

 eigenvalues of (default mixing * dielectric matrix)
  average eigenvalue GAMMA=   1.2064
  2.0511  2.0511  0.9501  0.9501  0.6608  0.5752

 Free energy of the ion-electron system (eV)
  ---------------------------------------------------
  alpha Z        PSCENC =       370.05370877
  Ewald energy   TEWEN  =    -15508.85391218
  -Hartree energ DENC   =     -8544.71552963
  -exchange      EXHF   =         0.00000000
  -V(xc)+E(xc)   XCENC  =       429.33703513
  PAW double counting   =     31070.02554230   -30331.68548362
  entropy T*S    EENTRO =         0.00000000
  eigenvalues    EBANDS =     -2642.47161515
  atomic energy  EATOM  =     24749.00668030
  Solvation  Ediel_sol  =         0.00000000
  ---------------------------------------------------
  free energy    TOTEN  =      -409.30357408 eV

  energy without entropy =     -409.30357408  energy(sigma->0) =     -409.30357408


--------------------------------------------------------------------------------------------------------




----------------------------------------- Iteration    1(  12)  ---------------------------------------


    POTLOK:  cpu time    0.5600: real time    0.5633
    SETDIJ:  cpu time    2.1241: real time    2.1243
     EDDAV:  cpu time  276.0653: real time  276.2456
       DOS:  cpu time    0.0040: real time    0.0036
    CHARGE:  cpu time   11.8647: real time   11.8744
    MIXING:  cpu time    0.0200: real time    0.0172
    --------------------------------------------
      LOOP:  cpu time  290.6422: real time  290.8564

 eigenvalue-minimisations  : 40000
 total energy-change (2. order) :-0.1187287E+02  (-0.1839820E+01)
 number of electron     400.0000000 magnetization       2.5368729      2.5317494      2.5354072
 augmentation part        7.9061684 magnetization       2.5994257      2.5938117      2.5966831

 Broyden mixing:
  rms(total) = 0.25544E+00    rms(broyden)= 0.25544E+00
  rms(prec ) = 0.29382E+00
  weight for this iteration     100.00

 eigenvalues of (default mixing * dielectric matrix)
  average eigenvalue GAMMA=   1.1551
  2.0768  2.0768  0.9890  0.9890  0.6771  0.6771  0.5998

 Free energy of the ion-electron system (eV)
  ---------------------------------------------------
  alpha Z        PSCENC =       370.05370877
  Ewald energy   TEWEN  =    -15508.85391218
  -Hartree energ DENC   =     -8496.33883971
  -exchange      EXHF   =         0.00000000
  -V(xc)+E(xc)   XCENC  =       422.64435901
  PAW double counting   =     30928.24369504   -30187.08554498
  entropy T*S    EENTRO =         0.00000000
  eigenvalues    EBANDS =     -2698.84659322
  atomic energy  EATOM  =     24749.00668030
  Solvation  Ediel_sol  =         0.00000000
  ---------------------------------------------------
  free energy    TOTEN  =      -421.17644697 eV

  energy without entropy =     -421.17644697  energy(sigma->0) =     -421.17644697


--------------------------------------------------------------------------------------------------------




----------------------------------------- Iteration    1(  13)  ---------------------------------------


    POTLOK:  cpu time    0.6080: real time    0.6086
    SETDIJ:  cpu time    2.1521: real time    2.1526
     EDDAV:  cpu time  278.1254: real time  278.3125
       DOS:  cpu time    0.0040: real time    0.0038
    CHARGE:  cpu time   11.8807: real time   11.8850
    MIXING:  cpu time    0.0160: real time    0.0174
    --------------------------------------------
      LOOP:  cpu time  292.7863: real time  293.0640

 eigenvalue-minimisations  : 40472
 total energy-change (2. order) :-0.1574415E+01  (-0.2394797E+00)
 number of electron     400.0000000 magnetization       1.7491338      1.7461540      1.7483957
 augmentation part        7.9094561 magnetization       1.7997957      1.7977687      1.7994418

 Broyden mixing:
  rms(total) = 0.20862E+00    rms(broyden)= 0.20862E+00
  rms(prec ) = 0.24489E+00
  weight for this iteration     100.00

 eigenvalues of (default mixing * dielectric matrix)
  average eigenvalue GAMMA=   1.1754
  2.1968  2.1968  1.0350  1.0350  0.8734  0.8734  0.6222  0.5704

 Free energy of the ion-electron system (eV)
  ---------------------------------------------------
  alpha Z        PSCENC =       370.05370877
  Ewald energy   TEWEN  =    -15508.85391218
  -Hartree energ DENC   =     -8485.42629008
[...]
     0.0000000     0.0000000     0.0000000     0.0000000     0.0000000     0.0000000     0.0000000
     0.0000000     0.0000000     0.0000000     0.0000000     0.0000000     0.0000000     0.0000000
     0.0000000     0.0000000     0.0000000     0.0000000     0.0000000     0.0000000     0.0000000
     0.0000000     0.0000000     0.0000000     0.0000000     0.0000000     0.0000000     0.0000000

 Ion:   82  E_soc:     -0.2791156
 l=   1
     0.0000000    -0.0481624    -0.0484127
    -0.0481624     0.0000000    -0.0430042
    -0.0484127    -0.0430042     0.0000000
 l=   2
     0.0000000    -0.0000100     0.0000000    -0.0000032     0.0000238
    -0.0000100     0.0000000     0.0000051    -0.0000025     0.0000130
     0.0000000     0.0000051     0.0000000    -0.0000033     0.0000000
    -0.0000032    -0.0000025    -0.0000033     0.0000000    -0.0000012
     0.0000238     0.0000130     0.0000000    -0.0000012     0.0000000
 l=   3
     0.0000000     0.0000000     0.0000000     0.0000000     0.0000000     0.0000000     0.0000000
     0.0000000     0.0000000     0.0000000     0.0000000     0.0000000     0.0000000     0.0000000
     0.0000000     0.0000000     0.0000000     0.0000000     0.0000000     0.0000000     0.0000000
     0.0000000     0.0000000     0.0000000     0.0000000     0.0000000     0.0000000     0.0000000
     0.0000000     0.0000000     0.0000000     0.0000000     0.0000000     0.0000000     0.0000000
     0.0000000     0.0000000     0.0000000     0.0000000     0.0000000     0.0000000     0.0000000
     0.0000000     0.0000000     0.0000000     0.0000000     0.0000000     0.0000000     0.0000000

 Ion:   83  E_soc:     -0.2791156
 l=   1
     0.0000000    -0.0481624    -0.0484127
    -0.0481624     0.0000000    -0.0430042
    -0.0484127    -0.0430042     0.0000000
 l=   2
     0.0000000    -0.0000100     0.0000000    -0.0000032     0.0000238
    -0.0000100     0.0000000     0.0000051    -0.0000025     0.0000130
     0.0000000     0.0000051     0.0000000    -0.0000033     0.0000000
    -0.0000032    -0.0000025    -0.0000033     0.0000000    -0.0000012
     0.0000238     0.0000130     0.0000000    -0.0000012     0.0000000
 l=   3
     0.0000000     0.0000000     0.0000000     0.0000000     0.0000000     0.0000000     0.0000000
     0.0000000     0.0000000     0.0000000     0.0000000     0.0000000     0.0000000     0.0000000
     0.0000000     0.0000000     0.0000000     0.0000000     0.0000000     0.0000000     0.0000000
     0.0000000     0.0000000     0.0000000     0.0000000     0.0000000     0.0000000     0.0000000
     0.0000000     0.0000000     0.0000000     0.0000000     0.0000000     0.0000000     0.0000000
     0.0000000     0.0000000     0.0000000     0.0000000     0.0000000     0.0000000     0.0000000
     0.0000000     0.0000000     0.0000000     0.0000000     0.0000000     0.0000000     0.0000000

 Ion:   84  E_soc:     -0.2803056
 l=   1
     0.0000000    -0.0485779    -0.0486373
    -0.0485779     0.0000000    -0.0429617
    -0.0486373    -0.0429617     0.0000000
 l=   2
     0.0000000    -0.0000107     0.0000000    -0.0000032     0.0000248
    -0.0000107     0.0000000     0.0000057    -0.0000024     0.0000141
     0.0000000     0.0000057     0.0000000    -0.0000032     0.0000000
    -0.0000032    -0.0000024    -0.0000032     0.0000000    -0.0000010
     0.0000248     0.0000141     0.0000000    -0.0000010     0.0000000
 l=   3
     0.0000000     0.0000000     0.0000000     0.0000000     0.0000000     0.0000000     0.0000000
     0.0000000     0.0000000     0.0000000     0.0000000     0.0000000     0.0000000     0.0000000
     0.0000000     0.0000000     0.0000000     0.0000000     0.0000000     0.0000000     0.0000000
     0.0000000     0.0000000     0.0000000     0.0000000     0.0000000     0.0000000     0.0000000
     0.0000000     0.0000000     0.0000000     0.0000000     0.0000000     0.0000000     0.0000000
     0.0000000     0.0000000     0.0000000     0.0000000     0.0000000     0.0000000     0.0000000
     0.0000000     0.0000000     0.0000000     0.0000000     0.0000000     0.0000000     0.0000000

 Ion:   85  E_soc:     -0.2803056
 l=   1
     0.0000000    -0.0485779    -0.0486373
    -0.0485779     0.0000000    -0.0429617
    -0.0486373    -0.0429617     0.0000000
 l=   2
     0.0000000    -0.0000107     0.0000000    -0.0000032     0.0000248
    -0.0000107     0.0000000     0.0000057    -0.0000024     0.0000141
     0.0000000     0.0000057     0.0000000    -0.0000032     0.0000000
    -0.0000032    -0.0000024    -0.0000032     0.0000000    -0.0000010
     0.0000248     0.0000141     0.0000000    -0.0000010     0.0000000
 l=   3
     0.0000000     0.0000000     0.0000000     0.0000000     0.0000000     0.0000000     0.0000000
     0.0000000     0.0000000     0.0000000     0.0000000     0.0000000     0.0000000     0.0000000
     0.0000000     0.0000000     0.0000000     0.0000000     0.0000000     0.0000000     0.0000000
     0.0000000     0.0000000     0.0000000     0.0000000     0.0000000     0.0000000     0.0000000
     0.0000000     0.0000000     0.0000000     0.0000000     0.0000000     0.0000000     0.0000000
     0.0000000     0.0000000     0.0000000     0.0000000     0.0000000     0.0000000     0.0000000
     0.0000000     0.0000000     0.0000000     0.0000000     0.0000000     0.0000000     0.0000000

 Ion:   86  E_soc:     -0.2791156
 l=   1
     0.0000000    -0.0481624    -0.0484127
    -0.0481624     0.0000000    -0.0430042
    -0.0484127    -0.0430042     0.0000000
 l=   2
     0.0000000    -0.0000100     0.0000000    -0.0000032     0.0000238
    -0.0000100     0.0000000     0.0000051    -0.0000025     0.0000130
     0.0000000     0.0000051     0.0000000    -0.0000033     0.0000000
    -0.0000032    -0.0000025    -0.0000033     0.0000000    -0.0000012
     0.0000238     0.0000130     0.0000000    -0.0000012     0.0000000
 l=   3
     0.0000000     0.0000000     0.0000000     0.0000000     0.0000000     0.0000000     0.0000000
     0.0000000     0.0000000     0.0000000     0.0000000     0.0000000     0.0000000     0.0000000
     0.0000000     0.0000000     0.0000000     0.0000000     0.0000000     0.0000000     0.0000000
     0.0000000     0.0000000     0.0000000     0.0000000     0.0000000     0.0000000     0.0000000
     0.0000000     0.0000000     0.0000000     0.0000000     0.0000000     0.0000000     0.0000000
     0.0000000     0.0000000     0.0000000     0.0000000     0.0000000     0.0000000     0.0000000
     0.0000000     0.0000000     0.0000000     0.0000000     0.0000000     0.0000000     0.0000000

 Ion:   87  E_soc:     -0.2791156
 l=   1
     0.0000000    -0.0481624    -0.0484127
    -0.0481624     0.0000000    -0.0430042
    -0.0484127    -0.0430042     0.0000000
 l=   2
     0.0000000    -0.0000100     0.0000000    -0.0000032     0.0000238
    -0.0000100     0.0000000     0.0000051    -0.0000025     0.0000130
     0.0000000     0.0000051     0.0000000    -0.0000033     0.0000000
    -0.0000032    -0.0000025    -0.0000033     0.0000000    -0.0000012
     0.0000238     0.0000130     0.0000000    -0.0000012     0.0000000
 l=   3
     0.0000000     0.0000000     0.0000000     0.0000000     0.0000000     0.0000000     0.0000000
     0.0000000     0.0000000     0.0000000     0.0000000     0.0000000     0.0000000     0.0000000
     0.0000000     0.0000000     0.0000000     0.0000000     0.0000000     0.0000000     0.0000000
     0.0000000     0.0000000     0.0000000     0.0000000     0.0000000     0.0000000     0.0000000
     0.0000000     0.0000000     0.0000000     0.0000000     0.0000000     0.0000000     0.0000000
     0.0000000     0.0000000     0.0000000     0.0000000     0.0000000     0.0000000     0.0000000
     0.0000000     0.0000000     0.0000000     0.0000000     0.0000000     0.0000000     0.0000000

 Ion:   88  E_soc:     -0.2803056
 l=   1
     0.0000000    -0.0485779    -0.0486373
    -0.0485779     0.0000000    -0.0429617
    -0.0486373    -0.0429617     0.0000000
 l=   2
     0.0000000    -0.0000107     0.0000000    -0.0000032     0.0000248
    -0.0000107     0.0000000     0.0000057    -0.0000024     0.0000141
     0.0000000     0.0000057     0.0000000    -0.0000032     0.0000000
    -0.0000032    -0.0000024    -0.0000032     0.0000000    -0.0000010
     0.0000248     0.0000141     0.0000000    -0.0000010     0.0000000
 l=   3
     0.0000000     0.0000000     0.0000000     0.0000000     0.0000000     0.0000000     0.0000000
     0.0000000     0.0000000     0.0000000     0.0000000     0.0000000     0.0000000     0.0000000
     0.0000000     0.0000000     0.0000000     0.0000000     0.0000000     0.0000000     0.0000000
     0.0000000     0.0000000     0.0000000     0.0000000     0.0000000     0.0000000     0.0000000
     0.0000000     0.0000000     0.0000000     0.0000000     0.0000000     0.0000000     0.0000000
     0.0000000     0.0000000     0.0000000     0.0000000     0.0000000     0.0000000     0.0000000
     0.0000000     0.0000000     0.0000000     0.0000000     0.0000000     0.0000000     0.0000000

 Ion:   89  E_soc:     -0.2859655
 l=   1
     0.0000000    -0.0429633    -0.0495421
    -0.0429633     0.0000000    -0.0505003
    -0.0495421    -0.0505003     0.0000000
 l=   2
     0.0000000    -0.0000023     0.0000000    -0.0000085     0.0000207
    -0.0000023     0.0000000    -0.0000024    -0.0000025    -0.0000014
     0.0000000    -0.0000024     0.0000000     0.0000055     0.0000000
    -0.0000085    -0.0000025     0.0000055     0.0000000     0.0000137
     0.0000207    -0.0000014     0.0000000     0.0000137     0.0000000
 l=   3
     0.0000000     0.0000000     0.0000000     0.0000000     0.0000000     0.0000000     0.0000000
     0.0000000     0.0000000     0.0000000     0.0000000     0.0000000     0.0000000     0.0000000
     0.0000000     0.0000000     0.0000000     0.0000000     0.0000000     0.0000000     0.0000000
     0.0000000     0.0000000     0.0000000     0.0000000     0.0000000     0.0000000     0.0000000
     0.0000000     0.0000000     0.0000000     0.0000000     0.0000000     0.0000000     0.0000000
     0.0000000     0.0000000     0.0000000     0.0000000     0.0000000     0.0000000     0.0000000
     0.0000000     0.0000000     0.0000000     0.0000000     0.0000000     0.0000000     0.0000000

 Ion:   90  E_soc:     -0.2859691
 l=   1
     0.0000000    -0.0429633    -0.0495432
    -0.0429633     0.0000000    -0.0505009
    -0.0495432    -0.0505009     0.0000000
 l=   2
     0.0000000    -0.0000023     0.0000000    -0.0000085     0.0000207
    -0.0000023     0.0000000    -0.0000024    -0.0000025    -0.0000014
     0.0000000    -0.0000024     0.0000000     0.0000055     0.0000000
    -0.0000085    -0.0000025     0.0000055     0.0000000     0.0000137
     0.0000207    -0.0000014     0.0000000     0.0000137     0.0000000
 l=   3
     0.0000000     0.0000000     0.0000000     0.0000000     0.0000000     0.0000000     0.0000000
     0.0000000     0.0000000     0.0000000     0.0000000     0.0000000     0.0000000     0.0000000
     0.0000000     0.0000000     0.0000000     0.0000000     0.0000000     0.0000000     0.0000000
     0.0000000     0.0000000     0.0000000     0.0000000     0.0000000     0.0000000     0.0000000
     0.0000000     0.0000000     0.0000000     0.0000000     0.0000000     0.0000000     0.0000000
     0.0000000     0.0000000     0.0000000     0.0000000     0.0000000     0.0000000     0.0000000
     0.0000000     0.0000000     0.0000000     0.0000000     0.0000000     0.0000000     0.0000000

 Ion:   91  E_soc:     -0.2859691
 l=   1
     0.0000000    -0.0429633    -0.0495432
    -0.0429633     0.0000000    -0.0505009
    -0.0495432    -0.0505009     0.0000000
 l=   2
     0.0000000    -0.0000023     0.0000000    -0.0000085     0.0000207
    -0.0000023     0.0000000    -0.0000024    -0.0000025    -0.0000014
     0.0000000    -0.0000024     0.0000000     0.0000055     0.0000000
    -0.0000085    -0.0000025     0.0000055     0.0000000     0.0000137
     0.0000207    -0.0000014     0.0000000     0.0000137     0.0000000
 l=   3
     0.0000000     0.0000000     0.0000000     0.0000000     0.0000000     0.0000000     0.0000000
     0.0000000     0.0000000     0.0000000     0.0000000     0.0000000     0.0000000     0.0000000
     0.0000000     0.0000000     0.0000000     0.0000000     0.0000000     0.0000000     0.0000000
     0.0000000     0.0000000     0.0000000     0.0000000     0.0000000     0.0000000     0.0000000
     0.0000000     0.0000000     0.0000000     0.0000000     0.0000000     0.0000000     0.0000000
     0.0000000     0.0000000     0.0000000     0.0000000     0.0000000     0.0000000     0.0000000
     0.0000000     0.0000000     0.0000000     0.0000000     0.0000000     0.0000000     0.0000000

 Ion:   92  E_soc:     -0.2859655
 l=   1
     0.0000000    -0.0429633    -0.0495421
    -0.0429633     0.0000000    -0.0505003
    -0.0495421    -0.0505003     0.0000000
 l=   2
     0.0000000    -0.0000023     0.0000000    -0.0000085     0.0000207
    -0.0000023     0.0000000    -0.0000024    -0.0000025    -0.0000014
     0.0000000    -0.0000024     0.0000000     0.0000055     0.0000000
    -0.0000085    -0.0000025     0.0000055     0.0000000     0.0000137
     0.0000207    -0.0000014     0.0000000     0.0000137     0.0000000
 l=   3
     0.0000000     0.0000000     0.0000000     0.0000000     0.0000000     0.0000000     0.0000000
     0.0000000     0.0000000     0.0000000     0.0000000     0.0000000     0.0000000     0.0000000
     0.0000000     0.0000000     0.0000000     0.0000000     0.0000000     0.0000000     0.0000000
     0.0000000     0.0000000     0.0000000     0.0000000     0.0000000     0.0000000     0.0000000
     0.0000000     0.0000000     0.0000000     0.0000000     0.0000000     0.0000000     0.0000000
     0.0000000     0.0000000     0.0000000     0.0000000     0.0000000     0.0000000     0.0000000
     0.0000000     0.0000000     0.0000000     0.0000000     0.0000000     0.0000000     0.0000000

 Ion:   93  E_soc:     -0.2859655
 l=   1
     0.0000000    -0.0429633    -0.0495421
    -0.0429633     0.0000000    -0.0505003
    -0.0495421    -0.0505003     0.0000000
 l=   2
     0.0000000    -0.0000023     0.0000000    -0.0000085     0.0000207
    -0.0000023     0.0000000    -0.0000024    -0.0000025    -0.0000014
     0.0000000    -0.0000024     0.0000000     0.0000055     0.0000000
    -0.0000085    -0.0000025     0.0000055     0.0000000     0.0000137
     0.0000207    -0.0000014     0.0000000     0.0000137     0.0000000
 l=   3
     0.0000000     0.0000000     0.0000000     0.0000000     0.0000000     0.0000000     0.0000000
     0.0000000     0.0000000     0.0000000     0.0000000     0.0000000     0.0000000     0.0000000
     0.0000000     0.0000000     0.0000000     0.0000000     0.0000000     0.0000000     0.0000000
     0.0000000     0.0000000     0.0000000     0.0000000     0.0000000     0.0000000     0.0000000
     0.0000000     0.0000000     0.0000000     0.0000000     0.0000000     0.0000000     0.0000000
     0.0000000     0.0000000     0.0000000     0.0000000     0.0000000     0.0000000     0.0000000
     0.0000000     0.0000000     0.0000000     0.0000000     0.0000000     0.0000000     0.0000000

 Ion:   94  E_soc:     -0.2859691
 l=   1
     0.0000000    -0.0429633    -0.0495432
    -0.0429633     0.0000000    -0.0505009
    -0.0495432    -0.0505009     0.0000000
 l=   2
     0.0000000    -0.0000023     0.0000000    -0.0000085     0.0000207
    -0.0000023     0.0000000    -0.0000024    -0.0000025    -0.0000014
     0.0000000    -0.0000024     0.0000000     0.0000055     0.0000000
    -0.0000085    -0.0000025     0.0000055     0.0000000     0.0000137
     0.0000207    -0.0000014     0.0000000     0.0000137     0.0000000
 l=   3
     0.0000000     0.0000000     0.0000000     0.0000000     0.0000000     0.0000000     0.0000000
     0.0000000     0.0000000     0.0000000     0.0000000     0.0000000     0.0000000     0.0000000
     0.0000000     0.0000000     0.0000000     0.0000000     0.0000000     0.0000000     0.0000000
     0.0000000     0.0000000     0.0000000     0.0000000     0.0000000     0.0000000     0.0000000
     0.0000000     0.0000000     0.0000000     0.0000000     0.0000000     0.0000000     0.0000000
     0.0000000     0.0000000     0.0000000     0.0000000     0.0000000     0.0000000     0.0000000
     0.0000000     0.0000000     0.0000000     0.0000000     0.0000000     0.0000000     0.0000000

 Ion:   95  E_soc:     -0.2859691
 l=   1
     0.0000000    -0.0429633    -0.0495432
    -0.0429633     0.0000000    -0.0505009
    -0.0495432    -0.0505009     0.0000000
 l=   2
     0.0000000    -0.0000023     0.0000000    -0.0000085     0.0000207
    -0.0000023     0.0000000    -0.0000024    -0.0000025    -0.0000014
     0.0000000    -0.0000024     0.0000000     0.0000055     0.0000000
    -0.0000085    -0.0000025     0.0000055     0.0000000     0.0000137
     0.0000207    -0.0000014     0.0000000     0.0000137     0.0000000
 l=   3
     0.0000000     0.0000000     0.0000000     0.0000000     0.0000000     0.0000000     0.0000000
     0.0000000     0.0000000     0.0000000     0.0000000     0.0000000     0.0000000     0.0000000
     0.0000000     0.0000000     0.0000000     0.0000000     0.0000000     0.0000000     0.0000000
     0.0000000     0.0000000     0.0000000     0.0000000     0.0000000     0.0000000     0.0000000
     0.0000000     0.0000000     0.0000000     0.0000000     0.0000000     0.0000000     0.0000000
     0.0000000     0.0000000     0.0000000     0.0000000     0.0000000     0.0000000     0.0000000
     0.0000000     0.0000000     0.0000000     0.0000000     0.0000000     0.0000000     0.0000000

 Ion:   96  E_soc:     -0.2859655
 l=   1
     0.0000000    -0.0429633    -0.0495421
    -0.0429633     0.0000000    -0.0505003
    -0.0495421    -0.0505003     0.0000000
 l=   2
     0.0000000    -0.0000023     0.0000000    -0.0000085     0.0000207
    -0.0000023     0.0000000    -0.0000024    -0.0000025    -0.0000014
     0.0000000    -0.0000024     0.0000000     0.0000055     0.0000000
    -0.0000085    -0.0000025     0.0000055     0.0000000     0.0000137
     0.0000207    -0.0000014     0.0000000     0.0000137     0.0000000
 l=   3
     0.0000000     0.0000000     0.0000000     0.0000000     0.0000000     0.0000000     0.0000000
     0.0000000     0.0000000     0.0000000     0.0000000     0.0000000     0.0000000     0.0000000
     0.0000000     0.0000000     0.0000000     0.0000000     0.0000000     0.0000000     0.0000000
     0.0000000     0.0000000     0.0000000     0.0000000     0.0000000     0.0000000     0.0000000
     0.0000000     0.0000000     0.0000000     0.0000000     0.0000000     0.0000000     0.0000000
     0.0000000     0.0000000     0.0000000     0.0000000     0.0000000     0.0000000     0.0000000
     0.0000000     0.0000000     0.0000000     0.0000000     0.0000000     0.0000000     0.0000000

 total amount of memory used by VASP on root node   392927. kBytes
========================================================================

   base      :      30000. kBytes
   nonl-proj :      73667. kBytes
   fftplans  :      22714. kBytes
   grid      :      35610. kBytes
   one-center:        248. kBytes
   wavefun   :     230688. kBytes
 
  
  
 General timing and accounting informations for this job:
 ========================================================
  
                  Total CPU time used (sec):     9072.535
                            User time (sec):     9058.466
                          System time (sec):       14.069
                         Elapsed time (sec):     9086.953
  
                   Maximum memory used (kb):      413028.
                   Average memory used (kb):           0.
  
                          Minor page faults:       627341
                          Major page faults:            0
                 Voluntary context switches:        18994
