   8   8   1   0
  0.2002677E+02  0.5435300E-09  0.5435300E-09  0.6646963E-09  0.5000000E-15
  1.000000000000000E-004
  CAR 
 Name                                    
     15.03199782    -67.67845849  301      4.79657885      1.00000000
    -67.678  0.0000E+00  0.0000E+00
    -67.403  0.0000E+00  0.0000E+00
    -67.127  0.0000E+00  0.0000E+00
    -66.851  0.0000E+00  0.0000E+00
    -66.576  0.0000E+00  0.0000E+00
    -66.300  0.0000E+00  0.0000E+00
    -66.024  0.0000E+00  0.0000E+00
    -65.749  0.0000E+00  0.0000E+00
    -65.473  0.0000E+00  0.0000E+00
    -65.197  0.0000E+00  0.0000E+00
    -64.921  0.0000E+00  0.0000E+00
    -64.646  0.0000E+00  0.0000E+00
    -64.370  0.0000E+00  0.0000E+00
    -64.094  0.0000E+00  0.0000E+00
    -63.819  0.3620E+02  0.1198E+02
    -63.543  0.0000E+00  0.1200E+02
    -63.267  0.0000E+00  0.1200E+02
    -62.992  0.0000E+00  0.1200E+02
    -62.716  0.0000E+00  0.1200E+02
    -62.440  0.0000E+00  0.1200E+02
    -62.164  0.0000E+00  0.1200E+02
    -61.889  0.0000E+00  0.1200E+02
    -61.613  0.0000E+00  0.1200E+02
    -61.337  0.0000E+00  0.1200E+02
    -61.062  0.0000E+00  0.1200E+02
    -60.786  0.0000E+00  0.1200E+02
    -60.510  0.0000E+00  0.1200E+02
    -60.235  0.0000E+00  0.1200E+02
    -59.959  0.0000E+00  0.1200E+02
    -59.683  0.0000E+00  0.1200E+02
    -59.407  0.0000E+00  0.1200E+02
    -59.132  0.0000E+00  0.1200E+02
    -58.856  0.0000E+00  0.1200E+02
    -58.580  0.0000E+00  0.1200E+02
    -58.305  0.0000E+00  0.1200E+02
    -58.029  0.0000E+00  0.1200E+02
    -57.753  0.0000E+00  0.1200E+02
    -57.478  0.0000E+00  0.1200E+02
    -57.202  0.0000E+00  0.1200E+02
    -56.926  0.0000E+00  0.1200E+02
    -56.650  0.0000E+00  0.1200E+02
    -56.375  0.0000E+00  0.1200E+02
    -56.099  0.0000E+00  0.1200E+02
    -55.823  0.0000E+00  0.1200E+02
    -55.548  0.0000E+00  0.1200E+02
    -55.272  0.0000E+00  0.1200E+02
    -54.996  0.0000E+00  0.1200E+02
    -54.720  0.0000E+00  0.1200E+02
    -54.445  0.0000E+00  0.1200E+02
    -54.169  0.0000E+00  0.1200E+02
    -53.893  0.0000E+00  0.1200E+02
    -53.618  0.0000E+00  0.1200E+02
    -53.342  0.0000E+00  0.1200E+02
    -53.066  0.0000E+00  0.1200E+02
    -52.791  0.0000E+00  0.1200E+02
    -52.515  0.0000E+00  0.1200E+02
    -52.239  0.0000E+00  0.1200E+02
    -51.963  0.0000E+00  0.1200E+02
    -51.688  0.0000E+00  0.1200E+02
    -51.412  0.0000E+00  0.1200E+02
    -51.136  0.0000E+00  0.1200E+02
    -50.861  0.0000E+00  0.1200E+02
    -50.585  0.0000E+00  0.1200E+02
    -50.309  0.0000E+00  0.1200E+02
    -50.034  0.0000E+00  0.1200E+02
    -49.758  0.0000E+00  0.1200E+02
    -49.482  0.0000E+00  0.1200E+02
    -49.206  0.0000E+00  0.1200E+02
    -48.931  0.0000E+00  0.1200E+02
    -48.655  0.0000E+00  0.1200E+02
    -48.379  0.0000E+00  0.1200E+02
    -48.104  0.0000E+00  0.1200E+02
    -47.828  0.0000E+00  0.1200E+02
    -47.552  0.0000E+00  0.1200E+02
    -47.277  0.0000E+00  0.1200E+02
    -47.001  0.0000E+00  0.1200E+02
    -46.725  0.0000E+00  0.1200E+02
    -46.449  0.0000E+00  0.1200E+02
    -46.174  0.0000E+00  0.1200E+02
    -45.898  0.0000E+00  0.1200E+02
    -45.622  0.0000E+00  0.1200E+02
    -45.347  0.0000E+00  0.1200E+02
    -45.071  0.0000E+00  0.1200E+02
    -44.795  0.0000E+00  0.1200E+02
    -44.520  0.0000E+00  0.1200E+02
    -44.244  0.0000E+00  0.1200E+02
    -43.968  0.0000E+00  0.1200E+02
    -43.692  0.0000E+00  0.1200E+02
    -43.417  0.0000E+00  0.1200E+02
    -43.141  0.0000E+00  0.1200E+02
    -42.865  0.0000E+00  0.1200E+02
    -42.590  0.0000E+00  0.1200E+02
    -42.314  0.0000E+00  0.1200E+02
    -42.038  0.0000E+00  0.1200E+02
    -41.763  0.0000E+00  0.1200E+02
    -41.487  0.0000E+00  0.1200E+02
    -41.211  0.0000E+00  0.1200E+02
    -40.935  0.0000E+00  0.1200E+02
    -40.660  0.0000E+00  0.1200E+02
    -40.384  0.0000E+00  0.1200E+02
    -40.108  0.0000E+00  0.1200E+02
    -39.833  0.0000E+00  0.1200E+02
    -39.557  0.0000E+00  0.1200E+02
    -39.281  0.0000E+00  0.1200E+02
    -39.006  0.0000E+00  0.1200E+02
    -38.730  0.0000E+00  0.1200E+02
    -38.454  0.0000E+00  0.1200E+02
    -38.178  0.0000E+00  0.1200E+02
    -37.903  0.0000E+00  0.1200E+02
    -37.627  0.0000E+00  0.1200E+02
    -37.351  0.0000E+00  0.1200E+02
    -37.076  0.0000E+00  0.1200E+02
    -36.800  0.0000E+00  0.1200E+02
    -36.524  0.0000E+00  0.1200E+02
    -36.248  0.0000E+00  0.1200E+02
    -35.973  0.0000E+00  0.1200E+02
    -35.697  0.0000E+00  0.1200E+02
    -35.421  0.0000E+00  0.1200E+02
    -35.146  0.0000E+00  0.1200E+02
    -34.870  0.0000E+00  0.1200E+02
    -34.594  0.0000E+00  0.1200E+02
    -34.319  0.0000E+00  0.1200E+02
    -34.043  0.0000E+00  0.1200E+02
    -33.767  0.0000E+00  0.1200E+02
    -33.491  0.0000E+00  0.1200E+02
    -33.216  0.0000E+00  0.1200E+02
    -32.940  0.0000E+00  0.1200E+02
    -32.664  0.0000E+00  0.1200E+02
    -32.389  0.0000E+00  0.1200E+02
    -32.113  0.0000E+00  0.1200E+02
    -31.837  0.0000E+00  0.1200E+02
    -31.562  0.0000E+00  0.1200E+02
    -31.286  0.0000E+00  0.1200E+02
    -31.010  0.0000E+00  0.1200E+02
    -30.734  0.0000E+00  0.1200E+02
    -30.459  0.0000E+00  0.1200E+02
    -30.183  0.0000E+00  0.1200E+02
    -29.907  0.0000E+00  0.1200E+02
    -29.632  0.0000E+00  0.1200E+02
    -29.356  0.0000E+00  0.1200E+02
    -29.080  0.0000E+00  0.1200E+02
    -28.805  0.0000E+00  0.1200E+02
    -28.529  0.0000E+00  0.1200E+02
    -28.253  0.0000E+00  0.1200E+02
    -27.977  0.0000E+00  0.1200E+02
    -27.702  0.0000E+00  0.1200E+02
    -27.426  0.0000E+00  0.1200E+02
    -27.150  0.0000E+00  0.1200E+02
    -26.875  0.0000E+00  0.1200E+02
    -26.599  0.0000E+00  0.1200E+02
    -26.323  0.0000E+00  0.1200E+02
    -26.048  0.0000E+00  0.1200E+02
    -25.772  0.0000E+00  0.1200E+02
    -25.496  0.0000E+00  0.1200E+02
    -25.220  0.0000E+00  0.1200E+02
    -24.945  0.0000E+00  0.1200E+02
    -24.669  0.0000E+00  0.1200E+02
    -24.393  0.0000E+00  0.1200E+02
    -24.118  0.0000E+00  0.1200E+02
    -23.842  0.0000E+00  0.1200E+02
    -23.566  0.0000E+00  0.1200E+02
    -23.291  0.0000E+00  0.1200E+02
    -23.015  0.0000E+00  0.1200E+02
    -22.739  0.0000E+00  0.1200E+02
    -22.463  0.0000E+00  0.1200E+02
    -22.188  0.0000E+00  0.1200E+02
    -21.912  0.0000E+00  0.1200E+02
    -21.636  0.0000E+00  0.1200E+02
    -21.361  0.0000E+00  0.1200E+02
    -21.085  0.0000E+00  0.1200E+02
    -20.809  0.0000E+00  0.1200E+02
    -20.533  0.0000E+00  0.1200E+02
    -20.258  0.0000E+00  0.1200E+02
    -19.982  0.0000E+00  0.1200E+02
    -19.706  0.0000E+00  0.1200E+02
    -19.431  0.0000E+00  0.1200E+02
    -19.155  0.0000E+00  0.1200E+02
    -18.879  0.0000E+00  0.1200E+02
    -18.604  0.0000E+00  0.1200E+02
    -18.328  0.0000E+00  0.1200E+02
    -18.052  0.0000E+00  0.1200E+02
    -17.776  0.0000E+00  0.1200E+02
    -17.501  0.0000E+00  0.1200E+02
    -17.225  0.0000E+00  0.2200E+02
    -16.949  0.0000E+00  0.2200E+02
    -16.674  0.0000E+00  0.2200E+02
    -16.398  0.0000E+00  0.2200E+02
    -16.122  0.0000E+00  0.2200E+02
    -15.847  0.0000E+00  0.2200E+02
    -15.571  0.0000E+00  0.2200E+02
    -15.295  0.0000E+00  0.2200E+02
    -15.019  0.0000E+00  0.2200E+02
    -14.744  0.0000E+00  0.2200E+02
    -14.468  0.0000E+00  0.2200E+02
    -14.192  0.0000E+00  0.2200E+02
    -13.917  0.0000E+00  0.2200E+02
    -13.641  0.0000E+00  0.2200E+02
    -13.365  0.0000E+00  0.2200E+02
    -13.090  0.0000E+00  0.2200E+02
    -12.814  0.0000E+00  0.2200E+02
    -12.538  0.0000E+00  0.2200E+02
    -12.262  0.0000E+00  0.2200E+02
    -11.987  0.0000E+00  0.2200E+02
    -11.711  0.0000E+00  0.2200E+02
    -11.435  0.0000E+00  0.2200E+02
    -11.160  0.0000E+00  0.2200E+02
    -10.884  0.0000E+00  0.2200E+02
    -10.608  0.0000E+00  0.2200E+02
    -10.333  0.0000E+00  0.2200E+02
    -10.057  0.0000E+00  0.2200E+02
     -9.781  0.0000E+00  0.2200E+02
     -9.505  0.5073E+00  0.2221E+02
     -9.230  0.8812E+00  0.2281E+02
     -8.954  0.1045E+01  0.2395E+02
     -8.678  0.5104E+00  0.2415E+02
     -8.403  0.3606E+01  0.2648E+02
     -8.127  0.3334E+01  0.2996E+02
     -7.851  0.0000E+00  0.3000E+02
     -7.576  0.0000E+00  0.3000E+02
     -7.300  0.0000E+00  0.3000E+02
     -7.024  0.0000E+00  0.3000E+02
     -6.748  0.0000E+00  0.3000E+02
     -6.473  0.0000E+00  0.3000E+02
     -6.197  0.0000E+00  0.3000E+02
     -5.921  0.0000E+00  0.3000E+02
     -5.646  0.0000E+00  0.3000E+02
     -5.370  0.0000E+00  0.3000E+02
     -5.094  0.0000E+00  0.3000E+02
     -4.819  0.0000E+00  0.3000E+02
     -4.543  0.0000E+00  0.3000E+02
     -4.267  0.0000E+00  0.3000E+02
     -3.991  0.0000E+00  0.3000E+02
     -3.716  0.0000E+00  0.3000E+02
     -3.440  0.1164E-01  0.3000E+02
     -3.164  0.1812E+01  0.3200E+02
     -2.889  0.0000E+00  0.3200E+02
     -2.613  0.0000E+00  0.3200E+02
     -2.337  0.1235E+02  0.4000E+02
     -2.061  0.8374E+00  0.4199E+02
     -1.786  0.0000E+00  0.4200E+02
     -1.510  0.7193E-09  0.4203E+02
     -1.234  0.5069E+00  0.4250E+02
     -0.959  0.2217E+01  0.4418E+02
     -0.683  0.1122E+01  0.4484E+02
     -0.407  0.6500E+00  0.4604E+02
     -0.132  0.2331E+01  0.4741E+02
      0.144  0.2293E+01  0.4863E+02
      0.420  0.1494E+01  0.5012E+02
      0.696  0.2482E+01  0.5238E+02
      0.971  0.5184E+01  0.5518E+02
      1.247  0.6424E+00  0.5798E+02
      1.523  0.4643E+01  0.6104E+02
      1.798  0.2015E+01  0.6397E+02
      2.074  0.0000E+00  0.6400E+02
      2.350  0.0000E+00  0.6400E+02
      2.625  0.7723E+00  0.6425E+02
      2.901  0.6514E+01  0.6975E+02
      3.177  0.2070E+01  0.7285E+02
      3.453  0.3459E+01  0.7619E+02
      3.728  0.3325E+01  0.7868E+02
      4.004  0.2015E+01  0.8071E+02
      4.280  0.1731E+01  0.8263E+02
      4.555  0.1012E+00  0.8379E+02
      4.831  0.0000E+00  0.8400E+02
      5.107  0.0000E+00  0.8401E+02
      5.382  0.0000E+00  0.8401E+02
      5.658  0.1686E-01  0.8405E+02
      5.934  0.3775E+00  0.8473E+02
      6.210  0.1165E+01  0.8545E+02
      6.485  0.4030E+00  0.8600E+02
      6.761  0.1008E+00  0.8604E+02
      7.037  0.7519E-04  0.8615E+02
      7.312  0.1055E+01  0.8696E+02
      7.588  0.8437E+00  0.8805E+02
      7.864  0.1039E+01  0.8944E+02
      8.139  0.1385E+01  0.9108E+02
      8.415  0.7616E+00  0.9200E+02
      8.691  0.1228E+01  0.9313E+02
      8.967  0.9117E+00  0.9399E+02
      9.242  0.1244E+01  0.9483E+02
      9.518  0.9112E+00  0.9627E+02
      9.794  0.1380E+01  0.9759E+02
     10.069  0.1012E+01  0.9913E+02
     10.345  0.2302E+01  0.1008E+03
     10.621  0.2990E+01  0.1027E+03
     10.896  0.6152E+00  0.1038E+03
     11.172  0.0000E+00  0.1040E+03
     11.448  0.0000E+00  0.1040E+03
     11.724  0.0000E+00  0.1040E+03
     11.999  0.0000E+00  0.1040E+03
     12.275  0.0000E+00  0.1040E+03
     12.551  0.0000E+00  0.1040E+03
     12.826  0.0000E+00  0.1040E+03
     13.102  0.0000E+00  0.1040E+03
     13.378  0.0000E+00  0.1040E+03
     13.653  0.0000E+00  0.1040E+03
     13.929  0.0000E+00  0.1040E+03
     14.205  0.0000E+00  0.1040E+03
     14.481  0.0000E+00  0.1040E+03
     14.756  0.0000E+00  0.1040E+03
     15.032  0.0000E+00  0.1040E+03
     15.03199782    -67.67845849  301      4.79657885      1.00000000
    -67.678  0.0000E+00  0.0000E+00  0.0000E+00
    -67.403  0.0000E+00  0.0000E+00  0.0000E+00
    -67.127  0.0000E+00  0.0000E+00  0.0000E+00
    -66.851  0.0000E+00  0.0000E+00  0.0000E+00
    -66.576  0.0000E+00  0.0000E+00  0.0000E+00
    -66.300  0.0000E+00  0.0000E+00  0.0000E+00
    -66.024  0.0000E+00  0.0000E+00  0.0000E+00
    -65.749  0.0000E+00  0.0000E+00  0.0000E+00
    -65.473  0.0000E+00  0.0000E+00  0.0000E+00
    -65.197  0.0000E+00  0.0000E+00  0.0000E+00
    -64.921  0.0000E+00  0.0000E+00  0.0000E+00
    -64.646  0.0000E+00  0.0000E+00  0.0000E+00
    -64.370  0.0000E+00  0.0000E+00  0.0000E+00
    -64.094  0.0000E+00  0.0000E+00  0.0000E+00
    -63.819  0.2622E-08  0.2163E+02  0.9925E-05
    -63.543  0.0000E+00  0.0000E+00  0.0000E+00
    -63.267  0.0000E+00  0.0000E+00  0.0000E+00
    -62.992  0.0000E+00  0.0000E+00  0.0000E+00
    -62.716  0.0000E+00  0.0000E+00  0.0000E+00
    -62.440  0.0000E+00  0.0000E+00  0.0000E+00
    -62.164  0.0000E+00  0.0000E+00  0.0000E+00
    -61.889  0.0000E+00  0.0000E+00  0.0000E+00
    -61.613  0.0000E+00  0.0000E+00  0.0000E+00
    -61.337  0.0000E+00  0.0000E+00  0.0000E+00
    -61.062  0.0000E+00  0.0000E+00  0.0000E+00
    -60.786  0.0000E+00  0.0000E+00  0.0000E+00
    -60.510  0.0000E+00  0.0000E+00  0.0000E+00
    -60.235  0.0000E+00  0.0000E+00  0.0000E+00
    -59.959  0.0000E+00  0.0000E+00  0.0000E+00
    -59.683  0.0000E+00  0.0000E+00  0.0000E+00
    -59.407  0.0000E+00  0.0000E+00  0.0000E+00
    -59.132  0.0000E+00  0.0000E+00  0.0000E+00
    -58.856  0.0000E+00  0.0000E+00  0.0000E+00
    -58.580  0.0000E+00  0.0000E+00  0.0000E+00
    -58.305  0.0000E+00  0.0000E+00  0.0000E+00
    -58.029  0.0000E+00  0.0000E+00  0.0000E+00
    -57.753  0.0000E+00  0.0000E+00  0.0000E+00
    -57.478  0.0000E+00  0.0000E+00  0.0000E+00
    -57.202  0.0000E+00  0.0000E+00  0.0000E+00
    -56.926  0.0000E+00  0.0000E+00  0.0000E+00
    -56.650  0.0000E+00  0.0000E+00  0.0000E+00
    -56.375  0.0000E+00  0.0000E+00  0.0000E+00
    -56.099  0.0000E+00  0.0000E+00  0.0000E+00
    -55.823  0.0000E+00  0.0000E+00  0.0000E+00
    -55.548  0.0000E+00  0.0000E+00  0.0000E+00
    -55.272  0.0000E+00  0.0000E+00  0.0000E+00
    -54.996  0.0000E+00  0.0000E+00  0.0000E+00
    -54.720  0.0000E+00  0.0000E+00  0.0000E+00
    -54.445  0.0000E+00  0.0000E+00  0.0000E+00
    -54.169  0.0000E+00  0.0000E+00  0.0000E+00
    -53.893  0.0000E+00  0.0000E+00  0.0000E+00
    -53.618  0.0000E+00  0.0000E+00  0.0000E+00
    -53.342  0.0000E+00  0.0000E+00  0.0000E+00
    -53.066  0.0000E+00  0.0000E+00  0.0000E+00
    -52.791  0.0000E+00  0.0000E+00  0.0000E+00
    -52.515  0.0000E+00  0.0000E+00  0.0000E+00
    -52.239  0.0000E+00  0.0000E+00  0.0000E+00
    -51.963  0.0000E+00  0.0000E+00  0.0000E+00
    -51.688  0.0000E+00  0.0000E+00  0.0000E+00
    -51.412  0.0000E+00  0.0000E+00  0.0000E+00
    -51.136  0.0000E+00  0.0000E+00  0.0000E+00
    -50.861  0.0000E+00  0.0000E+00  0.0000E+00
    -50.585  0.0000E+00  0.0000E+00  0.0000E+00
    -50.309  0.0000E+00  0.0000E+00  0.0000E+00
    -50.034  0.0000E+00  0.0000E+00  0.0000E+00
    -49.758  0.0000E+00  0.0000E+00  0.0000E+00
    -49.482  0.0000E+00  0.0000E+00  0.0000E+00
    -49.206  0.0000E+00  0.0000E+00  0.0000E+00
    -48.931  0.0000E+00  0.0000E+00  0.0000E+00
    -48.655  0.0000E+00  0.0000E+00  0.0000E+00
    -48.379  0.0000E+00  0.0000E+00  0.0000E+00
    -48.104  0.0000E+00  0.0000E+00  0.0000E+00
    -47.828  0.0000E+00  0.0000E+00  0.0000E+00
    -47.552  0.0000E+00  0.0000E+00  0.0000E+00
    -47.277  0.0000E+00  0.0000E+00  0.0000E+00
    -47.001  0.0000E+00  0.0000E+00  0.0000E+00
    -46.725  0.0000E+00  0.0000E+00  0.0000E+00
    -46.449  0.0000E+00  0.0000E+00  0.0000E+00
    -46.174  0.0000E+00  0.0000E+00  0.0000E+00
    -45.898  0.0000E+00  0.0000E+00  0.0000E+00
    -45.622  0.0000E+00  0.0000E+00  0.0000E+00
    -45.347  0.0000E+00  0.0000E+00  0.0000E+00
    -45.071  0.0000E+00  0.0000E+00  0.0000E+00
    -44.795  0.0000E+00  0.0000E+00  0.0000E+00
    -44.520  0.0000E+00  0.0000E+00  0.0000E+00
    -44.244  0.0000E+00  0.0000E+00  0.0000E+00
    -43.968  0.0000E+00  0.0000E+00  0.0000E+00
    -43.692  0.0000E+00  0.0000E+00  0.0000E+00
    -43.417  0.0000E+00  0.0000E+00  0.0000E+00
    -43.141  0.0000E+00  0.0000E+00  0.0000E+00
    -42.865  0.0000E+00  0.0000E+00  0.0000E+00
    -42.590  0.0000E+00  0.0000E+00  0.0000E+00
    -42.314  0.0000E+00  0.0000E+00  0.0000E+00
    -42.038  0.0000E+00  0.0000E+00  0.0000E+00
    -41.763  0.0000E+00  0.0000E+00  0.0000E+00
    -41.487  0.0000E+00  0.0000E+00  0.0000E+00
    -41.211  0.0000E+00  0.0000E+00  0.0000E+00
    -40.935  0.0000E+00  0.0000E+00  0.0000E+00
    -40.660  0.0000E+00  0.0000E+00  0.0000E+00
    -40.384  0.0000E+00  0.0000E+00  0.0000E+00
    -40.108  0.0000E+00  0.0000E+00  0.0000E+00
    -39.833  0.0000E+00  0.0000E+00  0.0000E+00
    -39.557  0.0000E+00  0.0000E+00  0.0000E+00
    -39.281  0.0000E+00  0.0000E+00  0.0000E+00
    -39.006  0.0000E+00  0.0000E+00  0.0000E+00
    -38.730  0.0000E+00  0.0000E+00  0.0000E+00
    -38.454  0.0000E+00  0.0000E+00  0.0000E+00
    -38.178  0.0000E+00  0.0000E+00  0.0000E+00
    -37.903  0.0000E+00  0.0000E+00  0.0000E+00
    -37.627  0.0000E+00  0.0000E+00  0.0000E+00
    -37.351  0.0000E+00  0.0000E+00  0.0000E+00
    -37.076  0.0000E+00  0.0000E+00  0.0000E+00
    -36.800  0.0000E+00  0.0000E+00  0.0000E+00
    -36.524  0.0000E+00  0.0000E+00  0.0000E+00
    -36.248  0.0000E+00  0.0000E+00  0.0000E+00
    -35.973  0.0000E+00  0.0000E+00  0.0000E+00
    -35.697  0.0000E+00  0.0000E+00  0.0000E+00
    -35.421  0.0000E+00  0.0000E+00  0.0000E+00
    -35.146  0.0000E+00  0.0000E+00  0.0000E+00
    -34.870  0.0000E+00  0.0000E+00  0.0000E+00
    -34.594  0.0000E+00  0.0000E+00  0.0000E+00
    -34.319  0.0000E+00  0.0000E+00  0.0000E+00
    -34.043  0.0000E+00  0.0000E+00  0.0000E+00
    -33.767  0.0000E+00  0.0000E+00  0.0000E+00
    -33.491  0.0000E+00  0.0000E+00  0.0000E+00
    -33.216  0.0000E+00  0.0000E+00  0.0000E+00
    -32.940  0.0000E+00  0.0000E+00  0.0000E+00
    -32.664  0.0000E+00  0.0000E+00  0.0000E+00
    -32.389  0.0000E+00  0.0000E+00  0.0000E+00
    -32.113  0.0000E+00  0.0000E+00  0.0000E+00
    -31.837  0.0000E+00  0.0000E+00  0.0000E+00
    -31.562  0.0000E+00  0.0000E+00  0.0000E+00
    -31.286  0.0000E+00  0.0000E+00  0.0000E+00
    -31.010  0.0000E+00  0.0000E+00  0.0000E+00
    -30.734  0.0000E+00  0.0000E+00  0.0000E+00
    -30.459  0.0000E+00  0.0000E+00  0.0000E+00
    -30.183  0.0000E+00  0.0000E+00  0.0000E+00
    -29.907  0.0000E+00  0.0000E+00  0.0000E+00
    -29.632  0.0000E+00  0.0000E+00  0.0000E+00
    -29.356  0.0000E+00  0.0000E+00  0.0000E+00
    -29.080  0.0000E+00  0.0000E+00  0.0000E+00
    -28.805  0.0000E+00  0.0000E+00  0.0000E+00
    -28.529  0.0000E+00  0.0000E+00  0.0000E+00
    -28.253  0.0000E+00  0.0000E+00  0.0000E+00
    -27.977  0.0000E+00  0.0000E+00  0.0000E+00
    -27.702  0.0000E+00  0.0000E+00  0.0000E+00
    -27.426  0.0000E+00  0.0000E+00  0.0000E+00
    -27.150  0.0000E+00  0.0000E+00  0.0000E+00
    -26.875  0.0000E+00  0.0000E+00  0.0000E+00
    -26.599  0.0000E+00  0.0000E+00  0.0000E+00
    -26.323  0.0000E+00  0.0000E+00  0.0000E+00
    -26.048  0.0000E+00  0.0000E+00  0.0000E+00
    -25.772  0.0000E+00  0.0000E+00  0.0000E+00
    -25.496  0.0000E+00  0.0000E+00  0.0000E+00
    -25.220  0.0000E+00  0.0000E+00  0.0000E+00
    -24.945  0.0000E+00  0.0000E+00  0.0000E+00
    -24.669  0.0000E+00  0.0000E+00  0.0000E+00
    -24.393  0.0000E+00  0.0000E+00  0.0000E+00
    -24.118  0.0000E+00  0.0000E+00  0.0000E+00
    -23.842  0.0000E+00  0.0000E+00  0.0000E+00
    -23.566  0.0000E+00  0.0000E+00  0.0000E+00
    -23.291  0.0000E+00  0.0000E+00  0.0000E+00
    -23.015  0.0000E+00  0.0000E+00  0.0000E+00
    -22.739  0.0000E+00  0.0000E+00  0.0000E+00
    -22.463  0.0000E+00  0.0000E+00  0.0000E+00
    -22.188  0.0000E+00  0.0000E+00  0.0000E+00
    -21.912  0.0000E+00  0.0000E+00  0.0000E+00
    -21.636  0.0000E+00  0.0000E+00  0.0000E+00
    -21.361  0.0000E+00  0.0000E+00  0.0000E+00
    -21.085  0.0000E+00  0.0000E+00  0.0000E+00
    -20.809  0.0000E+00  0.0000E+00  0.0000E+00
    -20.533  0.0000E+00  0.0000E+00  0.0000E+00
    -20.258  0.0000E+00  0.0000E+00  0.0000E+00
    -19.982  0.0000E+00  0.0000E+00  0.0000E+00
    -19.706  0.0000E+00  0.0000E+00  0.0000E+00
    -19.431  0.0000E+00  0.0000E+00  0.0000E+00
    -19.155  0.0000E+00  0.0000E+00  0.0000E+00
    -18.879  0.0000E+00  0.0000E+00  0.0000E+00
    -18.604  0.0000E+00  0.0000E+00  0.0000E+00
    -18.328  0.0000E+00  0.0000E+00  0.0000E+00
    -18.052  0.0000E+00  0.0000E+00  0.0000E+00
    -17.776  0.0000E+00  0.0000E+00  0.0000E+00
    -17.501  0.0000E+00  0.0000E+00  0.0000E+00
    -17.225  0.0000E+00  0.0000E+00  0.0000E+00
    -16.949  0.0000E+00  0.0000E+00  0.0000E+00
    -16.674  0.0000E+00  0.0000E+00  0.0000E+00
    -16.398  0.0000E+00  0.0000E+00  0.0000E+00
    -16.122  0.0000E+00  0.0000E+00  0.0000E+00
    -15.847  0.0000E+00  0.0000E+00  0.0000E+00
    -15.571  0.0000E+00  0.0000E+00  0.0000E+00
    -15.295  0.0000E+00  0.0000E+00  0.0000E+00
    -15.019  0.0000E+00  0.0000E+00  0.0000E+00
    -14.744  0.0000E+00  0.0000E+00  0.0000E+00
    -14.468  0.0000E+00  0.0000E+00  0.0000E+00
    -14.192  0.0000E+00  0.0000E+00  0.0000E+00
    -13.917  0.0000E+00  0.0000E+00  0.0000E+00
    -13.641  0.0000E+00  0.0000E+00  0.0000E+00
    -13.365  0.0000E+00  0.0000E+00  0.0000E+00
    -13.090  0.0000E+00  0.0000E+00  0.0000E+00
    -12.814  0.0000E+00  0.0000E+00  0.0000E+00
    -12.538  0.0000E+00  0.0000E+00  0.0000E+00
    -12.262  0.0000E+00  0.0000E+00  0.0000E+00
    -11.987  0.0000E+00  0.0000E+00  0.0000E+00
    -11.711  0.0000E+00  0.0000E+00  0.0000E+00
    -11.435  0.0000E+00  0.0000E+00  0.0000E+00
    -11.160  0.0000E+00  0.0000E+00  0.0000E+00
    -10.884  0.0000E+00  0.0000E+00  0.0000E+00
    -10.608  0.0000E+00  0.0000E+00  0.0000E+00
    -10.333  0.0000E+00  0.0000E+00  0.0000E+00
    -10.057  0.0000E+00  0.0000E+00  0.0000E+00
     -9.781  0.0000E+00  0.0000E+00  0.0000E+00
     -9.505  0.3797E-02  0.1921E-03  0.1739E-03
     -9.230  0.3751E-02  0.1093E-02  0.1130E-02
     -8.954  0.1215E-02  0.2090E-02  0.2500E-02
     -8.678  0.4160E-02  0.5069E-03  0.5623E-03
     -8.403  0.1381E-01  0.7132E-02  0.9414E-02
     -8.127  0.1283E-02  0.9675E-02  0.1330E-01
     -7.851  0.0000E+00  0.0000E+00  0.0000E+00
     -7.576  0.0000E+00  0.0000E+00  0.0000E+00
     -7.300  0.0000E+00  0.0000E+00  0.0000E+00
     -7.024  0.0000E+00  0.0000E+00  0.0000E+00
     -6.748  0.0000E+00  0.0000E+00  0.0000E+00
     -6.473  0.0000E+00  0.0000E+00  0.0000E+00
     -6.197  0.0000E+00  0.0000E+00  0.0000E+00
     -5.921  0.0000E+00  0.0000E+00  0.0000E+00
     -5.646  0.0000E+00  0.0000E+00  0.0000E+00
     -5.370  0.0000E+00  0.0000E+00  0.0000E+00
     -5.094  0.0000E+00  0.0000E+00  0.0000E+00
     -4.819  0.0000E+00  0.0000E+00  0.0000E+00
     -4.543  0.0000E+00  0.0000E+00  0.0000E+00
     -4.267  0.0000E+00  0.0000E+00  0.0000E+00
     -3.991  0.0000E+00  0.0000E+00  0.0000E+00
     -3.716  0.0000E+00  0.0000E+00  0.0000E+00
     -3.440  0.8362E-11  0.4505E-05  0.8982E-04
     -3.164  0.3559E-02  0.2547E-02  0.6286E-02
     -2.889  0.0000E+00  0.0000E+00  0.0000E+00
     -2.613  0.0000E+00  0.0000E+00  0.0000E+00
     -2.337  0.4665E-02  0.2897E-02  0.8712E-02
     -2.061  0.9300E-03  0.8511E-03  0.4063E-02
     -1.786  0.0000E+00  0.0000E+00  0.0000E+00
     -1.510  0.1280E-10  0.2356E-11  0.1391E-11
     -1.234  0.1443E-02  0.1958E-02  0.5493E-02
     -0.959  0.2947E-01  0.2374E-02  0.3557E-01
     -0.683  0.3108E-01  0.2582E-02  0.1500E-01
     -0.407  0.2132E-01  0.1052E-02  0.1275E-01
     -0.132  0.4214E-01  0.5519E-02  0.6576E-01
      0.144  0.1487E-01  0.1349E-01  0.9156E-01
      0.420  0.8547E-02  0.9017E-02  0.9056E-01
      0.696  0.2284E-01  0.1574E-01  0.2060E+00
      0.971  0.1358E-01  0.4264E-01  0.5534E+00
      1.247  0.1002E-02  0.1619E-02  0.4952E-01
      1.523  0.2263E-02  0.2723E-01  0.7146E+00
      1.798  0.3179E-02  0.4398E-02  0.2306E+00
      2.074  0.0000E+00  0.0000E+00  0.0000E+00
      2.350  0.0000E+00  0.0000E+00  0.0000E+00
      2.625  0.1392E-03  0.1670E-03  0.1862E+00
      2.901  0.9907E-02  0.4059E-02  0.2340E+01
      3.177  0.2013E-02  0.7350E-02  0.8163E+00
      3.453  0.4190E-02  0.1667E-01  0.1037E+01
      3.728  0.6789E-02  0.1823E-01  0.1033E+01
      4.004  0.3360E-02  0.1512E-01  0.6065E+00
      4.280  0.8619E-03  0.1415E-01  0.4645E+00
      4.555  0.4113E-05  0.5497E-03  0.2497E-01
      4.831  0.0000E+00  0.0000E+00  0.0000E+00
      5.107  0.0000E+00  0.0000E+00  0.0000E+00
      5.382  0.0000E+00  0.0000E+00  0.0000E+00
      5.658  0.1367E-03  0.2946E-04  0.6048E-03
      5.934  0.1331E-02  0.7995E-03  0.1228E-01
      6.210  0.1067E-02  0.2162E-02  0.4924E-01
      6.485  0.5507E-03  0.1181E-02  0.1222E-01
      6.761  0.5833E-14  0.1012E-02  0.5512E-02
      7.037  0.1992E-07  0.3887E-06  0.2818E-05
      7.312  0.2346E-01  0.6238E-02  0.2314E-01
      7.588  0.7760E-02  0.5135E-02  0.2300E-01
      7.864  0.6844E-02  0.5728E-02  0.1922E-01
      8.139  0.3044E-01  0.9971E-02  0.2133E-01
      8.415  0.1787E-01  0.2571E-02  0.7930E-02
      8.691  0.1632E-01  0.6687E-02  0.1674E-01
      8.967  0.1485E-01  0.4602E-02  0.1228E-01
      9.242  0.4808E-01  0.1122E-01  0.1627E-01
      9.518  0.3988E-01  0.3213E-02  0.9230E-02
      9.794  0.3428E-01  0.1652E-01  0.1306E-01
     10.069  0.3611E-01  0.1315E-01  0.1071E-01
     10.345  0.5205E-01  0.3029E-01  0.3181E-01
     10.621  0.8286E-01  0.4004E-01  0.3071E-01
     10.896  0.2387E-01  0.6382E-02  0.5940E-02
     11.172  0.0000E+00  0.0000E+00  0.0000E+00
     11.448  0.0000E+00  0.0000E+00  0.0000E+00
     11.724  0.0000E+00  0.0000E+00  0.0000E+00
     11.999  0.0000E+00  0.0000E+00  0.0000E+00
     12.275  0.0000E+00  0.0000E+00  0.0000E+00
     12.551  0.0000E+00  0.0000E+00  0.0000E+00
     12.826  0.0000E+00  0.0000E+00  0.0000E+00
     13.102  0.0000E+00  0.0000E+00  0.0000E+00
     13.378  0.0000E+00  0.0000E+00  0.0000E+00
     13.653  0.0000E+00  0.0000E+00  0.0000E+00
     13.929  0.0000E+00  0.0000E+00  0.0000E+00
     14.205  0.0000E+00  0.0000E+00  0.0000E+00
     14.481  0.0000E+00  0.0000E+00  0.0000E+00
     14.756  0.0000E+00  0.0000E+00  0.0000E+00
     15.032  0.0000E+00  0.0000E+00  0.0000E+00
     15.03199782    -67.67845849  301      4.79657885      1.00000000
    -67.678  0.0000E+00  0.0000E+00  0.0000E+00
    -67.403  0.0000E+00  0.0000E+00  0.0000E+00
    -67.127  0.0000E+00  0.0000E+00  0.0000E+00
    -66.851  0.0000E+00  0.0000E+00  0.0000E+00
    -66.576  0.0000E+00  0.0000E+00  0.0000E+00
    -66.300  0.0000E+00  0.0000E+00  0.0000E+00
    -66.024  0.0000E+00  0.0000E+00  0.0000E+00
    -65.749  0.0000E+00  0.0000E+00  0.0000E+00
    -65.473  0.0000E+00  0.0000E+00  0.0000E+00
    -65.197  0.0000E+00  0.0000E+00  0.0000E+00
    -64.921  0.0000E+00  0.0000E+00  0.0000E+00
    -64.646  0.0000E+00  0.0000E+00  0.0000E+00
    -64.370  0.0000E+00  0.0000E+00  0.0000E+00
    -64.094  0.0000E+00  0.0000E+00  0.0000E+00
    -63.819  0.2475E-08  0.1446E+02  0.6336E-05
    -63.543  0.0000E+00  0.0000E+00  0.0000E+00
    -63.267  0.0000E+00  0.0000E+00  0.0000E+00
    -62.992  0.0000E+00  0.0000E+00  0.0000E+00
    -62.716  0.0000E+00  0.0000E+00  0.0000E+00
    -62.440  0.0000E+00  0.0000E+00  0.0000E+00
    -62.164  0.0000E+00  0.0000E+00  0.0000E+00
    -61.889  0.0000E+00  0.0000E+00  0.0000E+00
    -61.613  0.0000E+00  0.0000E+00  0.0000E+00
    -61.337  0.0000E+00  0.0000E+00  0.0000E+00
    -61.062  0.0000E+00  0.0000E+00  0.0000E+00
    -60.786  0.0000E+00  0.0000E+00  0.0000E+00
    -60.510  0.0000E+00  0.0000E+00  0.0000E+00
    -60.235  0.0000E+00  0.0000E+00  0.0000E+00
    -59.959  0.0000E+00  0.0000E+00  0.0000E+00
    -59.683  0.0000E+00  0.0000E+00  0.0000E+00
    -59.407  0.0000E+00  0.0000E+00  0.0000E+00
    -59.132  0.0000E+00  0.0000E+00  0.0000E+00
    -58.856  0.0000E+00  0.0000E+00  0.0000E+00
    -58.580  0.0000E+00  0.0000E+00  0.0000E+00
    -58.305  0.0000E+00  0.0000E+00  0.0000E+00
    -58.029  0.0000E+00  0.0000E+00  0.0000E+00
    -57.753  0.0000E+00  0.0000E+00  0.0000E+00
    -57.478  0.0000E+00  0.0000E+00  0.0000E+00
    -57.202  0.0000E+00  0.0000E+00  0.0000E+00
    -56.926  0.0000E+00  0.0000E+00  0.0000E+00
    -56.650  0.0000E+00  0.0000E+00  0.0000E+00
    -56.375  0.0000E+00  0.0000E+00  0.0000E+00
    -56.099  0.0000E+00  0.0000E+00  0.0000E+00
    -55.823  0.0000E+00  0.0000E+00  0.0000E+00
    -55.548  0.0000E+00  0.0000E+00  0.0000E+00
    -55.272  0.0000E+00  0.0000E+00  0.0000E+00
    -54.996  0.0000E+00  0.0000E+00  0.0000E+00
    -54.720  0.0000E+00  0.0000E+00  0.0000E+00
    -54.445  0.0000E+00  0.0000E+00  0.0000E+00
    -54.169  0.0000E+00  0.0000E+00  0.0000E+00
    -53.893  0.0000E+00  0.0000E+00  0.0000E+00
    -53.618  0.0000E+00  0.0000E+00  0.0000E+00
    -53.342  0.0000E+00  0.0000E+00  0.0000E+00
    -53.066  0.0000E+00  0.0000E+00  0.0000E+00
    -52.791  0.0000E+00  0.0000E+00  0.0000E+00
    -52.515  0.0000E+00  0.0000E+00  0.0000E+00
    -52.239  0.0000E+00  0.0000E+00  0.0000E+00
    -51.963  0.0000E+00  0.0000E+00  0.0000E+00
    -51.688  0.0000E+00  0.0000E+00  0.0000E+00
    -51.412  0.0000E+00  0.0000E+00  0.0000E+00
    -51.136  0.0000E+00  0.0000E+00  0.0000E+00
    -50.861  0.0000E+00  0.0000E+00  0.0000E+00
    -50.585  0.0000E+00  0.0000E+00  0.0000E+00
    -50.309  0.0000E+00  0.0000E+00  0.0000E+00
    -50.034  0.0000E+00  0.0000E+00  0.0000E+00
    -49.758  0.0000E+00  0.0000E+00  0.0000E+00
    -49.482  0.0000E+00  0.0000E+00  0.0000E+00
    -49.206  0.0000E+00  0.0000E+00  0.0000E+00
    -48.931  0.0000E+00  0.0000E+00  0.0000E+00
    -48.655  0.0000E+00  0.0000E+00  0.0000E+00
    -48.379  0.0000E+00  0.0000E+00  0.0000E+00
    -48.104  0.0000E+00  0.0000E+00  0.0000E+00
    -47.828  0.0000E+00  0.0000E+00  0.0000E+00
    -47.552  0.0000E+00  0.0000E+00  0.0000E+00
    -47.277  0.0000E+00  0.0000E+00  0.0000E+00
    -47.001  0.0000E+00  0.0000E+00  0.0000E+00
    -46.725  0.0000E+00  0.0000E+00  0.0000E+00
    -46.449  0.0000E+00  0.0000E+00  0.0000E+00
    -46.174  0.0000E+00  0.0000E+00  0.0000E+00
    -45.898  0.0000E+00  0.0000E+00  0.0000E+00
    -45.622  0.0000E+00  0.0000E+00  0.0000E+00
    -45.347  0.0000E+00  0.0000E+00  0.0000E+00
    -45.071  0.0000E+00  0.0000E+00  0.0000E+00
    -44.795  0.0000E+00  0.0000E+00  0.0000E+00
    -44.520  0.0000E+00  0.0000E+00  0.0000E+00
    -44.244  0.0000E+00  0.0000E+00  0.0000E+00
    -43.968  0.0000E+00  0.0000E+00  0.0000E+00
    -43.692  0.0000E+00  0.0000E+00  0.0000E+00
    -43.417  0.0000E+00  0.0000E+00  0.0000E+00
    -43.141  0.0000E+00  0.0000E+00  0.0000E+00