  96  96   0   0
  0.2080188E+02  0.1257760E-08  0.1245754E-08  0.1274818E-08  0.5000000E-15
  1.000000000000000E-004
  CAR 
 MAPbI3-Cubic                            
      8.82394528    -19.47337818  301      1.39589787      1.00000000
    -19.473  0.0000E+00  0.0000E+00
    -19.379  0.0000E+00  0.0000E+00
    -19.285  0.0000E+00  0.0000E+00
    -19.190  0.0000E+00  0.0000E+00
    -19.096  0.0000E+00  0.0000E+00
    -19.002  0.0000E+00  0.0000E+00
    -18.907  0.0000E+00  0.0000E+00
    -18.813  0.0000E+00  0.0000E+00
    -18.719  0.0000E+00  0.0000E+00
    -18.624  0.0000E+00  0.0000E+00
    -18.530  0.0000E+00  0.0000E+00
    -18.436  0.0000E+00  0.0000E+00
    -18.341  0.0000E+00  0.0000E+00
    -18.247  0.0000E+00  0.0000E+00
    -18.153  0.0000E+00  0.1600E+02
    -18.059  0.0000E+00  0.1600E+02
    -17.964  0.0000E+00  0.1600E+02
    -17.870  0.0000E+00  0.1600E+02
    -17.776  0.0000E+00  0.1600E+02
    -17.681  0.0000E+00  0.1600E+02
    -17.587  0.0000E+00  0.1600E+02
    -17.493  0.0000E+00  0.1600E+02
    -17.398  0.0000E+00  0.1600E+02
    -17.304  0.0000E+00  0.1600E+02
    -17.210  0.0000E+00  0.1600E+02
    -17.115  0.0000E+00  0.1600E+02
    -17.021  0.0000E+00  0.1600E+02
    -16.927  0.0000E+00  0.1600E+02
    -16.832  0.0000E+00  0.1600E+02
    -16.738  0.0000E+00  0.1600E+02
    -16.644  0.0000E+00  0.1600E+02
    -16.549  0.0000E+00  0.1600E+02
    -16.455  0.0000E+00  0.1600E+02
    -16.361  0.0000E+00  0.1600E+02
    -16.266  0.0000E+00  0.1600E+02
    -16.172  0.0000E+00  0.1600E+02
    -16.078  0.0000E+00  0.1600E+02
    -15.983  0.0000E+00  0.1600E+02
    -15.889  0.0000E+00  0.1600E+02
    -15.795  0.0000E+00  0.1600E+02
    -15.700  0.0000E+00  0.1600E+02
    -15.606  0.0000E+00  0.1600E+02
    -15.512  0.0000E+00  0.1600E+02
    -15.417  0.0000E+00  0.1600E+02
    -15.323  0.0000E+00  0.1600E+02
    -15.229  0.0000E+00  0.1600E+02
    -15.134  0.0000E+00  0.1600E+02
    -15.040  0.4148E+02  0.8391E+02
    -14.946  0.0000E+00  0.9600E+02
    -14.851  0.0000E+00  0.9600E+02
    -14.757  0.0000E+00  0.9600E+02
    -14.663  0.0000E+00  0.9600E+02
    -14.569  0.0000E+00  0.9600E+02
    -14.474  0.0000E+00  0.9600E+02
    -14.380  0.0000E+00  0.9600E+02
    -14.286  0.0000E+00  0.9600E+02
    -14.191  0.0000E+00  0.9600E+02
    -14.097  0.0000E+00  0.9600E+02
    -14.003  0.0000E+00  0.9600E+02
    -13.908  0.0000E+00  0.9600E+02
    -13.814  0.0000E+00  0.9600E+02
    -13.720  0.0000E+00  0.9600E+02
    -13.625  0.0000E+00  0.9600E+02
    -13.531  0.0000E+00  0.9600E+02
    -13.437  0.0000E+00  0.9600E+02
    -13.342  0.0000E+00  0.9600E+02
    -13.248  0.0000E+00  0.9600E+02
    -13.154  0.0000E+00  0.9600E+02
    -13.059  0.0000E+00  0.9600E+02
    -12.965  0.0000E+00  0.9600E+02
    -12.871  0.0000E+00  0.9600E+02
    -12.776  0.0000E+00  0.9600E+02
    -12.682  0.0000E+00  0.9600E+02
    -12.588  0.0000E+00  0.9600E+02
    -12.493  0.0000E+00  0.9600E+02
    -12.399  0.0000E+00  0.9600E+02
    -12.305  0.0000E+00  0.9600E+02
    -12.210  0.0000E+00  0.9600E+02
    -12.116  0.0000E+00  0.9600E+02
    -12.022  0.0000E+00  0.9600E+02
    -11.927  0.0000E+00  0.9600E+02
    -11.833  0.0000E+00  0.9600E+02
    -11.739  0.0000E+00  0.9600E+02
    -11.644  0.0000E+00  0.9600E+02
    -11.550  0.0000E+00  0.9600E+02
    -11.456  0.0000E+00  0.9600E+02
    -11.361  0.0000E+00  0.9600E+02
    -11.267  0.0000E+00  0.1040E+03
    -11.173  0.0000E+00  0.1120E+03
    -11.079  0.0000E+00  0.1120E+03
    -10.984  0.0000E+00  0.1120E+03
    -10.890  0.0000E+00  0.1120E+03
    -10.796  0.1571E+01  0.1122E+03
    -10.701  0.0000E+00  0.1141E+03
    -10.607  0.7701E+01  0.1193E+03
    -10.513  0.6355E+01  0.1254E+03
    -10.418  0.1579E+01  0.1287E+03
    -10.324  0.2277E+02  0.1345E+03
    -10.230  0.3141E+01  0.1400E+03
    -10.135  0.1936E-13  0.1436E+03
    -10.041  0.1542E+02  0.1509E+03
     -9.947  0.1229E+02  0.1589E+03
     -9.852  0.0000E+00  0.1600E+03
     -9.758  0.0000E+00  0.1600E+03
     -9.664  0.0000E+00  0.1600E+03
     -9.569  0.0000E+00  0.1600E+03
     -9.475  0.0000E+00  0.1600E+03
     -9.381  0.0000E+00  0.1600E+03
     -9.286  0.0000E+00  0.1600E+03
     -9.192  0.0000E+00  0.1600E+03
     -9.098  0.0000E+00  0.1600E+03
     -9.003  0.0000E+00  0.1600E+03
     -8.909  0.0000E+00  0.1600E+03
     -8.815  0.0000E+00  0.1600E+03
     -8.720  0.0000E+00  0.1600E+03
     -8.626  0.0000E+00  0.1600E+03
     -8.532  0.0000E+00  0.1600E+03
     -8.437  0.0000E+00  0.1600E+03
     -8.343  0.0000E+00  0.1600E+03
     -8.249  0.0000E+00  0.1600E+03
     -8.154  0.0000E+00  0.1600E+03
     -8.060  0.0000E+00  0.1600E+03
     -7.966  0.0000E+00  0.1600E+03
     -7.871  0.0000E+00  0.1600E+03
     -7.777  0.0000E+00  0.1600E+03
     -7.683  0.3424E+02  0.1659E+03
     -7.589  0.7853E+00  0.1840E+03
     -7.494  0.0000E+00  0.1920E+03
     -7.400  0.0000E+00  0.1920E+03
     -7.306  0.0000E+00  0.1920E+03
     -7.211  0.0000E+00  0.1920E+03
     -7.117  0.0000E+00  0.1920E+03
     -7.023  0.0000E+00  0.1921E+03
     -6.928  0.0000E+00  0.1921E+03
     -6.834  0.0000E+00  0.1925E+03
     -6.740  0.0000E+00  0.1934E+03
     -6.645  0.1571E+01  0.1943E+03
     -6.551  0.9479E-01  0.1945E+03
     -6.457  0.7703E+00  0.1964E+03
     -6.362  0.0000E+00  0.1988E+03
     -6.268  0.0000E+00  0.2000E+03
     -6.174  0.3303E+01  0.2015E+03
     -6.079  0.0000E+00  0.2036E+03
     -5.985  0.0000E+00  0.2054E+03
     -5.891  0.1570E+01  0.2064E+03
     -5.796  0.2594E+02  0.2116E+03
     -5.702  0.3141E+01  0.2159E+03
     -5.608  0.0000E+00  0.2235E+03
     -5.513  0.0000E+00  0.2239E+03
     -5.419  0.0000E+00  0.2240E+03
     -5.325  0.0000E+00  0.2240E+03
     -5.230  0.0000E+00  0.2240E+03
     -5.136  0.0000E+00  0.2240E+03
     -5.042  0.0000E+00  0.2240E+03
     -4.947  0.0000E+00  0.2240E+03
     -4.853  0.0000E+00  0.2240E+03
     -4.759  0.0000E+00  0.2240E+03
     -4.664  0.0000E+00  0.2240E+03
     -4.570  0.0000E+00  0.2240E+03
     -4.476  0.0000E+00  0.2240E+03
     -4.381  0.0000E+00  0.2240E+03
     -4.287  0.0000E+00  0.2240E+03
     -4.193  0.0000E+00  0.2240E+03
     -4.098  0.0000E+00  0.2240E+03
     -4.004  0.0000E+00  0.2240E+03
     -3.910  0.0000E+00  0.2240E+03
     -3.816  0.0000E+00  0.2240E+03
     -3.721  0.0000E+00  0.2240E+03
     -3.627  0.0000E+00  0.2240E+03
     -3.533  0.2944E+02  0.2353E+03
     -3.438  0.0000E+00  0.2560E+03
     -3.344  0.0000E+00  0.2560E+03
     -3.250  0.0000E+00  0.2560E+03
     -3.155  0.0000E+00  0.2560E+03
     -3.061  0.0000E+00  0.2560E+03
     -2.967  0.0000E+00  0.2560E+03
     -2.872  0.0000E+00  0.2560E+03
     -2.778  0.0000E+00  0.2560E+03
     -2.684  0.0000E+00  0.2560E+03
     -2.589  0.0000E+00  0.2560E+03
     -2.495  0.0000E+00  0.2560E+03
     -2.401  0.0000E+00  0.2560E+03
     -2.306  0.0000E+00  0.2560E+03
     -2.212  0.0000E+00  0.2560E+03
     -2.118  0.2946E-08  0.2560E+03
     -2.023  0.2037E+01  0.2580E+03
     -1.929  0.9623E+00  0.2605E+03
     -1.835  0.3870E+01  0.2632E+03
     -1.740  0.1701E-10  0.2653E+03
     -1.646  0.6282E+01  0.2681E+03
     -1.552  0.6282E+01  0.2719E+03
     -1.457  0.3270E-13  0.2748E+03
     -1.363  0.7853E+01  0.2785E+03
     -1.269  0.0000E+00  0.2796E+03
     -1.174  0.0000E+00  0.2800E+03
     -1.080  0.0000E+00  0.2800E+03
     -0.986  0.3142E+01  0.2807E+03
     -0.891  0.9222E+01  0.2850E+03
     -0.797  0.3141E+01  0.2915E+03
     -0.703  0.3141E+01  0.2958E+03
     -0.608  0.2360E+01  0.3014E+03
     -0.514  0.2432E+01  0.3043E+03
     -0.420  0.4493E+01  0.3083E+03
     -0.326  0.1788E+01  0.3131E+03
     -0.231  0.5271E+01  0.3201E+03
     -0.137  0.5080E+01  0.3263E+03
     -0.043  0.4712E+01  0.3324E+03
      0.052  0.6235E+01  0.3390E+03
      0.146  0.7289E+01  0.3474E+03
      0.240  0.1773E+02  0.3563E+03
      0.335  0.5793E+01  0.3640E+03
      0.429  0.3111E+01  0.3703E+03
      0.523  0.5521E+01  0.3798E+03
      0.618  0.6127E+01  0.3865E+03
      0.712  0.3141E+01  0.3919E+03
      0.806  0.3140E+01  0.3960E+03
      0.901  0.3245E+01  0.3978E+03
      0.995  0.0000E+00  0.3993E+03
      1.089  0.0000E+00  0.3993E+03
      1.184  0.0000E+00  0.3998E+03
      1.278  0.0000E+00  0.3999E+03
      1.372  0.0000E+00  0.4000E+03
      1.467  0.0000E+00  0.4000E+03
      1.561  0.0000E+00  0.4000E+03
      1.655  0.0000E+00  0.4000E+03
      1.750  0.0000E+00  0.4000E+03
      1.844  0.0000E+00  0.4000E+03
      1.938  0.0000E+00  0.4000E+03
      2.033  0.0000E+00  0.4000E+03
      2.127  0.0000E+00  0.4000E+03
      2.221  0.0000E+00  0.4000E+03
      2.316  0.0000E+00  0.4000E+03
      2.410  0.0000E+00  0.4000E+03
      2.504  0.0000E+00  0.4000E+03
      2.599  0.0000E+00  0.4000E+03
      2.693  0.0000E+00  0.4000E+03
      2.787  0.0000E+00  0.4000E+03
      2.882  0.0000E+00  0.4000E+03
      2.976  0.0000E+00  0.4001E+03
      3.070  0.0000E+00  0.4007E+03
      3.164  0.1571E+01  0.4012E+03
      3.259  0.0000E+00  0.4029E+03
      3.353  0.0000E+00  0.4036E+03
      3.447  0.0000E+00  0.4056E+03
      3.542  0.7274E-11  0.4066E+03
      3.636  0.1571E+01  0.4077E+03
      3.730  0.0000E+00  0.4081E+03
      3.825  0.6993E-02  0.4090E+03
      3.919  0.1571E+01  0.4096E+03
      4.013  0.0000E+00  0.4108E+03
      4.108  0.3141E+01  0.4133E+03
      4.202  0.6282E+01  0.4156E+03
      4.296  0.2964E+01  0.4176E+03
      4.391  0.7819E+01  0.4204E+03
      4.485  0.0000E+00  0.4227E+03
      4.579  0.0000E+00  0.4239E+03
      4.674  0.1570E+01  0.4240E+03
      4.768  0.0000E+00  0.4240E+03
      4.862  0.0000E+00  0.4240E+03
      4.957  0.0000E+00  0.4240E+03
      5.051  0.0000E+00  0.4241E+03
      5.145  0.0000E+00  0.4242E+03
      5.240  0.7088E+01  0.4259E+03
      5.334  0.1557E+01  0.4281E+03
      5.428  0.4712E+01  0.4316E+03
      5.523  0.3386E+01  0.4351E+03
      5.617  0.4401E+01  0.4385E+03
      5.711  0.5849E-02  0.4403E+03
      5.806  0.2356E+01  0.4423E+03
      5.900  0.0000E+00  0.4446E+03
      5.994  0.4534E+01  0.4478E+03
      6.089  0.4644E+01  0.4510E+03
      6.183  0.6282E+01  0.4555E+03
      6.277  0.6282E+01  0.4593E+03
      6.372  0.7816E+00  0.4621E+03
      6.466  0.1016E+00  0.4658E+03
      6.560  0.4089E+01  0.4717E+03
      6.654  0.6290E+01  0.4759E+03
      6.749  0.4417E+01  0.4796E+03
      6.843  0.7880E+00  0.4840E+03
      6.937  0.0000E+00  0.4870E+03
      7.032  0.4712E+01  0.4900E+03
      7.126  0.9407E+01  0.4940E+03
      7.220  0.5874E+01  0.5003E+03
      7.315  0.6256E+01  0.5037E+03
      7.409  0.1499E+01  0.5084E+03
      7.503  0.7820E+00  0.5111E+03
      7.598  0.0000E+00  0.5120E+03
      7.692  0.0000E+00  0.5120E+03
      7.786  0.0000E+00  0.5120E+03
      7.881  0.0000E+00  0.5120E+03
      7.975  0.0000E+00  0.5120E+03
      8.069  0.0000E+00  0.5120E+03
      8.164  0.0000E+00  0.5120E+03
      8.258  0.0000E+00  0.5120E+03
      8.352  0.0000E+00  0.5120E+03
      8.447  0.0000E+00  0.5120E+03
      8.541  0.0000E+00  0.5120E+03
      8.635  0.0000E+00  0.5120E+03
      8.730  0.0000E+00  0.5120E+03
      8.824  0.0000E+00  0.5120E+03
