 running on   96 total cores
 distrk:  each k-point on   24 cores,    4 groups
 distr:  one band on    3 cores,    8 groups
 using from now: INCAR     
 vasp.5.4.1 24Jun15 (build Nov 25 2015 16:01:35) complex                        
  
 POSCAR found type information on POSCAR  C  N  H  Pb I 
 POSCAR found :  5 types and      96 ions
 scaLAPACK will be used

 ----------------------------------------------------------------------------- 
|                                                                             |
|           W    W    AA    RRRRR   N    N  II  N    N   GGGG   !!!           |
|           W    W   A  A   R    R  NN   N  II  NN   N  G    G  !!!           |
|           W    W  A    A  R    R  N N  N  II  N N  N  G       !!!           |
|           W WW W  AAAAAA  RRRRR   N  N N  II  N  N N  G  GGG   !            |
|           WW  WW  A    A  R   R   N   NN  II  N   NN  G    G                |
|           W    W  A    A  R    R  N    N  II  N    N   GGGG   !!!           |
|                                                                             |
|      For optimal performance we recommend to set                            |
|        NCORE= 4 - approx SQRT( number of cores)                             |
|      NCORE specifies how many cores store one orbital (NPAR=cpu/NCORE).     |
|      This setting can  greatly improve the performance of VASP for DFT.     |
|      The default, NPAR=number of cores might be grossly inefficient         |
|      on modern multi-core architectures or massively parallel machines.     |
|      Do your own testing !!!!                                               |
|      Unfortunately you need to use the default for GW and RPA calculations. |
|      (for HF NCORE is supported but not extensively tested yet)             |
|                                                                             |
 ----------------------------------------------------------------------------- 


 ----------------------------------------------------------------------------- 
|                                                                             |
|           W    W    AA    RRRRR   N    N  II  N    N   GGGG   !!!           |
|           W    W   A  A   R    R  NN   N  II  NN   N  G    G  !!!           |
|           W    W  A    A  R    R  N N  N  II  N N  N  G       !!!           |
|           W WW W  AAAAAA  RRRRR   N  N N  II  N  N N  G  GGG   !            |
|           WW  WW  A    A  R   R   N   NN  II  N   NN  G    G                |
|           W    W  A    A  R    R  N    N  II  N    N   GGGG   !!!           |
|                                                                             |
|      You have enabled k-point parallelism (KPAR>1).                         |
|      This developmental code was originally  written by Paul Kent at ORNL,  |
|      and carefully double checked in Vienna.                                |
|      GW as well as linear response parallelism added by Martijn Marsman     |
|      and Georg Kresse.                                                      |
|      Carefully verify results versus KPAR=1.                                |
|      Report problems to Paul Kent and Vienna.                               |
|                                                                             |
 ----------------------------------------------------------------------------- 


 ----------------------------------------------------------------------------- 
|                                                                             |
|  ADVICE TO THIS USER RUNNING 'VASP/VAMP'   (HEAR YOUR MASTER'S VOICE ...):  |
|                                                                             |
|      You have a (more or less) 'large supercell' and for larger cells       |
|      it might be more efficient to use real space projection opertators     |
|      So try LREAL= Auto  in the INCAR   file.                               |
|      Mind: At the moment your POTCAR file does not contain real space       |
|       projectors, and has to be modified,  BUT if you                       |
|      want to do an extremely  accurate calculation you might also keep the  |
|      reciprocal projection scheme          (i.e. LREAL=.FALSE.)             |
|                                                                             |
 ----------------------------------------------------------------------------- 


 ----------------------------------------------------------------------------- 
|                                                                             |
|  ADVICE TO THIS USER RUNNING 'VASP/VAMP'   (HEAR YOUR MASTER'S VOICE ...):  |
|                                                                             |
|      You enforced a specific xc-type in the INCAR file,                     |
|      a different type was found on the POTCAR file                          |
|          I HOPE YOU KNOW, WHAT YOU ARE  DOING                               |
|                                                                             |
 ----------------------------------------------------------------------------- 

 LDA part: xc-table for Pade appr. of Perdew
 POSCAR, INCAR and KPOINTS ok, starting setup
 WARNING: small aliasing (wrap around) errors must be expected
 FFT: planning ...
 WAVECAR not read
 entering main loop
       N       E                     dE             d eps       ncg     rms          rms(c)
DAV:   1     0.359761593247E+04    0.35976E+04   -0.18943E+05  7176   0.170E+03
DAV:   2     0.204373147552E+03   -0.33932E+04   -0.31952E+04  7936   0.354E+02
DAV:   3    -0.397327505267E+03   -0.60170E+03   -0.59219E+03  9456   0.172E+02
DAV:   4    -0.438372900236E+03   -0.41045E+02   -0.40866E+02  9688   0.492E+01
DAV:   5    -0.439911050146E+03   -0.15381E+01   -0.15358E+01  9800   0.921E+00    0.294E+01
DAV:   6    -0.419536783248E+03    0.20374E+02   -0.41307E+01  9688   0.103E+01    0.156E+01
DAV:   7    -0.417080425522E+03    0.24564E+01   -0.14493E+01 10256   0.637E+00    0.778E+00
DAV:   8    -0.416911087247E+03    0.16934E+00   -0.30515E+00  8600   0.320E+00    0.183E+00
DAV:   9    -0.416837902998E+03    0.73184E-01   -0.75781E-01  9488   0.177E+00    0.722E-01
DAV:  10    -0.416849392654E+03   -0.11490E-01   -0.10942E-01  8816   0.584E-01    0.464E-01
DAV:  11    -0.416849126816E+03    0.26584E-03   -0.14534E-02 10000   0.282E-01    0.196E-01
DAV:  12    -0.416850510302E+03   -0.13835E-02   -0.91513E-03  9760   0.153E-01    0.107E-01
DAV:  13    -0.416850658123E+03   -0.14782E-03   -0.13347E-03  8288   0.774E-02    0.741E-02
DAV:  14    -0.416850694068E+03   -0.35946E-04   -0.29137E-04  8664   0.293E-02    0.328E-02
DAV:  15    -0.416850737027E+03   -0.42958E-04   -0.15876E-04  8264   0.208E-02    0.123E-02
DAV:  16    -0.416850741036E+03   -0.40097E-05   -0.14534E-05 10784   0.723E-03    0.129E-02
DAV:  17    -0.416850740754E+03    0.28247E-06   -0.36458E-06  8384   0.337E-03    0.602E-03
DAV:  18    -0.416850740632E+03    0.12244E-06   -0.10138E-05 10360   0.503E-03    0.398E-03
DAV:  19    -0.416850740628E+03    0.35325E-08   -0.98505E-07  8560   0.223E-03    0.268E-03
DAV:  20    -0.416850740623E+03    0.47985E-08   -0.52016E-07  9600   0.112E-03    0.463E-04
DAV:  21    -0.416850740667E+03   -0.44151E-07   -0.56069E-08  8936   0.480E-04    0.322E-04
DAV:  22    -0.416850740658E+03    0.92623E-08   -0.43917E-09  8512   0.187E-04    0.210E-04
DAV:  23    -0.416850740660E+03   -0.17935E-08    0.11921E-09  8464   0.906E-05    0.202E-04
DAV:  24    -0.416850740656E+03    0.40563E-08    0.12365E-09  7192   0.620E-05    0.185E-04
DAV:  25    -0.416850740657E+03   -0.86584E-09    0.18828E-09  6328   0.395E-05    0.190E-04
DAV:  26    -0.416850740659E+03   -0.20518E-08    0.14811E-09  4496   0.303E-05    0.183E-04
DAV:  27    -0.416850740661E+03   -0.17899E-08    0.18817E-09  5504   0.363E-05    0.184E-04
DAV:  28    -0.416850740661E+03   -0.11642E-09    0.16492E-09  4256   0.201E-05    0.182E-04
DAV:  29    -0.416850740660E+03    0.57116E-09    0.15012E-09  4256   0.142E-05    0.181E-04
DAV:  30    -0.416850740660E+03    0.19645E-09    0.15669E-09  4256   0.113E-05    0.181E-04
DAV:  31    -0.416850740660E+03   -0.10550E-09    0.14038E-09  4256   0.870E-06    0.181E-04
DAV:  32    -0.416850740660E+03    0.46930E-09    0.12079E-09  4256   0.599E-06    0.181E-04
DAV:  33    -0.416850740660E+03   -0.18190E-09    0.12060E-09  4232   0.345E-06    0.181E-04
DAV:  34    -0.416850740660E+03   -0.16371E-09    0.10548E-09  4208   0.235E-06    0.181E-04
DAV:  35    -0.416850740660E+03    0.25102E-09    0.67202E-10  4176   0.152E-06    0.181E-04
DAV:  36    -0.416850740660E+03   -0.42928E-09    0.72240E-10  4136   0.117E-06    0.181E-04
DAV:  37    -0.416850740660E+03    0.17826E-09    0.66257E-10  4064   0.730E-07    0.181E-04
DAV:  38    -0.416850740660E+03    0.72760E-11    0.55459E-10  4032   0.562E-07
   1 F= -.41685074E+03 E0= -.41685074E+03  d E =0.000000E+00
Application 22454123 resources: utime ~294212s, stime ~256s, Rss ~648008, inblocks ~895217, outblocks ~776367
