  96  96   0   0
  0.2080188E+02  0.1257760E-08  0.1245754E-08  0.1274818E-08  0.5000000E-15
  1.000000000000000E-004
  CAR 
 MAPbI3-Cubic                            
      8.90416482    -19.60915268  301      1.44318007      1.00000000
    -19.609  0.0000E+00  0.0000E+00
    -19.514  0.0000E+00  0.0000E+00
    -19.419  0.0000E+00  0.0000E+00
    -19.324  0.0000E+00  0.0000E+00
    -19.229  0.0000E+00  0.0000E+00
    -19.134  0.0000E+00  0.0000E+00
    -19.039  0.0000E+00  0.0000E+00
    -18.944  0.0000E+00  0.0000E+00
    -18.849  0.0000E+00  0.0000E+00
    -18.754  0.0000E+00  0.0000E+00
    -18.659  0.0000E+00  0.0000E+00
    -18.564  0.0000E+00  0.0000E+00
    -18.469  0.0000E+00  0.0000E+00
    -18.374  0.0000E+00  0.0000E+00
    -18.279  0.0000E+00  0.1600E+02
    -18.183  0.0000E+00  0.1600E+02
    -18.088  0.0000E+00  0.1600E+02
    -17.993  0.0000E+00  0.1600E+02
    -17.898  0.0000E+00  0.1600E+02
    -17.803  0.0000E+00  0.1600E+02
    -17.708  0.0000E+00  0.1600E+02
    -17.613  0.0000E+00  0.1600E+02
    -17.518  0.0000E+00  0.1600E+02
    -17.423  0.0000E+00  0.1600E+02
    -17.328  0.0000E+00  0.1600E+02
    -17.233  0.0000E+00  0.1600E+02
    -17.138  0.0000E+00  0.1600E+02
    -17.043  0.0000E+00  0.1600E+02
    -16.948  0.0000E+00  0.1600E+02
    -16.853  0.0000E+00  0.1600E+02
    -16.758  0.0000E+00  0.1600E+02
    -16.663  0.0000E+00  0.1600E+02
    -16.568  0.0000E+00  0.1600E+02
    -16.473  0.0000E+00  0.1600E+02
    -16.378  0.0000E+00  0.1600E+02
    -16.283  0.0000E+00  0.1600E+02
    -16.188  0.0000E+00  0.1600E+02
    -16.093  0.0000E+00  0.1600E+02
    -15.997  0.0000E+00  0.1600E+02
    -15.902  0.0000E+00  0.1600E+02
    -15.807  0.0000E+00  0.1600E+02
    -15.712  0.0000E+00  0.1600E+02
    -15.617  0.0000E+00  0.1600E+02
    -15.522  0.0000E+00  0.1600E+02
    -15.427  0.0000E+00  0.1600E+02
    -15.332  0.0000E+00  0.1600E+02
    -15.237  0.0000E+00  0.1600E+02
    -15.142  0.0000E+00  0.1600E+02
    -15.047  0.8233E+02  0.4738E+02
    -14.952  0.0000E+00  0.9600E+02
    -14.857  0.0000E+00  0.9600E+02
    -14.762  0.0000E+00  0.9600E+02
    -14.667  0.0000E+00  0.9600E+02
    -14.572  0.0000E+00  0.9600E+02
    -14.477  0.0000E+00  0.9600E+02
    -14.382  0.0000E+00  0.9600E+02
    -14.287  0.0000E+00  0.9600E+02
    -14.192  0.0000E+00  0.9600E+02
    -14.097  0.0000E+00  0.9600E+02
    -14.002  0.0000E+00  0.9600E+02
    -13.906  0.0000E+00  0.9600E+02
    -13.811  0.0000E+00  0.9600E+02
    -13.716  0.0000E+00  0.9600E+02
    -13.621  0.0000E+00  0.9600E+02
    -13.526  0.0000E+00  0.9600E+02
    -13.431  0.0000E+00  0.9600E+02
    -13.336  0.0000E+00  0.9600E+02
    -13.241  0.0000E+00  0.9600E+02
    -13.146  0.0000E+00  0.9600E+02
    -13.051  0.0000E+00  0.9600E+02
    -12.956  0.0000E+00  0.9600E+02
    -12.861  0.0000E+00  0.9600E+02
    -12.766  0.0000E+00  0.9600E+02
    -12.671  0.0000E+00  0.9600E+02
    -12.576  0.0000E+00  0.9600E+02
    -12.481  0.0000E+00  0.9600E+02
    -12.386  0.0000E+00  0.9600E+02
    -12.291  0.0000E+00  0.9600E+02
    -12.196  0.0000E+00  0.9600E+02
    -12.101  0.0000E+00  0.9600E+02
    -12.006  0.0000E+00  0.9600E+02
    -11.911  0.0000E+00  0.9600E+02
    -11.816  0.0000E+00  0.9600E+02
    -11.720  0.0000E+00  0.9600E+02
    -11.625  0.0000E+00  0.9600E+02
    -11.530  0.0000E+00  0.9600E+02
    -11.435  0.0000E+00  0.9600E+02
    -11.340  0.4093E+02  0.1074E+03
    -11.245  0.0000E+00  0.1120E+03
    -11.150  0.0000E+00  0.1120E+03
    -11.055  0.0000E+00  0.1120E+03
    -10.960  0.0000E+00  0.1120E+03
    -10.865  0.0000E+00  0.1120E+03
    -10.770  0.4124E+01  0.1129E+03
    -10.675  0.4378E+01  0.1155E+03
    -10.580  0.2338E+01  0.1209E+03
    -10.485  0.5194E+01  0.1268E+03
    -10.390  0.0000E+00  0.1291E+03
    -10.295  0.3769E+01  0.1363E+03
    -10.200  0.9902E+01  0.1412E+03
    -10.105  0.0000E+00  0.1442E+03
    -10.010  0.4737E+01  0.1536E+03
     -9.915  0.3140E+01  0.1594E+03
     -9.820  0.0000E+00  0.1600E+03
     -9.725  0.0000E+00  0.1600E+03
     -9.629  0.0000E+00  0.1600E+03
     -9.534  0.0000E+00  0.1600E+03
     -9.439  0.0000E+00  0.1600E+03
     -9.344  0.0000E+00  0.1600E+03
     -9.249  0.0000E+00  0.1600E+03
     -9.154  0.0000E+00  0.1600E+03
     -9.059  0.0000E+00  0.1600E+03
     -8.964  0.0000E+00  0.1600E+03
     -8.869  0.0000E+00  0.1600E+03
     -8.774  0.0000E+00  0.1600E+03
     -8.679  0.0000E+00  0.1600E+03
     -8.584  0.0000E+00  0.1600E+03
     -8.489  0.0000E+00  0.1600E+03
     -8.394  0.0000E+00  0.1600E+03
     -8.299  0.0000E+00  0.1600E+03
     -8.204  0.0000E+00  0.1600E+03
     -8.109  0.0000E+00  0.1600E+03
     -8.014  0.0000E+00  0.1600E+03
     -7.919  0.0000E+00  0.1600E+03
     -7.824  0.0000E+00  0.1600E+03
     -7.729  0.2389E+02  0.1729E+03
     -7.634  0.0000E+00  0.1920E+03
     -7.539  0.0000E+00  0.1920E+03
     -7.443  0.0000E+00  0.1920E+03
     -7.348  0.0000E+00  0.1920E+03
     -7.253  0.0000E+00  0.1920E+03
     -7.158  0.0000E+00  0.1920E+03
     -7.063  0.3764E-14  0.1920E+03
     -6.968  0.0000E+00  0.1921E+03
     -6.873  0.0000E+00  0.1925E+03
     -6.778  0.0000E+00  0.1934E+03
     -6.683  0.3117E+01  0.1937E+03
     -6.588  0.0000E+00  0.1944E+03
     -6.493  0.3071E+01  0.1963E+03
     -6.398  0.3828E+01  0.1980E+03
     -6.303  0.0000E+00  0.1991E+03
     -6.208  0.0000E+00  0.2009E+03
     -6.113  0.0000E+00  0.2031E+03
     -6.018  0.3117E+01  0.2044E+03
     -5.923  0.3087E+01  0.2061E+03
     -5.828  0.1565E+02  0.2113E+03
     -5.733  0.0000E+00  0.2226E+03
     -5.638  0.0000E+00  0.2235E+03
     -5.543  0.1230E+00  0.2236E+03
     -5.448  0.0000E+00  0.2239E+03
     -5.352  0.0000E+00  0.2240E+03
     -5.257  0.0000E+00  0.2240E+03
     -5.162  0.0000E+00  0.2240E+03
     -5.067  0.0000E+00  0.2240E+03
     -4.972  0.0000E+00  0.2240E+03
     -4.877  0.0000E+00  0.2240E+03
     -4.782  0.0000E+00  0.2240E+03
     -4.687  0.0000E+00  0.2240E+03
     -4.592  0.0000E+00  0.2240E+03
     -4.497  0.0000E+00  0.2240E+03
     -4.402  0.0000E+00  0.2240E+03
     -4.307  0.0000E+00  0.2240E+03
     -4.212  0.0000E+00  0.2240E+03
     -4.117  0.0000E+00  0.2240E+03
     -4.022  0.0000E+00  0.2240E+03
     -3.927  0.0000E+00  0.2240E+03
     -3.832  0.0000E+00  0.2240E+03
     -3.737  0.0000E+00  0.2240E+03
     -3.642  0.0000E+00  0.2240E+03
     -3.547  0.2402E+02  0.2412E+03
     -3.452  0.0000E+00  0.2560E+03
     -3.357  0.0000E+00  0.2560E+03
     -3.262  0.0000E+00  0.2560E+03
     -3.166  0.0000E+00  0.2560E+03
     -3.071  0.0000E+00  0.2560E+03
     -2.976  0.0000E+00  0.2560E+03
     -2.881  0.0000E+00  0.2560E+03
     -2.786  0.0000E+00  0.2560E+03
     -2.691  0.0000E+00  0.2560E+03
     -2.596  0.0000E+00  0.2560E+03
     -2.501  0.0000E+00  0.2560E+03
     -2.406  0.0000E+00  0.2560E+03
     -2.311  0.0000E+00  0.2560E+03
     -2.216  0.0000E+00  0.2560E+03
     -2.121  0.1392E-01  0.2560E+03
     -2.026  0.1559E+01  0.2584E+03
     -1.931  0.1559E+01  0.2615E+03
     -1.836  0.6944E+00  0.2635E+03
     -1.741  0.1731E-15  0.2659E+03
     -1.646  0.2381E-01  0.2684E+03
     -1.551  0.3117E+01  0.2724E+03
     -1.456  0.3117E+01  0.2756E+03
     -1.361  0.0000E+00  0.2787E+03
     -1.266  0.0000E+00  0.2796E+03
     -1.171  0.0000E+00  0.2800E+03
     -1.075  0.0000E+00  0.2800E+03
     -0.980  0.6504E+00  0.2807E+03
     -0.885  0.6235E+01  0.2850E+03
     -0.790  0.4339E+01  0.2914E+03
     -0.695  0.8265E+01  0.2969E+03
     -0.600  0.5641E+01  0.3023E+03
     -0.505  0.6235E+01  0.3057E+03
     -0.410  0.6405E+01  0.3091E+03
     -0.315  0.1579E+00  0.3138E+03
     -0.220  0.1212E+01  0.3200E+03
     -0.125  0.2252E+01  0.3273E+03
     -0.030  0.5720E+01  0.3333E+03
      0.065  0.5343E+01  0.3390E+03
      0.160  0.8499E+00  0.3476E+03
      0.255  0.3240E+01  0.3562E+03
      0.350  0.1416E+02  0.3630E+03
      0.445  0.1091E+02  0.3707E+03
      0.540  0.1340E+02  0.3809E+03
      0.635  0.3117E+01  0.3861E+03
      0.730  0.6037E+01  0.3919E+03
      0.825  0.7285E+01  0.3957E+03
      0.920  0.3117E+01  0.3975E+03
      1.015  0.1527E+01  0.3988E+03
      1.111  0.0000E+00  0.3993E+03
      1.206  0.7793E+00  0.3996E+03
      1.301  0.0000E+00  0.3999E+03
      1.396  0.0000E+00  0.3999E+03
      1.491  0.0000E+00  0.4000E+03
      1.586  0.0000E+00  0.4000E+03
      1.681  0.0000E+00  0.4000E+03
      1.776  0.0000E+00  0.4000E+03
      1.871  0.0000E+00  0.4000E+03
      1.966  0.0000E+00  0.4000E+03
      2.061  0.0000E+00  0.4000E+03
      2.156  0.0000E+00  0.4000E+03
      2.251  0.0000E+00  0.4000E+03
      2.346  0.0000E+00  0.4000E+03
      2.441  0.0000E+00  0.4000E+03
      2.536  0.0000E+00  0.4000E+03
      2.631  0.0000E+00  0.4000E+03
      2.726  0.0000E+00  0.4000E+03
      2.821  0.0000E+00  0.4000E+03
      2.916  0.0000E+00  0.4000E+03
      3.011  0.3117E+01  0.4005E+03
      3.106  0.0000E+00  0.4007E+03
      3.202  0.6243E+00  0.4014E+03
      3.297  0.0000E+00  0.4029E+03
      3.392  0.1559E+01  0.4038E+03
      3.487  0.4993E-13  0.4056E+03
      3.582  0.6168E+00  0.4067E+03
      3.677  0.0000E+00  0.4077E+03
      3.772  0.0000E+00  0.4083E+03
      3.867  0.2922E-03  0.4090E+03
      3.962  0.3117E+01  0.4099E+03
      4.057  0.2267E-08  0.4108E+03
      4.152  0.1559E+01  0.4130E+03
      4.247  0.2188E-07  0.4150E+03
      4.342  0.2104E+01  0.4168E+03
      4.437  0.1151E-02  0.4196E+03
      4.532  0.1559E+01  0.4227E+03
      4.627  0.3117E+01  0.4236E+03
      4.722  0.0000E+00  0.4239E+03
      4.817  0.0000E+00  0.4240E+03
      4.912  0.0000E+00  0.4240E+03
      5.007  0.0000E+00  0.4241E+03
      5.102  0.0000E+00  0.4242E+03
      5.197  0.1741E-02  0.4245E+03
      5.292  0.3117E+01  0.4263E+03
      5.388  0.5047E+01  0.4283E+03
      5.483  0.1265E+01  0.4306E+03
      5.578  0.3108E+01  0.4356E+03
      5.673  0.2098E+00  0.4379E+03
      5.768  0.7778E+01  0.4407E+03
      5.863  0.6232E+00  0.4421E+03
      5.958  0.0000E+00  0.4454E+03
      6.053  0.1559E+01  0.4487E+03
      6.148  0.4677E+01  0.4523E+03
      6.243  0.3117E+01  0.4582E+03
      6.338  0.4330E+01  0.4609E+03
      6.433  0.3119E+01  0.4639E+03
      6.528  0.5304E+01  0.4706E+03
      6.623  0.2457E+01  0.4746E+03
      6.718  0.3185E+01  0.4787E+03
      6.813  0.4501E+01  0.4817E+03
      6.908  0.4256E+01  0.4855E+03
      7.003  0.2333E-02  0.4897E+03
      7.098  0.1243E-07  0.4933E+03
      7.193  0.1309E+01  0.4979E+03
      7.288  0.6502E+01  0.5021E+03
      7.383  0.4419E-02  0.5053E+03
      7.478  0.0000E+00  0.5094E+03
      7.574  0.3146E+01  0.5114E+03
      7.669  0.0000E+00  0.5120E+03
      7.764  0.0000E+00  0.5120E+03
      7.859  0.0000E+00  0.5120E+03
      7.954  0.0000E+00  0.5120E+03
      8.049  0.0000E+00  0.5120E+03
      8.144  0.0000E+00  0.5120E+03
      8.239  0.0000E+00  0.5120E+03
      8.334  0.0000E+00  0.5120E+03
      8.429  0.0000E+00  0.5120E+03
      8.524  0.0000E+00  0.5120E+03
      8.619  0.0000E+00  0.5120E+03
      8.714  0.0000E+00  0.5120E+03
      8.809  0.0000E+00  0.5120E+03
      8.904  0.0000E+00  0.5120E+03
