 running on   48 total cores
 distrk:  each k-point on   48 cores,    1 groups
 distr:  one band on   24 cores,    2 groups
 using from now: INCAR     
 vasp.5.4.1 24Jun15 (build Nov 25 2015 16:39:35) complex                        
  
 POSCAR found :  2 types and       2 ions
 scaLAPACK will be used

 ----------------------------------------------------------------------------- 
|                                                                             |
|           W    W    AA    RRRRR   N    N  II  N    N   GGGG   !!!           |
|           W    W   A  A   R    R  NN   N  II  NN   N  G    G  !!!           |
|           W    W  A    A  R    R  N N  N  II  N N  N  G       !!!           |
|           W WW W  AAAAAA  RRRRR   N  N N  II  N  N N  G  GGG   !            |
|           WW  WW  A    A  R   R   N   NN  II  N   NN  G    G                |
|           W    W  A    A  R    R  N    N  II  N    N   GGGG   !!!           |
|                                                                             |
|      For optimal performance we recommend to set                            |
|        NCORE= 4 - approx SQRT( number of cores)                             |
|      NCORE specifies how many cores store one orbital (NPAR=cpu/NCORE).     |
|      This setting can  greatly improve the performance of VASP for DFT.     |
|      The default, NPAR=number of cores might be grossly inefficient         |
|      on modern multi-core architectures or massively parallel machines.     |
|      Do your own testing !!!!                                               |
|      Unfortunately you need to use the default for GW and RPA calculations. |
|      (for HF NCORE is supported but not extensively tested yet)             |
|                                                                             |
 ----------------------------------------------------------------------------- 

 LDA part: xc-table for Pade appr. of Perdew
 found WAVECAR, reading the header
 POSCAR, INCAR and KPOINTS ok, starting setup
 FFT: planning ...
 reading WAVECAR
 the WAVECAR file was read successfully
 initial charge from wavefunction
 entering main loop
       N       E                     dE             d eps       ncg     rms          ort
 gam= 0.000 g(H,U,f)=        NaN       NaN       NaN ort(H,U,f) =       NaN       NaN       NaN
{    9,    0}:  On entry to {   10,    1}:  On entry to 
{    4,    1}:  On entry to 
{    8,    1}:  On entry to {    0,    1}:  On entry to {    9,    1}:  On entry to PZSTEIN parameter number    4 had an illegal value 

{   11,    1}:  On entry to {    4,    0}:  On entry to 
{    2,    0}:  On entry to PZSTEIN parameter number    4 had an illegal value PZSTEIN parameter number    4 had an illegal value {    6,    1}:  On entry to {    3,    3}:  On entry to {    4,    2}:  On entry to 
{    1,    3}:  On entry to {    6,    3}:  On entry to {    3,    2}:  On entry to {   10,    2}:  On entry to {   10,    3}:  On entry to {    2,    3}:  On entry to {    0,    3}:  On entry to {    7,    1}:  On entry to 


{    7,    0}:  On entry to 
{    1,    1}:  On entry to {    1,    0}:  On entry to 
PZSTEIN parameter number    4 had an illegal value {    8,    0}:  On entry to PZSTEIN parameter number    4 had an illegal value 

{    5,    0}:  On entry to 



PZSTEIN parameter number    4 had an illegal value PZSTEIN parameter number    4 had an illegal value PZSTEIN parameter number    4 had an illegal value 




PZSTEIN parameter number    4 had an illegal value PZSTEIN parameter number    4 had an illegal value 

{    3,    1}:  On entry to 
{   10,    0}:  On entry to PZSTEIN parameter number    4 had an illegal value 

{    2,    1}:  On entry to PZSTEIN parameter number    4 had an illegal value 

{    5,    1}:  On entry to PZSTEIN parameter number    4 had an illegal value PZSTEIN parameter number    4 had an illegal value 



PZSTEIN parameter number    4 had an illegal value 
PZSTEIN parameter number    4 had an illegal value 
{    3,    0}:  On entry to {    6,    0}:  On entry to 
{   11,    0}:  On entry to 

PZSTEIN parameter number    4 had an illegal value PZSTEIN parameter number    4 had an illegal value 
PZSTEIN parameter number    4 had an illegal value 


{    0,    0}:  On entry to PZSTEIN parameter number    4 had an illegal value 

PZSTEIN parameter number    4 had an illegal value PZSTEIN parameter number    4 had an illegal value 

PZSTEIN parameter number    4 had an illegal value 

PZSTEIN parameter number    4 had an illegal value 
{    8,    1}:  On entry to {    2,    0}:  On entry to {    3,    0}:  On entry to {    1,    0}:  On entry to 
{    6,    1}:  On entry to {   10,    0}:  On entry to {    8,    0}:  On entry to {    1,    1}:  On entry to {    9,    0}:  On entry to {    2,    1}:  On entry to 

PZUNMTR parameter number    5 had an illegal value 




PZUNMTR parameter number    5 had an illegal value PZUNMTR parameter number    5 had an illegal value PZUNMTR parameter number    5 had an illegal value 

PZUNMTR parameter number    5 had an illegal value 


PZUNMTR parameter number    5 had an illegal value 
{    7,    0}:  On entry to 
{   11,    0}:  On entry to PZUNMTR parameter number    5 had an illegal value {    5,    0}:  On entry to 
 GSD%LWWORK         796        1740         294          28

 GSD%LWWORK         796        1740         294          28
 ERROR in subspace rotation PSSYEVX: not enough eigenvalues found         405
PZUNMTR parameter number    5 had an illegal value  ERROR in subspace rotation PSSYEVX: not enough eigenvalues found         405


          28
 GSD%LWWORK         796        1740         294          28
          28
PZUNMTR parameter number    5 had an illegal value  ERROR in subspace rotation PSSYEVX: not enough eigenvalues found         405
 GSD%LWWORK         796        1740         294          28
 GSD%LWWORK         796        1740         294          28

 ERROR in subspace rotation PSSYEVX: not enough eigenvalues found         405
 GSD%LWWORK         796        1740         294          28
          28
 GSD%LWWORK         796        1740         294          28
          28
 ERROR in subspace rotation PSSYEVX: not enough eigenvalues found         405
 ERROR in subspace rotation PSSYEVX: not enough eigenvalues found         405
 GSD%LWWORK         796        1740         294          28
          28
 ERROR in subspace rotation PSSYEVX: not enough eigenvalues found         405
 ERROR in subspace rotation PSSYEVX: not enough eigenvalues found         405
          28
          28
 GSD%LWWORK         796        1740         294          28
 ERROR in subspace rotation PSSYEVX: not enough eigenvalues found         405
          28
{    5,    1}:  On entry to {    7,    1}:  On entry to 

{    3,    1}:  On entry to PZUNMTR parameter number    5 had an illegal value PZUNMTR parameter number    5 had an illegal value 
{   11,    1}:  On entry to 


PZUNMTR parameter number    5 had an illegal value PZUNMTR parameter number    5 had an illegal value 

{    6,    0}:  On entry to {    4,    0}:  On entry to 

PZUNMTR parameter number    5 had an illegal value PZUNMTR parameter number    5 had an illegal value 

{    9,    1}:  On entry to 

 GSD%LWWORK         796        1740         294          28
PZUNMTR parameter number    5 had an illegal value  GSD%LWWORK         796        1740         294          28
 ERROR in subspace rotation PSSYEVX: not enough eigenvalues found         405
{   10,    1}:  On entry to           28
 ERROR in subspace rotation PSSYEVX: not enough eigenvalues found         405

 GSD%LWWORK         796        1740         294          28
 GSD%LWWORK         796        1740         294          28

          28
 GSD%LWWORK         796        1740         294          28
PZUNMTR parameter number    5 had an illegal value PZUNMTR parameter number    5 had an illegal value  ERROR in subspace rotation PSSYEVX: not enough eigenvalues found         405
 ERROR in subspace rotation PSSYEVX: not enough eigenvalues found         405


          28
          28
 ERROR in subspace rotation PSSYEVX: not enough eigenvalues found         405
 GSD%LWWORK         796        1740         294          28
          28
 GSD%LWWORK         796        1740         294          28
 ERROR in subspace rotation PSSYEVX: not enough eigenvalues found         405
 ERROR in subspace rotation PSSYEVX: not enough eigenvalues found         405
          28
          28

 GSD%LWWORK         796        1740         294          28
 GSD%LWWORK         796        1740         294          28
{    4,    1}:  On entry to PZUNMTR parameter number    5 had an illegal value  ERROR in subspace rotation PSSYEVX: not enough eigenvalues found         405

 ERROR in subspace rotation PSSYEVX: not enough eigenvalues found         405

          28
          28
PZUNMTR parameter number    5 had an illegal value {    0,    1}:  On entry to 

PZUNMTR parameter number    5 had an illegal value PZUNMTR parameter number    5 had an illegal value 

{    0,    0}:  On entry to PZUNMTR parameter number    5 had an illegal value 
          28
 GSD%LWWORK         796        1740         294          28
 ERROR in subspace rotation PSSYEVX: not enough eigenvalues found         405
          28
 GSD%LWWORK         796        1740         294          28
 ERROR in subspace rotation PSSYEVX: not enough eigenvalues found         405
 GSD%LWWORK         796        1740         294          28
          28
 GSD%LWWORK         796        1740         294          28
 ERROR in subspace rotation PSSYEVX: not enough eigenvalues found         405
 ERROR in subspace rotation PSSYEVX: not enough eigenvalues found         405
          28
 GSD%LWWORK         796        1740         294          28
          28
 ERROR in subspace rotation PSSYEVX: not enough eigenvalues found         405
          28

PZUNMTR parameter number    5 had an illegal value 
 GSD%LWWORK         796        1740         294          28
 ERROR in subspace rotation PSSYEVX: not enough eigenvalues found         405
          28

{    9,    3}:  On entry to {    7,    2}:  On entry to PZSTEIN parameter number    4 had an illegal value {    0,    2}:  On entry to 




PZSTEIN parameter number    4 had an illegal value PZSTEIN parameter number    4 had an illegal value 

PZSTEIN parameter number    4 had an illegal value 
{    8,    2}:  On entry to 
PZSTEIN parameter number    4 had an illegal value PZSTEIN parameter number    4 had an illegal value 


{    4,    3}:  On entry to PZSTEIN parameter number    4 had an illegal value 

{    5,    2}:  On entry to PZSTEIN parameter number    4 had an illegal value 


PZSTEIN parameter number    4 had an illegal value {    6,    2}:  On entry to 
PZSTEIN parameter number    4 had an illegal value 

PZSTEIN parameter number    4 had an illegal value 
{    7,    3}:  On entry to 

{    2,    2}:  On entry to PZSTEIN parameter number    4 had an illegal value 

PZSTEIN parameter number    4 had an illegal value PZSTEIN parameter number    4 had an illegal value 

{   11,    3}:  On entry to 
{    1,    2}:  On entry to PZSTEIN parameter number    4 had an illegal value {    5,    3}:  On entry to 



PZSTEIN parameter number    4 had an illegal value PZSTEIN parameter number    4 had an illegal value 

{   11,    2}:  On entry to 

PZSTEIN parameter number    4 had an illegal value {    9,    2}:  On entry to 
PZSTEIN parameter number    4 had an illegal value 

PZSTEIN parameter number    4 had an illegal value PZSTEIN parameter number    4 had an illegal value 

{    8,    3}:  On entry to 

PZSTEIN parameter number    4 had an illegal value 
PZSTEIN parameter number    4 had an illegal value PZSTEIN parameter number    4 had an illegal value 

{    8,    3}:  On entry to {    9,    2}:  On entry to {    4,    3}:  On entry to {    3,    2}:  On entry to {    3,    3}:  On entry to 


PZUNMTR parameter number    5 had an illegal value {    6,    3}:  On entry to PZUNMTR parameter number    5 had an illegal value {    1,    3}:  On entry to {    6,    2}:  On entry to {   11,    3}:  On entry to 
{    5,    2}:  On entry to 
PZUNMTR parameter number    5 had an illegal value PZUNMTR parameter number    5 had an illegal value 


{   11,    2}:  On entry to PZUNMTR parameter number    5 had an illegal value 

{    9,    3}:  On entry to PZUNMTR parameter number    5 had an illegal value 

{    0,    2}:  On entry to PZUNMTR parameter number    5 had an illegal value 

{    2,    2}:  On entry to PZUNMTR parameter number    5 had an illegal value 

PZUNMTR parameter number    5 had an illegal value 
 GSD%LWWORK         796        1740         294          28
 GSD%LWWORK         796        1740         294          28
 GSD%LWWORK         796        1740         294          28
 GSD%LWWORK         796        1740         294          28
 ERROR in subspace rotation PSSYEVX: not enough eigenvalues found         405
 ERROR in subspace rotation PSSYEVX: not enough eigenvalues found         405
 ERROR in subspace rotation PSSYEVX: not enough eigenvalues found         405
 ERROR in subspace rotation PSSYEVX: not enough eigenvalues found         405
          28
          28
          28
 GSD%LWWORK         796        1740         294          28
          28
{    5,    3}:  On entry to  ERROR in subspace rotation PSSYEVX: not enough eigenvalues found         405
 GSD%LWWORK         796        1740         294          28
          28
 ERROR in subspace rotation PSSYEVX: not enough eigenvalues found         405

          28
 GSD%LWWORK         796        1740         294          28
PZUNMTR parameter number    5 had an illegal value {    0,    3}:  On entry to  ERROR in subspace rotation PSSYEVX: not enough eigenvalues found         405


          28
PZUNMTR parameter number    5 had an illegal value 
{   10,    2}:  On entry to 
{   10,    3}:  On entry to PZUNMTR parameter number    5 had an illegal value 

{    1,    2}:  On entry to PZUNMTR parameter number    5 had an illegal value 

 GSD%LWWORK         796        1740         294          28
PZUNMTR parameter number    5 had an illegal value  ERROR in subspace rotation PSSYEVX: not enough eigenvalues found         405
 GSD%LWWORK         796        1740         294          28
{    8,    2}:  On entry to           28
 ERROR in subspace rotation PSSYEVX: not enough eigenvalues found         405

          28
 GSD%LWWORK         796        1740         294          28
PZUNMTR parameter number    5 had an illegal value 

 ERROR in subspace rotation PSSYEVX: not enough eigenvalues found         405
PZUNMTR parameter number    5 had an illegal value           28

 GSD%LWWORK         796        1740         294          28

 ERROR in subspace rotation PSSYEVX: not enough eigenvalues found         405
          28
PZUNMTR parameter number    5 had an illegal value 
PZUNMTR parameter number    5 had an illegal value {    2,    3}:  On entry to 
 GSD%LWWORK         796        1740         294          28

 ERROR in subspace rotation PSSYEVX: not enough eigenvalues found         405
PZUNMTR parameter number    5 had an illegal value           28
 GSD%LWWORK         796        1740         294          28

{    4,    2}:  On entry to  ERROR in subspace rotation PSSYEVX: not enough eigenvalues found         405

          28
PZUNMTR parameter number    5 had an illegal value  GSD%LWWORK         796        1740         294          28

{    7,    2}:  On entry to  ERROR in subspace rotation PSSYEVX: not enough eigenvalues found         405

          28
PZUNMTR parameter number    5 had an illegal value  GSD%LWWORK         796        1740         294          28


 ERROR in subspace rotation PSSYEVX: not enough eigenvalues found         405
PZUNMTR parameter number    5 had an illegal value           28

 GSD%LWWORK         796        1740         294          28
 ERROR in subspace rotation PSSYEVX: not enough eigenvalues found         405
          28

 GSD%LWWORK         796        1740         294          28
 ERROR in subspace rotation PSSYEVX: not enough eigenvalues found         405
          28
{    7,    3}:  On entry to  GSD%LWWORK         796        1740         294          28


 ERROR in subspace rotation PSSYEVX: not enough eigenvalues found         405
PZUNMTR parameter number    5 had an illegal value           28

PZUNMTR parameter number    5 had an illegal value  GSD%LWWORK         796        1740         294          28

 ERROR in subspace rotation PSSYEVX: not enough eigenvalues found         405
          28


 GSD%LWWORK         796        1740         294          28
 ERROR in subspace rotation PSSYEVX: not enough eigenvalues found         405
          28
 GSD%LWWORK         796        1740         294          28
 GSD%LWWORK         796        1740         294          28
 ERROR in subspace rotation PSSYEVX: not enough eigenvalues found         405
 ERROR in subspace rotation PSSYEVX: not enough eigenvalues found         405
          28
          28
 GSD%LWWORK         796        1740         294          28
 ERROR in subspace rotation PSSYEVX: not enough eigenvalues found         405
          28
 GSD%LWWORK         796        1740         294          28
 ERROR in subspace rotation PSSYEVX: not enough eigenvalues found         405
          28
Application 23558589 resources: utime ~68896s, stime ~249s, Rss ~170460, inblocks ~646664, outblocks ~432093
