       N       E                     dE             d eps       ncg     rms          rms(c)
DAV:   1     0.329411535828E+03    0.32941E+03   -0.18641E+04 18720   0.798E+02
DAV:   2    -0.137026968765E+02   -0.34311E+03   -0.31637E+03 20848   0.203E+02
DAV:   3    -0.531078071226E+02   -0.39405E+02   -0.38828E+02 24068   0.779E+01
DAV:   4    -0.547884338840E+02   -0.16806E+01   -0.16778E+01 24792   0.184E+01
DAV:   5    -0.548322107050E+02   -0.43777E-01   -0.43771E-01 25908   0.279E+00
DAV:   6    -0.548337739999E+02   -0.15633E-02   -0.15633E-02 25564   0.491E-01
DAV:   7    -0.548338149692E+02   -0.40969E-04   -0.40969E-04 26820   0.646E-02
DAV:   8    -0.548338154048E+02   -0.43555E-06   -0.43555E-06 21588   0.764E-03
   1 F= -.54833815E+02 E0= -.54833815E+02  d E =-.593328E-35
