  96  96   0   0
  0.2080188E+02  0.1257760E-08  0.1245754E-08  0.1274818E-08  0.5000000E-15
  1.000000000000000E-004
  CAR 
 MAPbI3-Cubic                            
      8.91993170    -19.57705820  301      1.43947186      1.00000000
    -19.577  0.0000E+00  0.0000E+00
    -19.482  0.0000E+00  0.0000E+00
    -19.387  0.0000E+00  0.0000E+00
    -19.292  0.0000E+00  0.0000E+00
    -19.197  0.0000E+00  0.0000E+00
    -19.102  0.0000E+00  0.0000E+00
    -19.007  0.0000E+00  0.0000E+00
    -18.912  0.0000E+00  0.0000E+00
    -18.817  0.0000E+00  0.0000E+00
    -18.722  0.0000E+00  0.0000E+00
    -18.627  0.0000E+00  0.0000E+00
    -18.532  0.0000E+00  0.0000E+00
    -18.437  0.0000E+00  0.0000E+00
    -18.342  0.0000E+00  0.0000E+00
    -18.247  0.0000E+00  0.1600E+02
    -18.152  0.0000E+00  0.1600E+02
    -18.057  0.0000E+00  0.1600E+02
    -17.962  0.0000E+00  0.1600E+02
    -17.867  0.0000E+00  0.1600E+02
    -17.772  0.0000E+00  0.1600E+02
    -17.677  0.0000E+00  0.1600E+02
    -17.582  0.0000E+00  0.1600E+02
    -17.487  0.0000E+00  0.1600E+02
    -17.392  0.0000E+00  0.1600E+02
    -17.297  0.0000E+00  0.1600E+02
    -17.202  0.0000E+00  0.1600E+02
    -17.107  0.0000E+00  0.1600E+02
    -17.012  0.0000E+00  0.1600E+02
    -16.917  0.0000E+00  0.1600E+02
    -16.822  0.0000E+00  0.1600E+02
    -16.727  0.0000E+00  0.1600E+02
    -16.632  0.0000E+00  0.1600E+02
    -16.537  0.0000E+00  0.1600E+02
    -16.442  0.0000E+00  0.1600E+02
    -16.347  0.0000E+00  0.1600E+02
    -16.252  0.0000E+00  0.1600E+02
    -16.157  0.0000E+00  0.1600E+02
    -16.062  0.0000E+00  0.1600E+02
    -15.967  0.0000E+00  0.1600E+02
    -15.872  0.0000E+00  0.1600E+02
    -15.777  0.0000E+00  0.1600E+02
    -15.682  0.0000E+00  0.1600E+02
    -15.587  0.0000E+00  0.1600E+02
    -15.492  0.0000E+00  0.1600E+02
    -15.397  0.0000E+00  0.1600E+02
    -15.303  0.0000E+00  0.1600E+02
    -15.208  0.0000E+00  0.1600E+02
    -15.113  0.0000E+00  0.1600E+02
    -15.018  0.1684E+03  0.8000E+02
    -14.923  0.0000E+00  0.9600E+02
    -14.828  0.0000E+00  0.9600E+02
    -14.733  0.0000E+00  0.9600E+02
    -14.638  0.0000E+00  0.9600E+02
    -14.543  0.0000E+00  0.9600E+02
    -14.448  0.0000E+00  0.9600E+02
    -14.353  0.0000E+00  0.9600E+02
    -14.258  0.0000E+00  0.9600E+02
    -14.163  0.0000E+00  0.9600E+02
    -14.068  0.0000E+00  0.9600E+02
    -13.973  0.0000E+00  0.9600E+02
    -13.878  0.0000E+00  0.9600E+02
    -13.783  0.0000E+00  0.9600E+02
    -13.688  0.0000E+00  0.9600E+02
    -13.593  0.0000E+00  0.9600E+02
    -13.498  0.0000E+00  0.9600E+02
    -13.403  0.0000E+00  0.9600E+02
    -13.308  0.0000E+00  0.9600E+02
    -13.213  0.0000E+00  0.9600E+02
    -13.118  0.0000E+00  0.9600E+02
    -13.023  0.0000E+00  0.9600E+02
    -12.928  0.0000E+00  0.9600E+02
    -12.833  0.0000E+00  0.9600E+02
    -12.738  0.0000E+00  0.9600E+02
    -12.643  0.0000E+00  0.9600E+02
    -12.548  0.0000E+00  0.9600E+02
    -12.453  0.0000E+00  0.9600E+02
    -12.358  0.0000E+00  0.9600E+02
    -12.263  0.0000E+00  0.9600E+02
    -12.168  0.0000E+00  0.9600E+02
    -12.073  0.0000E+00  0.9600E+02
    -11.978  0.0000E+00  0.9600E+02
    -11.883  0.0000E+00  0.9600E+02
    -11.788  0.0000E+00  0.9600E+02
    -11.693  0.0000E+00  0.9600E+02
    -11.598  0.0000E+00  0.9600E+02
    -11.503  0.0000E+00  0.9600E+02
    -11.408  0.0000E+00  0.9600E+02
    -11.313  0.4282E+01  0.1044E+03
    -11.218  0.0000E+00  0.1120E+03
    -11.123  0.0000E+00  0.1120E+03
    -11.028  0.0000E+00  0.1120E+03
    -10.933  0.0000E+00  0.1120E+03
    -10.838  0.7798E+00  0.1121E+03
    -10.743  0.0000E+00  0.1134E+03
    -10.648  0.4679E+01  0.1172E+03
    -10.553  0.2969E+01  0.1227E+03
    -10.458  0.3756E-11  0.1280E+03
    -10.363  0.2486E+01  0.1298E+03
    -10.268  0.5960E-01  0.1372E+03
    -10.173  0.7406E+00  0.1423E+03
    -10.078  0.6217E+01  0.1448E+03
     -9.983  0.3121E+01  0.1550E+03
     -9.888  0.0000E+00  0.1600E+03
     -9.793  0.0000E+00  0.1600E+03
     -9.698  0.0000E+00  0.1600E+03
     -9.603  0.0000E+00  0.1600E+03
     -9.508  0.0000E+00  0.1600E+03
     -9.413  0.0000E+00  0.1600E+03
     -9.318  0.0000E+00  0.1600E+03
     -9.223  0.0000E+00  0.1600E+03
     -9.128  0.0000E+00  0.1600E+03
     -9.033  0.0000E+00  0.1600E+03
     -8.938  0.0000E+00  0.1600E+03
     -8.843  0.0000E+00  0.1600E+03
     -8.748  0.0000E+00  0.1600E+03
     -8.653  0.0000E+00  0.1600E+03
     -8.558  0.0000E+00  0.1600E+03
     -8.463  0.0000E+00  0.1600E+03
     -8.368  0.0000E+00  0.1600E+03
     -8.273  0.0000E+00  0.1600E+03
     -8.178  0.0000E+00  0.1600E+03
     -8.083  0.0000E+00  0.1600E+03
     -7.988  0.0000E+00  0.1600E+03
     -7.893  0.0000E+00  0.1600E+03
     -7.798  0.0000E+00  0.1600E+03
     -7.703  0.2000E+02  0.1732E+03
     -7.608  0.0000E+00  0.1920E+03
     -7.513  0.0000E+00  0.1920E+03
     -7.418  0.0000E+00  0.1920E+03
     -7.323  0.0000E+00  0.1920E+03
     -7.228  0.0000E+00  0.1920E+03
     -7.133  0.0000E+00  0.1920E+03
     -7.038  0.0000E+00  0.1921E+03
     -6.943  0.0000E+00  0.1921E+03
     -6.848  0.0000E+00  0.1925E+03
     -6.753  0.0000E+00  0.1934E+03
     -6.658  0.0000E+00  0.1941E+03
     -6.563  0.5445E-11  0.1944E+03
     -6.468  0.0000E+00  0.1964E+03
     -6.373  0.1560E+01  0.1987E+03
     -6.278  0.1560E+01  0.1997E+03
     -6.183  0.1977E+01  0.2011E+03
     -6.088  0.0000E+00  0.2033E+03
     -5.993  0.2293E+01  0.2048E+03
     -5.899  0.3395E-08  0.2063E+03
     -5.804  0.1561E+01  0.2141E+03
     -5.709  0.0000E+00  0.2226E+03
     -5.614  0.0000E+00  0.2235E+03
     -5.519  0.0000E+00  0.2239E+03
     -5.424  0.0000E+00  0.2239E+03
     -5.329  0.0000E+00  0.2240E+03
     -5.234  0.0000E+00  0.2240E+03
     -5.139  0.0000E+00  0.2240E+03
     -5.044  0.0000E+00  0.2240E+03
     -4.949  0.0000E+00  0.2240E+03
     -4.854  0.0000E+00  0.2240E+03
     -4.759  0.0000E+00  0.2240E+03
     -4.664  0.0000E+00  0.2240E+03
     -4.569  0.0000E+00  0.2240E+03
     -4.474  0.0000E+00  0.2240E+03
     -4.379  0.0000E+00  0.2240E+03
     -4.284  0.0000E+00  0.2240E+03
     -4.189  0.0000E+00  0.2240E+03
     -4.094  0.0000E+00  0.2240E+03
     -3.999  0.0000E+00  0.2240E+03
     -3.904  0.0000E+00  0.2240E+03
     -3.809  0.0000E+00  0.2240E+03
     -3.714  0.0000E+00  0.2240E+03
     -3.619  0.1560E+01  0.2242E+03
     -3.524  0.2779E+02  0.2474E+03
     -3.429  0.0000E+00  0.2560E+03
     -3.334  0.0000E+00  0.2560E+03
     -3.239  0.0000E+00  0.2560E+03
     -3.144  0.0000E+00  0.2560E+03
     -3.049  0.0000E+00  0.2560E+03
     -2.954  0.0000E+00  0.2560E+03
     -2.859  0.0000E+00  0.2560E+03
     -2.764  0.0000E+00  0.2560E+03
     -2.669  0.0000E+00  0.2560E+03
     -2.574  0.0000E+00  0.2560E+03
     -2.479  0.0000E+00  0.2560E+03
     -2.384  0.0000E+00  0.2560E+03
     -2.289  0.0000E+00  0.2560E+03
     -2.194  0.0000E+00  0.2560E+03
     -2.099  0.4600E+01  0.2566E+03
     -2.004  0.1520E+01  0.2587E+03
     -1.909  0.7798E+00  0.2616E+03
     -1.814  0.1556E+01  0.2637E+03
     -1.719  0.3119E+01  0.2663E+03
     -1.624  0.2999E+01  0.2692E+03
     -1.529  0.7540E+00  0.2727E+03
     -1.434  0.3119E+01  0.2763E+03
     -1.339  0.3119E+01  0.2791E+03
     -1.244  0.0000E+00  0.2799E+03
     -1.149  0.0000E+00  0.2800E+03
     -1.054  0.0000E+00  0.2800E+03
     -0.959  0.1560E+01  0.2813E+03
     -0.864  0.2969E+01  0.2856E+03
     -0.769  0.5530E+01  0.2929E+03
     -0.674  0.3399E+01  0.2985E+03
     -0.579  0.3123E+01  0.3030E+03
     -0.484  0.3119E+01  0.3060E+03
     -0.389  0.8684E+01  0.3104E+03
     -0.294  0.2315E+01  0.3149E+03
     -0.199  0.3827E+01  0.3216E+03
     -0.104  0.3902E+01  0.3290E+03
     -0.009  0.5026E+01  0.3346E+03
      0.086  0.5971E+01  0.3412E+03
      0.181  0.4579E+01  0.3489E+03
      0.276  0.4115E+01  0.3585E+03
      0.371  0.0000E+00  0.3654E+03
      0.466  0.1666E+02  0.3726E+03
      0.561  0.5521E-01  0.3813E+03
      0.656  0.1580E+01  0.3880E+03
      0.751  0.1560E+01  0.3930E+03
      0.846  0.1553E+01  0.3961E+03
      0.941  0.1924E+01  0.3977E+03
      1.036  0.0000E+00  0.3993E+03
      1.131  0.0000E+00  0.3993E+03
      1.226  0.0000E+00  0.3998E+03
      1.321  0.0000E+00  0.3999E+03
      1.416  0.0000E+00  0.4000E+03
      1.511  0.0000E+00  0.4000E+03
      1.606  0.0000E+00  0.4000E+03
      1.701  0.0000E+00  0.4000E+03
      1.796  0.0000E+00  0.4000E+03
      1.891  0.0000E+00  0.4000E+03
      1.986  0.0000E+00  0.4000E+03
      2.081  0.0000E+00  0.4000E+03
      2.176  0.0000E+00  0.4000E+03
      2.271  0.0000E+00  0.4000E+03
      2.366  0.0000E+00  0.4000E+03
      2.461  0.0000E+00  0.4000E+03
      2.556  0.0000E+00  0.4000E+03
      2.651  0.0000E+00  0.4000E+03
      2.746  0.0000E+00  0.4000E+03
      2.841  0.0000E+00  0.4000E+03
      2.936  0.0000E+00  0.4000E+03
      3.031  0.7037E-02  0.4005E+03
      3.126  0.0000E+00  0.4007E+03
      3.221  0.6238E+01  0.4024E+03
      3.316  0.1664E+00  0.4031E+03
      3.411  0.0000E+00  0.4041E+03
      3.506  0.0000E+00  0.4059E+03
      3.600  0.0000E+00  0.4067E+03
      3.695  0.0000E+00  0.4077E+03
      3.790  0.0000E+00  0.4083E+03
      3.885  0.0000E+00  0.4093E+03
      3.980  0.3006E+01  0.4107E+03
      4.075  0.0000E+00  0.4116E+03
      4.170  0.3127E+01  0.4139E+03
      4.265  0.1804E+00  0.4154E+03
      4.360  0.3123E+01  0.4176E+03
      4.455  0.3119E+01  0.4207E+03
      4.550  0.0000E+00  0.4227E+03
      4.645  0.0000E+00  0.4239E+03
      4.740  0.0000E+00  0.4240E+03
      4.835  0.0000E+00  0.4240E+03
      4.930  0.0000E+00  0.4240E+03
      5.025  0.0000E+00  0.4241E+03
      5.120  0.0000E+00  0.4242E+03
      5.215  0.3119E+01  0.4248E+03
      5.310  0.7971E+00  0.4267E+03
      5.405  0.1755E-02  0.4289E+03
      5.500  0.3973E+01  0.4322E+03
      5.595  0.1560E+01  0.4366E+03
      5.690  0.3091E+01  0.4387E+03
      5.785  0.1832E-07  0.4411E+03
      5.880  0.1230E-06  0.4424E+03
      5.975  0.4452E+01  0.4463E+03
      6.070  0.4679E+01  0.4495E+03
      6.165  0.8231E-02  0.4532E+03
      6.260  0.6249E+01  0.4585E+03
      6.355  0.6238E+01  0.4616E+03
      6.450  0.5843E+01  0.4656E+03
      6.545  0.2502E+01  0.4716E+03
      6.640  0.1170E+02  0.4764E+03
      6.735  0.1839E+01  0.4790E+03
      6.830  0.4282E+01  0.4831E+03
      6.925  0.3334E+01  0.4873E+03
      7.020  0.3291E+01  0.4900E+03
      7.115  0.8528E+01  0.4938E+03
      7.210  0.3032E+01  0.4985E+03
      7.305  0.2339E+01  0.5027E+03
      7.400  0.0000E+00  0.5067E+03
      7.495  0.4679E+01  0.5107E+03
      7.590  0.0000E+00  0.5119E+03
      7.685  0.0000E+00  0.5120E+03
      7.780  0.0000E+00  0.5120E+03
      7.875  0.0000E+00  0.5120E+03
      7.970  0.0000E+00  0.5120E+03
      8.065  0.0000E+00  0.5120E+03
      8.160  0.0000E+00  0.5120E+03
      8.255  0.0000E+00  0.5120E+03
      8.350  0.0000E+00  0.5120E+03
      8.445  0.0000E+00  0.5120E+03
      8.540  0.0000E+00  0.5120E+03
      8.635  0.0000E+00  0.5120E+03
      8.730  0.0000E+00  0.5120E+03
      8.825  0.0000E+00  0.5120E+03
      8.920  0.0000E+00  0.5120E+03
