       N       E                     dE             d eps       ncg     rms          rms(c)
DAV:   1     0.360215006508E+04    0.36022E+04   -0.18948E+05  7176   0.170E+03
DAV:   2     0.197335025403E+03   -0.34048E+04   -0.32143E+04  8016   0.355E+02
DAV:   3    -0.398634718747E+03   -0.59597E+03   -0.58735E+03  9464   0.171E+02
DAV:   4    -0.438671385004E+03   -0.40037E+02   -0.39866E+02  9640   0.489E+01
DAV:   5    -0.440170567812E+03   -0.14992E+01   -0.14970E+01  9776   0.915E+00    0.297E+01
DAV:   6    -0.419552582307E+03    0.20618E+02   -0.41658E+01  9560   0.103E+01    0.157E+01
DAV:   7    -0.417075267225E+03    0.24773E+01   -0.14657E+01 10200   0.638E+00    0.783E+00
DAV:   8    -0.416904398515E+03    0.17087E+00   -0.30329E+00  8656   0.318E+00    0.183E+00
DAV:   9    -0.416832185393E+03    0.72213E-01   -0.74555E-01  9304   0.175E+00    0.726E-01
DAV:  10    -0.416844529391E+03   -0.12344E-01   -0.11331E-01  9048   0.608E-01    0.470E-01
DAV:  11    -0.416844176707E+03    0.35268E-03   -0.14270E-02  9800   0.271E-01    0.200E-01
DAV:  12    -0.416845548079E+03   -0.13714E-02   -0.89764E-03  9864   0.152E-01    0.103E-01
DAV:  13    -0.416845721711E+03   -0.17363E-03   -0.12319E-03  8448   0.754E-02    0.727E-02
DAV:  14    -0.416845763610E+03   -0.41898E-04   -0.27312E-04  8408   0.287E-02    0.318E-02
DAV:  15    -0.416845805961E+03   -0.42351E-04   -0.15301E-04  8264   0.204E-02    0.122E-02
DAV:  16    -0.416845809417E+03   -0.34559E-05   -0.12668E-05 10600   0.692E-03    0.121E-02
DAV:  17    -0.416845809152E+03    0.26502E-06   -0.38135E-06  8448   0.351E-03    0.516E-03
DAV:  18    -0.416845809270E+03   -0.11805E-06   -0.79690E-06 10168   0.448E-03    0.375E-03
DAV:  19    -0.416845809259E+03    0.10812E-07   -0.82517E-07  8640   0.209E-03    0.221E-03
DAV:  20    -0.416845809274E+03   -0.15090E-07   -0.47116E-07  9624   0.105E-03    0.399E-04
DAV:  21    -0.416845809301E+03   -0.27198E-07   -0.39115E-08  8616   0.436E-04    0.265E-04
DAV:  22    -0.416845809296E+03    0.51878E-08   -0.36772E-09  7632   0.171E-04    0.256E-04
DAV:  23    -0.416845809301E+03   -0.50532E-08   -0.81254E-11  8392   0.114E-04    0.197E-04
DAV:  24    -0.416845809301E+03    0.42564E-09    0.86749E-10  8392   0.750E-05    0.190E-04
DAV:  25    -0.416845809298E+03    0.26594E-08    0.22341E-09  6248   0.449E-05    0.186E-04
DAV:  26    -0.416845809298E+03   -0.12733E-09    0.22867E-09  4808   0.252E-05    0.185E-04
DAV:  27    -0.416845809299E+03   -0.10332E-08    0.17403E-09  4304   0.232E-05    0.183E-04
DAV:  28    -0.416845809300E+03   -0.28012E-09    0.21572E-09  4232   0.210E-05    0.183E-04
DAV:  29    -0.416845809300E+03   -0.36380E-11    0.20506E-09  4208   0.128E-05    0.183E-04
DAV:  30    -0.416845809299E+03    0.16735E-09    0.15352E-09  4208   0.720E-06    0.183E-04
DAV:  31    -0.416845809299E+03   -0.14552E-10    0.17050E-09  4208   0.613E-06    0.183E-04
DAV:  32    -0.416845809299E+03    0.72760E-11    0.14654E-09  4208   0.400E-06    0.183E-04
DAV:  33    -0.416845809299E+03    0.21828E-09    0.99092E-10  4208   0.351E-06    0.183E-04
DAV:  34    -0.416845809299E+03   -0.54570E-10    0.12571E-09  4208   0.302E-06    0.183E-04
DAV:  35    -0.416845809300E+03   -0.31650E-09    0.12294E-09  4184   0.168E-06    0.183E-04
DAV:  36    -0.416845809299E+03    0.51659E-09    0.94825E-10  4152   0.200E-06    0.183E-04
DAV:  37    -0.416845809299E+03   -0.30559E-09    0.10981E-09  4080   0.977E-07    0.183E-04
DAV:  38    -0.416845809300E+03   -0.69122E-10    0.11772E-09  4048   0.973E-07    0.183E-04
DAV:  39    -0.416845809300E+03   -0.69122E-10    0.97110E-10  4016   0.382E-07
   1 F= -.41684581E+03 E0= -.41684581E+03  d E =0.000000E+00
