 vasp.5.4.1 24Jun15 (build Nov 25 2015 16:01:35) complex                        
  
 executed on         CrayXC-Intel date 2016.07.12  03:58:44
 running on   96 total cores
 distrk:  each k-point on   24 cores,    4 groups
 distr:  one band on NCORES_PER_BAND=   3 cores,    8 groups


--------------------------------------------------------------------------------------------------------


 INCAR:
 POTCAR:    PAW_PBE C 08Apr2002                   
 POTCAR:    PAW_PBE N 08Apr2002                   
 POTCAR:    PAW_PBE H 15Jun2001                   
 POTCAR:    PAW_PBE Pb_d 06Sep2000                
 POTCAR:    PAW_PBE I 08Apr2002                   

 ----------------------------------------------------------------------------- 
|                                                                             |
|           W    W    AA    RRRRR   N    N  II  N    N   GGGG   !!!           |
|           W    W   A  A   R    R  NN   N  II  NN   N  G    G  !!!           |
|           W    W  A    A  R    R  N N  N  II  N N  N  G       !!!           |
|           W WW W  AAAAAA  RRRRR   N  N N  II  N  N N  G  GGG   !            |
|           WW  WW  A    A  R   R   N   NN  II  N   NN  G    G                |
|           W    W  A    A  R    R  N    N  II  N    N   GGGG   !!!           |
|                                                                             |
|      For optimal performance we recommend to set                            |
|        NCORE= 4 - approx SQRT( number of cores)                             |
|      NCORE specifies how many cores store one orbital (NPAR=cpu/NCORE).     |
|      This setting can  greatly improve the performance of VASP for DFT.     |
|      The default, NPAR=number of cores might be grossly inefficient         |
|      on modern multi-core architectures or massively parallel machines.     |
|      Do your own testing !!!!                                               |
|      Unfortunately you need to use the default for GW and RPA calculations. |
|      (for HF NCORE is supported but not extensively tested yet)             |
|                                                                             |
 ----------------------------------------------------------------------------- 


 ----------------------------------------------------------------------------- 
|                                                                             |
|           W    W    AA    RRRRR   N    N  II  N    N   GGGG   !!!           |
|           W    W   A  A   R    R  NN   N  II  NN   N  G    G  !!!           |
|           W    W  A    A  R    R  N N  N  II  N N  N  G       !!!           |
|           W WW W  AAAAAA  RRRRR   N  N N  II  N  N N  G  GGG   !            |
|           WW  WW  A    A  R   R   N   NN  II  N   NN  G    G                |
|           W    W  A    A  R    R  N    N  II  N    N   GGGG   !!!           |
|                                                                             |
|      You have enabled k-point parallelism (KPAR>1).                         |
|      This developmental code was originally  written by Paul Kent at ORNL,  |
|      and carefully double checked in Vienna.                                |
|      GW as well as linear response parallelism added by Martijn Marsman     |
|      and Georg Kresse.                                                      |
|      Carefully verify results versus KPAR=1.                                |
|      Report problems to Paul Kent and Vienna.                               |
|                                                                             |
 ----------------------------------------------------------------------------- 

 POTCAR:    PAW_PBE C 08Apr2002                   
   VRHFIN =C: s2p2                                                              
   LEXCH  = PE                                                                  
   EATOM  =   147.1560 eV,   10.8157 Ry                                         
                                                                                
   TITEL  = PAW_PBE C 08Apr2002                                                 
   LULTRA =        F    use ultrasoft PP ?                                      
   IUNSCR =        1    unscreen: 0-lin 1-nonlin 2-no                           
   RPACOR =    1.200    partial core radius                                     
   POMASS =   12.011; ZVAL   =    4.000    mass and valenz                      
   RCORE  =    1.500    outmost cutoff radius                                   
   RWIGS  =    1.630; RWIGS  =    0.863    wigner-seitz radius (au A)           
   ENMAX  =  400.000; ENMIN  =  300.000 eV                                      
   ICORE  =        2    local potential                                         
   LCOR   =        T    correct aug charges                                     
   LPAW   =        T    paw PP                                                  
   EAUG   =  644.873                                                            
   DEXC   =    0.000                                                            
   RMAX   =    1.529    core radius for proj-oper                               
   RAUG   =    1.300    factor for augmentation sphere                          
   RDEP   =    1.501    radius for radial grids                                 
   RDEPT  =    1.300    core radius for aug-charge                              
                                                                                
   Atomic configuration                                                         
    4 entries                                                                   
     n  l   j            E        occ.                                          
     1  0  0.50      -273.3789   2.0000                                         
     2  0  0.50       -13.7508   2.0000                                         
     2  1  0.50        -5.2854   2.0000                                         
     3  2  1.50        -5.4423   0.0000                                         
   Description                                                                  
     l       E           TYP  RCUT    TYP  RCUT                                 
     0    -13.7508458     23  1.200                                             
     0     -8.2022199     23  1.200                                             
     1     -5.2854383     23  1.500                                             
     1     34.0145650     23  1.500                                             
     2     -5.4423304      7  1.500                                             
  local pseudopotential read in
  partial core-charges read in
  partial kinetic energy density read in
  atomic valenz-charges read in
  non local Contribution for L=           0  read in
    real space projection operators read in
  non local Contribution for L=           0  read in
    real space projection operators read in
  non local Contribution for L=           1  read in
    real space projection operators read in
  non local Contribution for L=           1  read in
    real space projection operators read in
    PAW grid and wavefunctions read in
 
   number of l-projection  operators is LMAX  =           4
   number of lm-projection operators is LMMAX =           8
 
 POTCAR:    PAW_PBE N 08Apr2002                   
   VRHFIN =N: s2p3                                                              
   LEXCH  = PE                                                                  
   EATOM  =   264.5486 eV,   19.4438 Ry                                         
                                                                                
   TITEL  = PAW_PBE N 08Apr2002                                                 
   LULTRA =        F    use ultrasoft PP ?                                      
   IUNSCR =        1    unscreen: 0-lin 1-nonlin 2-no                           
   RPACOR =    1.200    partial core radius                                     
   POMASS =   14.001; ZVAL   =    5.000    mass and valenz                      
   RCORE  =    1.500    outmost cutoff radius                                   
   RWIGS  =    1.400; RWIGS  =    0.741    wigner-seitz radius (au A)           
   ENMAX  =  400.000; ENMIN  =  300.000 eV                                      
   ICORE  =        2    local potential                                         
   LCOR   =        T    correct aug charges                                     
   LPAW   =        T    paw PP                                                  
   EAUG   =  627.112                                                            
   DEXC   =    0.000                                                            
   RMAX   =    1.529    core radius for proj-oper                               
   RAUG   =    1.300    factor for augmentation sphere                          
   RDEP   =    1.514    radius for radial grids                                 
   RDEPT  =    1.338    core radius for aug-charge                              
                                                                                
   Atomic configuration                                                         
    4 entries                                                                   
     n  l   j            E        occ.                                          
     1  0  0.50      -384.7179   2.0000                                         
     2  0  0.50       -18.5828   2.0000                                         
     2  1  0.50        -7.0898   3.0000                                         
     3  2  1.50        -6.8029   0.0000                                         
   Description                                                                  
     l       E           TYP  RCUT    TYP  RCUT                                 
     0    -18.5828119     23  1.200                                             
     0    -13.5018863     23  1.200                                             
     1     -7.0897853     23  1.500                                             
     1      9.5240782     23  1.500                                             
     2     -6.8029130      7  1.500                                             
  local pseudopotential read in
  partial core-charges read in
  partial kinetic energy density read in
  atomic valenz-charges read in
  non local Contribution for L=           0  read in
    real space projection operators read in
  non local Contribution for L=           0  read in
    real space projection operators read in
  non local Contribution for L=           1  read in
    real space projection operators read in
  non local Contribution for L=           1  read in
    real space projection operators read in
    PAW grid and wavefunctions read in
 
   number of l-projection  operators is LMAX  =           4
   number of lm-projection operators is LMMAX =           8
 
 POTCAR:    PAW_PBE H 15Jun2001                   
   VRHFIN =H: ultrasoft test                                                    
   LEXCH  = PE                                                                  
   EATOM  =    12.4884 eV,    0.9179 Ry                                         
                                                                                
   TITEL  = PAW_PBE H 15Jun2001                                                 
   LULTRA =        F    use ultrasoft PP ?                                      
   IUNSCR =        0    unscreen: 0-lin 1-nonlin 2-no                           
   RPACOR =    0.000    partial core radius                                     
   POMASS =    1.000; ZVAL   =    1.000    mass and valenz                      
   RCORE  =    1.100    outmost cutoff radius                                   
   RWIGS  =    0.700; RWIGS  =    0.370    wigner-seitz radius (au A)           
   ENMAX  =  250.000; ENMIN  =  200.000 eV                                      
   RCLOC  =    0.701    cutoff for local pot                                    
   LCOR   =        T    correct aug charges                                     
   LPAW   =        T    paw PP                                                  
   EAUG   =  400.000                                                            
   RMAX   =    1.123    core radius for proj-oper                               
   RAUG   =    1.200    factor for augmentation sphere                          
   RDEP   =    1.112    radius for radial grids                                 
   RDEPT  =    0.926    core radius for aug-charge                              
                                                                                
   Atomic configuration                                                         
    2 entries                                                                   
     n  l   j            E        occ.                                          
     1  0  0.50        -6.4927   1.0000                                         
     2  1  0.50        -3.4015   0.0000                                         
   Description                                                                  
     l       E           TYP  RCUT    TYP  RCUT                                 
     0     -6.4927494     23  1.100                                             
     0      6.8029130     23  1.100                                             
     1     -4.0817478     23  1.100                                             
  local pseudopotential read in
  atomic valenz-charges read in
  non local Contribution for L=           0  read in
    real space projection operators read in
  non local Contribution for L=           0  read in
    real space projection operators read in
  non local Contribution for L=           1  read in
    real space projection operators read in
    PAW grid and wavefunctions read in
 
   number of l-projection  operators is LMAX  =           3
   number of lm-projection operators is LMMAX =           5
 
 POTCAR:    PAW_PBE Pb_d 06Sep2000                
   VRHFIN =Pb:                                                                  
   LEXCH  = PE                                                                  
   EATOM  =  1661.6185 eV,  122.1255 Ry                                         
                                                                                
   TITEL  = PAW_PBE Pb_d 06Sep2000                                              
   LULTRA =        F    use ultrasoft PP ?                                      
   IUNSCR =        1    unscreen: 0-lin 1-nonlin 2-no                           
   RPACOR =    2.200    partial core radius                                     
   POMASS =  207.200; ZVAL   =   14.000    mass and valenz                      
   RCORE  =    2.500    outmost cutoff radius                                   
   RWIGS  =    3.260; RWIGS  =    1.725    wigner-seitz radius (au A)           
   ENMAX  =  237.835; ENMIN  =  178.376 eV                                      
   ICORE  =        3    local potential                                         
   LCOR   =        T    correct aug charges                                     
   LPAW   =        T    paw PP                                                  
   EAUG   =  391.914                                                            
   DEXC   =    0.000                                                            
   RMAX   =    2.565    core radius for proj-oper                               
   RAUG   =    1.300    factor for augmentation sphere                          
   RDEP   =    2.643    radius for radial grids                                 
   RDEPT  =    2.092    core radius for aug-charge                              
                                                                                
   Atomic configuration                                                         
   16 entries                                                                   
     n  l   j            E        occ.                                          
     1  0  0.50    -88091.8466   2.0000                                         
     2  0  0.50    -15753.4197   2.0000                                         
     2  1  1.50    -13508.1797   6.0000                                         
     3  0  0.50     -3781.7194   2.0000                                         
     3  1  1.50     -3138.2529   6.0000                                         
     3  2  2.50     -2483.2977  10.0000                                         
     4  0  0.50      -856.2895   2.0000                                         
     4  1  1.50      -645.4942   6.0000                                         
     4  2  2.50      -401.8768  10.0000                                         
     4  3  3.50      -132.9059  14.0000                                         
     5  0  0.50      -144.0950   2.0000                                         
     5  1  1.50       -85.7879   6.0000                                         
     5  2  2.50       -21.1769  10.0000                                         
     6  0  0.50       -12.0372   2.0000                                         
     6  1  1.50        -3.4971   2.0000                                         
     5  3  2.50        -2.7212   0.0000                                         
   Description                                                                  
     l       E           TYP  RCUT    TYP  RCUT                                 
     2    -21.1768523     23  2.500                                             
     2      1.3605826     23  2.500                                             
     0    -12.0371562     23  2.500                                             
     0     13.6058260     23  2.500                                             
     1     -3.4971339     23  2.500                                             
     1     13.6058260     23  2.500                                             
     3     -1.3605826      7  2.500                                             
  local pseudopotential read in
  partial core-charges read in
  partial kinetic energy density read in
  atomic valenz-charges read in
  non local Contribution for L=           2  read in
    real space projection operators read in
  non local Contribution for L=           2  read in
    real space projection operators read in
  non local Contribution for L=           0  read in
    real space projection operators read in
  non local Contribution for L=           0  read in
    real space projection operators read in
  non local Contribution for L=           1  read in
    real space projection operators read in
  non local Contribution for L=           1  read in
    real space projection operators read in
    PAW grid and wavefunctions read in
 
   number of l-projection  operators is LMAX  =           6
   number of lm-projection operators is LMMAX =          18
 
 POTCAR:    PAW_PBE I 08Apr2002                   
   VRHFIN =I : s2p5                                                             
   LEXCH  = PE                                                                  
   EATOM  =   315.8678 eV,   23.2156 Ry                                         
                                                                                
   TITEL  = PAW_PBE I 08Apr2002                                                 
   LULTRA =        F    use ultrasoft PP ?                                      
   IUNSCR =        1    unscreen: 0-lin 1-nonlin 2-no                           
   RPACOR =    2.200    partial core radius                                     
   POMASS =  126.904; ZVAL   =    7.000    mass and valenz                      
   RCORE  =    2.300    outmost cutoff radius                                   
   RWIGS  =    2.810; RWIGS  =    1.487    wigner-seitz radius (au A)           
   ENMAX  =  175.647; ENMIN  =  131.735 eV                                      
   ICORE  =        3    local potential                                         
   LCOR   =        T    correct aug charges                                     
   LPAW   =        T    paw PP                                                  
   EAUG   =  370.139                                                            
   DEXC   =    0.000                                                            
   RMAX   =    2.359    core radius for proj-oper                               
   RAUG   =    1.300    factor for augmentation sphere                          
   RDEP   =    2.392    radius for radial grids                                 
   RDEPT  =    2.170    core radius for aug-charge                              
                                                                                
   Atomic configuration                                                         
   13 entries                                                                   
     n  l   j            E        occ.                                          
     1  0  0.50    -32976.3739   2.0000                                         
     2  0  0.50     -5094.5933   2.0000                                         
     2  1  1.50     -4572.0131   6.0000                                         
     3  0  0.50     -1028.2813   2.0000                                         
     3  1  1.50      -859.0250   6.0000                                         
     3  2  2.50      -605.7620  10.0000                                         
     4  0  0.50      -180.5540   2.0000                                         
     4  1  1.50      -127.5306   6.0000                                         
     4  2  2.50       -50.2720  10.0000                                         
     5  0  0.50       -17.4058   2.0000                                         
     5  1  0.50        -7.0851   5.0000                                         
     5  2  1.50        -7.0750   0.0000                                         
     4  3  2.50        -7.0750   0.0000                                         
   Description                                                                  
     l       E           TYP  RCUT    TYP  RCUT                                 
     0    -17.4058016     23  2.300                                             
     0    -18.7663842     23  2.300                                             
     1     -7.0850686     23  2.300                                             
     1     -4.2150896     23  2.300                                             
     2     -7.0750295     23  2.300                                             
     3     -1.3605826     23  2.300                                             
  local pseudopotential read in
  partial core-charges read in
  partial kinetic energy density read in
  atomic valenz-charges read in
  non local Contribution for L=           0  read in
    real space projection operators read in
  non local Contribution for L=           0  read in
    real space projection operators read in
  non local Contribution for L=           1  read in
    real space projection operators read in
  non local Contribution for L=           1  read in
    real space projection operators read in
  non local Contribution for L=           2  read in
    real space projection operators read in
    PAW grid and wavefunctions read in
 
   number of l-projection  operators is LMAX  =           5
   number of lm-projection operators is LMMAX =          13
 

 ----------------------------------------------------------------------------- 
|                                                                             |
|  ADVICE TO THIS USER RUNNING 'VASP/VAMP'   (HEAR YOUR MASTER'S VOICE ...):  |
|                                                                             |
|      You have a (more or less) 'large supercell' and for larger cells       |
|      it might be more efficient to use real space projection opertators     |
|      So try LREAL= Auto  in the INCAR   file.                               |
|      Mind: At the moment your POTCAR file does not contain real space       |
|       projectors, and has to be modified,  BUT if you                       |
|      want to do an extremely  accurate calculation you might also keep the  |
|      reciprocal projection scheme          (i.e. LREAL=.FALSE.)             |
|                                                                             |
 ----------------------------------------------------------------------------- 


 ----------------------------------------------------------------------------- 
|                                                                             |
|  ADVICE TO THIS USER RUNNING 'VASP/VAMP'   (HEAR YOUR MASTER'S VOICE ...):  |
|                                                                             |
|      You enforced a specific xc-type in the INCAR file,                     |
|      a different type was found on the POTCAR file                          |
|          I HOPE YOU KNOW, WHAT YOU ARE  DOING                               |
|                                                                             |
 ----------------------------------------------------------------------------- 

  PAW_PBE C 08Apr2002                   :
 energy of atom  1       EATOM= -147.1560
 kinetic energy error for atom=    0.0032 (will be added to EATOM!!)
  PAW_PBE N 08Apr2002                   :
 energy of atom  2       EATOM= -264.5486
 kinetic energy error for atom=    0.0061 (will be added to EATOM!!)
  PAW_PBE H 15Jun2001                   :
 energy of atom  3       EATOM=  -12.4884
 kinetic energy error for atom=    0.0002 (will be added to EATOM!!)
  PAW_PBE Pb_d 06Sep2000                :
 energy of atom  4       EATOM=-1661.6185
 kinetic energy error for atom=    0.0012 (will be added to EATOM!!)
  PAW_PBE I 08Apr2002                   :
 energy of atom  5       EATOM= -315.8678
 kinetic energy error for atom=    0.0003 (will be added to EATOM!!)
 
 
 POSCAR: C N H Pb I                              
  positions in direct lattice
  No initial velocities read in
 exchange correlation table for  LEXCH =       14
   RHO(1)=    0.500       N(1)  =     2000
   RHO(2)=  100.500       N(2)  =     4000
 


--------------------------------------------------------------------------------------------------------


 ion  position               nearest neighbor table
   1  0.197  0.250  0.229-  25 1.10  33 1.10  17 1.10   9 1.48
   2  0.697  0.250  0.229-  26 1.10  34 1.10  18 1.10  10 1.48
   3  0.197  0.750  0.229-  27 1.10  35 1.10  19 1.10  11 1.48
   4  0.697  0.750  0.229-  28 1.10  36 1.10  20 1.10  12 1.48
   5  0.197  0.250  0.729-  29 1.10  37 1.10  21 1.10  13 1.48
   6  0.697  0.250  0.729-  30 1.10  38 1.10  22 1.10  14 1.48
   7  0.197  0.750  0.729-  31 1.10  39 1.10  23 1.10  15 1.48
   8  0.697  0.750  0.729-  32 1.10  40 1.10  24 1.10  16 1.48
   9  0.308  0.250  0.268-  57 1.05  41 1.05  49 1.05   1 1.48
  10  0.802  0.250  0.280-  58 1.04  42 1.05  50 1.05   2 1.48
  11  0.302  0.750  0.280-  59 1.04  43 1.05  51 1.05   3 1.48
  12  0.808  0.750  0.268-  60 1.05  44 1.05  52 1.05   4 1.48
  13  0.302  0.250  0.780-  61 1.04  45 1.05  53 1.05   5 1.48
  14  0.808  0.250  0.768-  62 1.05  46 1.05  54 1.05   6 1.48
  15  0.308  0.750  0.768-  63 1.05  47 1.05  55 1.05   7 1.48
  16  0.802  0.750  0.780-  64 1.04  48 1.05  56 1.05   8 1.48
  17  0.200  0.250  0.142-   1 1.10
  18  0.710  0.250  0.143-   2 1.10
  19  0.210  0.750  0.143-   3 1.10
  20  0.700  0.750  0.142-   4 1.10
  21  0.210  0.250  0.643-   5 1.10
  22  0.700  0.250  0.642-   6 1.10
  23  0.200  0.750  0.642-   7 1.10
  24  0.710  0.750  0.643-   8 1.10
  25  0.156  0.322  0.258-   1 1.10
  26  0.653  0.322  0.253-   2 1.10
  27  0.153  0.822  0.253-   3 1.10
  28  0.656  0.822  0.258-   4 1.10
  29  0.153  0.322  0.753-   5 1.10
  30  0.656  0.322  0.758-   6 1.10
  31  0.156  0.822  0.758-   7 1.10
  32  0.653  0.822  0.753-   8 1.10
  33  0.156  0.177  0.258-   1 1.10
  34  0.653  0.177  0.254-   2 1.10
  35  0.153  0.677  0.254-   3 1.10
  36  0.656  0.677  0.258-   4 1.10
  37  0.153  0.177  0.754-   5 1.10
  38  0.656  0.177  0.758-   6 1.10
  39  0.156  0.677  0.758-   7 1.10
  40  0.653  0.677  0.754-   8 1.10
  41  0.350  0.318  0.242-   9 1.05
  42  0.846  0.318  0.259-  10 1.05
  43  0.346  0.818  0.259-  11 1.05
  44  0.850  0.818  0.242-  12 1.05
  45  0.346  0.318  0.759-  13 1.05
  46  0.850  0.318  0.742-  14 1.05
  47  0.350  0.818  0.742-  15 1.05
  48  0.846  0.818  0.759-  16 1.05
  49  0.350  0.182  0.243-   9 1.05
  50  0.846  0.182  0.259-  10 1.05
  51  0.346  0.682  0.259-  11 1.05
  52  0.850  0.682  0.243-  12 1.05
  53  0.346  0.182  0.759-  13 1.05
  54  0.850  0.182  0.743-  14 1.05
  55  0.350  0.682  0.743-  15 1.05
  56  0.846  0.682  0.759-  16 1.05
  57  0.311  0.250  0.350-   9 1.05
  58  0.795  0.250  0.362-  10 1.04
  59  0.295  0.750  0.362-  11 1.04
  60  0.811  0.750  0.350-  12 1.05
  61  0.295  0.250  0.862-  13 1.04
  62  0.811  0.250  0.850-  14 1.05
  63  0.311  0.750  0.850-  15 1.05
  64  0.795  0.750  0.862-  16 1.04
  65  0.472  0.499  0.489-  90 3.08  87 3.14  85 3.15  77 3.17  73 3.22  89 3.26
  66  0.972  0.501  0.489-  89 3.08  86 3.14  88 3.15  78 3.17  74 3.22  90 3.26
  67  0.472  0.001  0.489-  92 3.08  87 3.14  85 3.15  79 3.17  75 3.22  91 3.26
  68  0.972  0.999  0.489-  91 3.08  86 3.14  88 3.15  80 3.17  76 3.22  92 3.26
  69  0.472  0.501  0.989-  94 3.08  81 3.14  83 3.15  73 3.17  77 3.22  93 3.26
  70  0.972  0.499  0.989-  93 3.08  84 3.14  82 3.15  74 3.17  78 3.22  94 3.26
  71  0.472  0.999  0.989-  96 3.08  81 3.14  83 3.15  75 3.17  79 3.22  95 3.26
  72  0.972  0.001  0.989-  95 3.08  84 3.14  82 3.15  76 3.17  80 3.22  96 3.26
  73  0.455  0.502  0.238-  69 3.17  65 3.22
  74  0.955  0.498  0.238-  70 3.17  66 3.22
  75  0.455  0.998  0.238-  71 3.17  67 3.22
  76  0.955  0.002  0.238-  72 3.17  68 3.22
  77  0.455  0.498  0.738-  65 3.17  69 3.22
  78  0.955  0.502  0.738-  66 3.17  70 3.22
  79  0.455  0.002  0.738-  67 3.17  71 3.22
  80  0.955  0.998  0.738-  68 3.17  72 3.22
  81  0.462  0.250  0.011-  71 3.14  69 3.14
  82  0.937  0.250  0.012-  72 3.15  70 3.15
  83  0.437  0.750  0.012-  69 3.15  71 3.15
  84  0.962  0.750  0.011-  70 3.14  72 3.14
  85  0.437  0.250  0.512-  67 3.15  65 3.15
  86  0.962  0.250  0.511-  68 3.14  66 3.14
  87  0.462  0.750  0.511-  65 3.14  67 3.14
  88  0.937  0.750  0.512-  66 3.15  68 3.15
  89  0.216  0.514  0.461-  66 3.08  65 3.26
  90  0.716  0.486  0.461-  65 3.08  66 3.26
  91  0.216  0.986  0.461-  68 3.08  67 3.26
  92  0.716  0.014  0.461-  67 3.08  68 3.26
  93  0.216  0.486  0.961-  70 3.08  69 3.26
  94  0.716  0.514  0.961-  69 3.08  70 3.26
  95  0.216  0.014  0.961-  72 3.08  71 3.26
  96  0.716  0.986  0.961-  71 3.08  72 3.26
 
  LATTYP: Found a triclinic cell.
 ALAT       =    17.8238589327
 B/A-ratio  =     0.6989248630
 C/A-ratio  =     1.0156975818
 COS(alpha) =     0.0001355172
 COS(beta)  =     0.5146378593
 COS(gamma) =     0.6988877578
  
  Lattice vectors:
  
 A1 = (  -0.1406063366, -12.4576271275, -12.7466742118)
 A2 = (  -0.0011956322, -12.4575380825,   0.0007464135)
 A3 = ( -12.7162481321,  -0.0020049566, -12.8856194186)


Analysis of symmetry for initial positions (statically):
=====================================================================
 Subroutine PRICEL returns following result:
 
  LATTYP: Found a triclinic cell.
 ALAT       =     8.8524544993
 B/A-ratio  =     1.4072411401
 C/A-ratio  =     1.0225215175
 COS(alpha) =     0.0001355172
 COS(beta)  =     0.5046167836
 COS(gamma) =     0.7037964938
  
  Lattice vectors:
  
 A1 = (   6.2890165300,   6.2297269971,   0.0687261899)
 A2 = (   0.0011956322,  12.4575380825,  -0.0007464135)
 A3 = (   6.3581240661,   0.0010024783,   6.4428097093)
 
   4 primitive cells build up your supercell.
 

 Routine SETGRP: Setting up the symmetry group for a 
 triclinic supercell.


 Subroutine GETGRP returns: Found  1 space group operations
 (whereof  1 operations were pure point group operations)
 out of a pool of  2 trial point group operations.


The static configuration has the point symmetry C_1 .


Analysis of symmetry for dynamics (positions and initial velocities):
=====================================================================
 Subroutine PRICEL returns following result:
 
  LATTYP: Found a triclinic cell.
 ALAT       =     8.8524544993
 B/A-ratio  =     1.4072411401
 C/A-ratio  =     1.0225215175
 COS(alpha) =     0.0001355172
 COS(beta)  =     0.5046167836
 COS(gamma) =     0.7037964938
  
  Lattice vectors:
  
 A1 = (   6.2890165300,   6.2297269971,   0.0687261899)
 A2 = (   0.0011956322,  12.4575380825,  -0.0007464135)
 A3 = (   6.3581240661,   0.0010024783,   6.4428097093)
 
   4 primitive cells build up your supercell.
 

 Routine SETGRP: Setting up the symmetry group for a 
 triclinic supercell.


 Subroutine GETGRP returns: Found  1 space group operations
 (whereof  1 operations were pure point group operations)
 out of a pool of  2 trial point group operations.


The dynamic configuration has the point symmetry C_1 .


 Subroutine INISYM returns: Found  1 space group operations
 (whereof  1 operations are pure point group operations),
 and found     4 'primitive' translations

 
 
 KPOINTS: Automatic 3x3x3                         

Automatic generation of k-mesh.
Space group operators:
 irot       det(A)        alpha          n_x          n_y          n_z        tau_x        tau_y        tau_z
    1     1.000000     0.000000     1.000000     0.000000     0.000000     0.000000     0.000000     0.000000
 
 Subroutine IBZKPT returns following result:
 ===========================================
 
 Found     14 irreducible k-points:
 
 Following reciprocal coordinates:
            Coordinates               Weight
  0.000000  0.000000  0.000000      1.000000
  0.333333 -0.000000 -0.000000      2.000000
  0.000000  0.333333 -0.000000      2.000000
  0.333333  0.333333  0.000000      2.000000
 -0.333333  0.333333  0.000000      2.000000
  0.000000  0.000000  0.333333      2.000000
  0.333333  0.000000  0.333333      2.000000
 -0.333333  0.000000  0.333333      2.000000
  0.000000  0.333333  0.333333      2.000000
  0.333333  0.333333  0.333333      2.000000
 -0.333333  0.333333  0.333333      2.000000
  0.000000 -0.333333  0.333333      2.000000
  0.333333 -0.333333  0.333333      2.000000
 -0.333333 -0.333333  0.333333      2.000000
 
 Following cartesian coordinates:
            Coordinates               Weight
  0.000000  0.000000  0.000000      1.000000
  0.026507 -0.000003 -0.000290      2.000000
 -0.000004  0.026758 -0.000000      2.000000
  0.026503  0.026755 -0.000290      2.000000
 -0.026511  0.026760  0.000290      2.000000
 -0.000287  0.000002  0.026152      2.000000
  0.026220 -0.000001  0.025862      2.000000
 -0.026794  0.000004  0.026442      2.000000
 -0.000291  0.026759  0.026152      2.000000
  0.026215  0.026757  0.025862      2.000000
 -0.026798  0.026762  0.026442      2.000000
 -0.000283 -0.026756  0.026152      2.000000
  0.026224 -0.026759  0.025862      2.000000
 -0.026790 -0.026753  0.026442      2.000000
 


--------------------------------------------------------------------------------------------------------




 Dimension of arrays:
   k-points           NKPTS =     14   k-points in BZ     NKDIM =     14   number of bands    NBANDS=    256
   number of dos      NEDOS =    301   number of ions     NIONS =     96
   non local maximal  LDIM  =      6   non local SUM 2l+1 LMDIM =     18
   total plane-waves  NPLWV = ******
   max r-space proj   IRMAX =      1   max aug-charges    IRDMAX= 314103
   dimension x,y,z NGX =   112 NGY =  108 NGZ =  112
   dimension x,y,z NGXF=   224 NGYF=  216 NGZF=  224
   support grid    NGXF=   448 NGYF=  432 NGZF=  448
   ions per type =               8   8  48   8  24
 NGX,Y,Z   is equivalent  to a cutoff of  14.80, 14.41, 14.61 a.u.
 NGXF,Y,Z  is equivalent  to a cutoff of  29.61, 28.83, 29.21 a.u.


 I would recommend the setting:
   dimension x,y,z NGX =   109 NGY =  107 NGZ =  110
 SYSTEM =  MAPbI3-Cubic                            
 POSCAR =  C N H Pb I                              

 Startparameter for this run:
   NWRITE =      2    write-flag & timer
   PREC   = accura    normal or accurate (medium, high low for compatibility)
   ISTART =      0    job   : 0-new  1-cont  2-samecut
   ICHARG =      2    charge: 1-file 2-atom 10-const
   ISPIN  =      1    spin polarized calculation?
   LNONCOLLINEAR =      F non collinear calculations
   LSORBIT =      F    spin-orbit coupling
   INIWAV =      1    electr: 0-lowe 1-rand  2-diag
   LASPH  =      F    aspherical Exc in radial PAW
   METAGGA=      F    non-selfconsistent MetaGGA calc.

 Electronic Relaxation 1
   ENCUT  =  700.0 eV  51.45 Ry    7.17 a.u.  27.13 26.87 27.50*2*pi/ulx,y,z
   ENINI  =  700.0     initial cutoff
   ENAUG  =  644.9 eV  augmentation charge cutoff
   NELM   =     60;   NELMIN=  2; NELMDL= -5     # of ELM steps 
   EDIFF  = 0.1E-09   stopping-criterion for ELM
   LREAL  =      F    real-space projection
   NLSPLINE    = F    spline interpolate recip. space projectors
   LCOMPAT=      F    compatible to vasp.4.4
   GGA_COMPAT  = T    GGA compatible to vasp.4.4-vasp.4.6
   LMAXPAW     = -100 max onsite density
   LMAXMIX     =    2 max onsite mixed and CHGCAR
   VOSKOWN=      0    Vosko Wilk Nusair interpolation
   ROPT   =    0.00000   0.00000   0.00000   0.00000
   ROPT   =    0.00000
 Ionic relaxation
   EDIFFG = 0.1E-08   stopping-criterion for IOM
   NSW    =      0    number of steps for IOM
   NBLOCK =      1;   KBLOCK =      1    inner block; outer block 
   IBRION =     -1    ionic relax: 0-MD 1-quasi-New 2-CG
   NFREE  =      0    steps in history (QN), initial steepest desc. (CG)
   ISIF   =      2    stress and relaxation
   IWAVPR =     10    prediction:  0-non 1-charg 2-wave 3-comb
   ISYM   =      2    0-nonsym 1-usesym 2-fastsym
   LCORR  =      T    Harris-Foulkes like correction to forces

   POTIM  = 0.5000    time-step for ionic-motion
   TEIN   =    0.0    initial temperature
   TEBEG  =    0.0;   TEEND  =   0.0 temperature during run
   SMASS  =  -3.00    Nose mass-parameter (am)
   estimated Nose-frequenzy (Omega)   =  0.10E-29 period in steps =****** mass=  -0.362E-26a.u.
   SCALEE = 1.0000    scale energy and forces
   NPACO  =    256;   APACO  = 16.0  distance and # of slots for P.C.
   PSTRESS=    0.0 pullay stress

  Mass of Ions in am
   POMASS =  12.01 14.00  1.00207.20126.90
  Ionic Valenz
   ZVAL   =   4.00  5.00  1.00 14.00  7.00
  Atomic Wigner-Seitz radii
   RWIGS  =  -1.00 -1.00 -1.00 -1.00 -1.00
  virtual crystal weights 
   VCA    =   1.00  1.00  1.00  1.00  1.00
   NELECT =     400.0000    total number of electrons
   NUPDOWN=      -1.0000    fix difference up-down

 DOS related values:
   EMIN   =  10.00;   EMAX   =-10.00  energy-range for DOS
   EFERMI =   0.00
   ISMEAR =     0;   SIGMA  =   0.00  broadening in eV -4-tet -1-fermi 0-gaus

 Electronic relaxation 2 (details)
   IALGO  =     38    algorithm
   LDIAG  =      T    sub-space diagonalisation (order eigenvalues)
   LSUBROT=      F    optimize rotation matrix (better conditioning)
   TURBO    =      0    0=normal 1=particle mesh
   IRESTART =      0    0=no restart 2=restart with 2 vectors
   NREBOOT  =      0    no. of reboots
   NMIN     =      0    reboot dimension
   EREF     =   0.00    reference energy to select bands
   IMIX   =      4    mixing-type and parameters
     AMIX     =   0.40;   BMIX     =  1.00
     AMIX_MAG =   1.60;   BMIX_MAG =  1.00
     AMIN     =   0.10
     WC   =   100.;   INIMIX=   1;  MIXPRE=   1;  MAXMIX= -45

 Intra band minimization:
   WEIMIN = 0.0000     energy-eigenvalue tresh-hold
   EBREAK =  0.98E-13  absolut break condition
   DEPER  =   0.30     relativ break condition  

   TIME   =   0.40     timestep for ELM

  volume/ion in A,a.u.               =      20.80       140.38
  Fermi-wavevector in a.u.,A,eV,Ry     =   0.957863  1.810099 12.483376  0.917502
  Thomas-Fermi vector in A             =   2.086919
 
 Write flags
   LWAVE  =      F    write WAVECAR
   LCHARG =      F    write CHGCAR
   LVTOT  =      F    write LOCPOT, total local potential
   LVHAR  =      F    write LOCPOT, Hartree potential only
   LELF   =      F    write electronic localiz. function (ELF)
   LORBIT =      0    0 simple, 1 ext, 2 COOP (PROOUT)


 Dipole corrections
   LMONO  =      F    monopole corrections only (constant potential shift)
   LDIPOL =      F    correct potential (dipole corrections)
   IDIPOL =      0    1-x, 2-y, 3-z, 4-all directions 
   EPSILON=  1.0000000 bulk dielectric constant

 Core level calculations are selected ICORELEVEL =  1
 Exchange correlation treatment:
   GGA     =    PS    GGA type
   LEXCH   =    14    internal setting for exchange type
   VOSKOWN=      0    Vosko Wilk Nusair interpolation
   LHFCALC =     F    Hartree Fock is set to
   LHFONE  =     F    Hartree Fock one center treatment
   AEXX    =    0.0000 exact exchange contribution

 Linear response parameters
   LEPSILON=     F    determine dielectric tensor
   LRPA    =     F    only Hartree local field effects (RPA)
   LNABLA  =     F    use nabla operator in PAW spheres
   LVEL    =     F    velocity operator in full k-point grid
   LINTERFAST=   F  fast interpolation
   KINTER  =     0    interpolate to denser k-point grid
   CSHIFT  =0.1000    complex shift for real part using Kramers Kronig
   OMEGAMAX=  -1.0    maximum frequency
   DEG_THRESHOLD= 0.2000000E-02 threshold for treating states as degnerate
   RTIME   =    0.100 relaxation time in fs

 Orbital magnetization related:
   ORBITALMAG=     F  switch on orbital magnetization
   LCHIMAG   =     F  perturbation theory with respect to B field
   DQ        =  0.001000  dq finite difference perturbation B field



--------------------------------------------------------------------------------------------------------


 Static calculation
 charge density and potential will be updated during run
 non-spin polarized calculation
 Variant of blocked Davidson
 Davidson routine will perform the subspace rotation
 perform sub-space diagonalisation
    after iterative eigenvector-optimisation
 modified Broyden-mixing scheme, WC =      100.0
 initial mixing is a Kerker type mixing with AMIX =  0.4000 and BMIX =      1.0000
 Hartree-type preconditioning will be used
 using additional bands           56
 reciprocal scheme for non local part
 use partial core corrections
 calculate Harris-corrections to forces 
   (improved forces if not selfconsistent)
 use gradient corrections 
 use of overlap-Matrix (Vanderbilt PP)
 Gauss-broadening in eV      SIGMA  =   0.00


--------------------------------------------------------------------------------------------------------


  energy-cutoff  :      700.00
  volume of cell :     1996.98
      direct lattice vectors                 reciprocal lattice vectors
    12.576837428  0.001915912  0.138198793     0.079520802 -0.000007684 -0.000869670
     0.001195632 12.457538083 -0.000746413    -0.000012224  0.080272684 -0.000000427
     0.139410704  0.000089045 12.747420625    -0.000862111  0.000004784  0.078456671

  length of vectors
    12.577596840 12.457538162 12.748182927     0.079525558  0.080272685  0.078461408


 
 k-points in units of 2pi/SCALE and weight: Automatic 3x3x3                         
   0.00000000  0.00000000  0.00000000       0.037
   0.02650693 -0.00000256 -0.00028989       0.074
  -0.00000407  0.02675756 -0.00000014       0.074
   0.02650286  0.02675500 -0.00029003       0.074
  -0.02651101  0.02676012  0.00028975       0.074
  -0.00028737  0.00000159  0.02615222       0.074
   0.02621956 -0.00000097  0.02586233       0.074
  -0.02679430  0.00000416  0.02644211       0.074
  -0.00029144  0.02675916  0.02615208       0.074
   0.02621549  0.02675659  0.02586219       0.074
  -0.02679838  0.02676172  0.02644197       0.074
  -0.00028330 -0.02675597  0.02615237       0.074
   0.02622364 -0.02675853  0.02586248       0.074
  -0.02679023 -0.02675341  0.02644226       0.074
 
 k-points in reciprocal lattice and weights: Automatic 3x3x3                         
   0.00000000  0.00000000  0.00000000       0.037
   0.33333333 -0.00000000 -0.00000000       0.074
   0.00000000  0.33333333 -0.00000000       0.074
   0.33333333  0.33333333  0.00000000       0.074
  -0.33333333  0.33333333  0.00000000       0.074
   0.00000000  0.00000000  0.33333333       0.074
   0.33333333  0.00000000  0.33333333       0.074
  -0.33333333  0.00000000  0.33333333       0.074
   0.00000000  0.33333333  0.33333333       0.074
   0.33333333  0.33333333  0.33333333       0.074
  -0.33333333  0.33333333  0.33333333       0.074
   0.00000000 -0.33333333  0.33333333       0.074
   0.33333333 -0.33333333  0.33333333       0.074
  -0.33333333 -0.33333333  0.33333333       0.074
 
 position of ions in fractional coordinates (direct lattice) 
   0.19731581  0.24988294  0.22876996
   0.69667245  0.24993361  0.22906075
   0.19667245  0.74993361  0.22906075
   0.69731581  0.74988294  0.22876996
   0.19667245  0.24993361  0.72906075
   0.69731581  0.24988294  0.72876996
   0.19731581  0.74988294  0.72876996
   0.69667245  0.74993361  0.72906075
   0.30751151  0.24998736  0.26777428
   0.80156293  0.25001992  0.27999432
   0.30156293  0.75001992  0.27999432
   0.80751151  0.74998736  0.26777428
   0.30156293  0.25001992  0.77999432
   0.80751151  0.24998736  0.76777428
   0.30751151  0.74998736  0.76777428
   0.80156293  0.75001992  0.77999432
   0.20046109  0.24979589  0.14239237
   0.70968924  0.24984631  0.14338488
   0.20968924  0.74984631  0.14338488
   0.70046109  0.74979589  0.14239237
   0.20968924  0.24984631  0.64338488
   0.70046109  0.24979589  0.64239237
   0.20046109  0.74979589  0.64239237
   0.70968924  0.74984631  0.64338488
   0.15602060  0.32229039  0.25761453
   0.65265501  0.32241398  0.25341611
   0.15265501  0.82241398  0.25341611
   0.65602060  0.82229039  0.25761453
   0.15265501  0.32241398  0.75341611
   0.65602060  0.32229039  0.75761453
   0.15602060  0.82229039  0.75761453
   0.65265501  0.82241398  0.75341611
   0.15614699  0.17747865  0.25774483
   0.65273868  0.17747350  0.25355658
   0.15273868  0.67747350  0.25355658
   0.65614699  0.67747865  0.25774483
   0.15273868  0.17747350  0.75355658
   0.65614699  0.17747865  0.75774483
   0.15614699  0.67747865  0.75774483
   0.65273868  0.67747350  0.75355658
   0.34993148  0.31782628  0.24241554
   0.84633768  0.31792228  0.25909744
   0.34633768  0.81792228  0.25909744
   0.84993148  0.81782628  0.24241554
   0.34633768  0.31792228  0.75909744
   0.84993148  0.31782628  0.74241554
   0.34993148  0.81782628  0.74241554
   0.84633768  0.81792228  0.75909744
   0.35002765  0.18213818  0.24252762
   0.84638295  0.18207159  0.25925418
   0.34638295  0.68207159  0.25925418
   0.85002765  0.68213818  0.24252762
   0.34638295  0.18207159  0.75925418
   0.85002765  0.18213818  0.74252762
   0.35002765  0.68213818  0.74252762
   0.84638295  0.68207159  0.75925418
   0.31121843  0.25006001  0.34968512
   0.79512172  0.25012703  0.36153336
   0.29512172  0.75012703  0.36153336
   0.81121843  0.75006001  0.34968512
   0.29512172  0.25012703  0.86153336
   0.81121843  0.25006001  0.84968512
   0.31121843  0.75006001  0.84968512
   0.79512172  0.75012703  0.86153336
   0.47244023  0.49919498  0.48880933
   0.97244332  0.50078461  0.48881356
   0.47244332  0.00078461  0.48881356
   0.97244023  0.99919498  0.48880933
   0.47244332  0.50078461  0.98881356
   0.97244023  0.49919498  0.98880933
   0.47244023  0.99919498  0.98880933
   0.97244332  0.00078461  0.98881356
   0.45472512  0.50163636  0.23757368
   0.95476223  0.49834573  0.23757180
   0.45476223  0.99834573  0.23757180
   0.95472512  0.00163636  0.23757368
   0.45476223  0.49834573  0.73757180
   0.95472512  0.50163636  0.73757368
   0.45472512  0.00163636  0.73757368
   0.95476223  0.99834573  0.73757180
   0.46183475  0.24997608  0.01128720
   0.93743613  0.24998194  0.01237723
   0.43743613  0.74998194  0.01237723
   0.96183475  0.74997608  0.01128720
   0.43743613  0.24998194  0.51237723
   0.96183475  0.24997608  0.51128720
   0.46183475  0.74997608  0.51128720
   0.93743613  0.74998194  0.51237723
   0.21616842  0.51399133  0.46125431
   0.71617446  0.48600354  0.46122509
   0.21617446  0.98600354  0.46122509
   0.71616842  0.01399133  0.46125431
   0.21617446  0.48600354  0.96122509
   0.71616842  0.51399133  0.96125431
   0.21616842  0.01399133  0.96125431
   0.71617446  0.98600354  0.96122509
 
 position of ions in cartesian coordinates  (Angst):
   2.51380063  3.11332463  2.94330918
   8.79416854  3.11491265  3.01602646
   2.50634764  9.34272373  2.94655386
   8.80281716  9.34305163  3.01203537
   2.57545518  3.11399921  9.32063738
   8.87192469  3.11432711  9.38611889
   2.58410380  9.34213820  9.31664629
   8.86447171  9.34372621  9.38936357
   3.90515176  3.11484012  3.45574245
  10.12045977  3.11619329  3.67979375
   3.83263887  9.34400437  3.61032114
  10.19416829  9.34456712  3.52446864
   3.90174640  3.11527986  9.98440466
  10.26327583  3.11584260  9.89855216
   3.97545493  9.34365369  9.82907956
  10.19076293  9.34500685 10.05313085
   2.54131624  3.11223852  1.84265251
   8.94593435  3.11384234  1.92567906
   2.65811345  9.34165342  1.85620646
   8.83033277  9.34196552  1.91137870
   2.72722099  3.11292890  8.23028998
   8.89944030  3.11324100  8.28546222
   2.61161941  9.34105208  8.21598962
   9.01623752  9.34265590  8.29901617
   1.99854532  4.01526673  3.30524206
   8.24405037  4.01775741  3.32035722
   1.95622947 10.24556850  3.25088462
   8.28756185 10.24499372  3.37396825
   2.02533701  4.01684398  9.62496814
   8.35666939  4.01626920  9.74805177
   2.06884849 10.24408029  9.67857916
   8.31435354 10.24657098  9.69369433
   1.99997987  2.21126911  3.30702868
   8.24494894  2.21215606  3.32226759
   1.95712805  8.43996714  3.25279498
   8.28899640  8.44099611  3.37575487
   2.02623558  2.21124262  9.62687850
   8.35810394  2.21227159  9.74983839
   2.07028304  8.44008268  9.68036578
   8.31525211  8.44096962  9.69560469
   4.43520663  3.96002503  3.13829578
  10.68075245  3.96217354  3.41954957
   4.39293156 10.18998463  3.35007697
  10.72422316 10.18975203  3.20702197
   4.46203909  3.96126011  9.72416049
  10.79333069  3.96102751  9.58110549
   4.50550979 10.18883859  9.51163289
  10.75105562 10.19098711  9.79288668
   4.43626955  2.26968555  3.13983897
  10.68118129  2.26980848  3.42165534
   4.39336039  8.49761957  3.35218274
  10.72528608  8.49941255  3.20856516
   4.46246793  2.26889505  9.72626626
  10.79439361  2.27068803  9.58264868
   4.50657271  8.49849912  9.51317608
  10.75148446  8.49862205  9.79499245
   3.96319241  3.11575955  4.50040674
  10.05081725  3.11752257  4.71831603
   3.76299636  9.34533366  4.64884343
  10.25220894  9.34548655  4.56913293
   3.83210389  3.11660914 11.02292695
  10.32131648  3.11676203 10.94321644
   4.03349558  9.34457312 10.87374384
  10.12112042  9.34633613 11.09165314
   6.01054611  6.21968914  6.29597624
  12.29900613  6.24045001  6.36512877
   6.00998960  0.01072301  6.29640258
  12.29956264 12.44941613  6.36470243
   6.08029277  6.23953657 12.66973969
  12.36867017  6.22069161 12.73878595
   6.08084927 12.44850270 12.66931334
  12.36811367  0.01172549 12.73921229
   5.75272396  6.25004648  3.09091969
  12.04160526  6.21001136  3.16000270
   5.75378436 12.43782245  3.09053010
  12.04054486  0.02223539  3.16039229
   5.82289189  6.20909793  9.46461362
  12.11084803  6.25104896  9.53372940
   5.82183150  0.02132196  9.46500321
  12.11190842 12.43882493  9.53333981
   5.81029295  3.11497238  0.20752113
  11.79200626  3.11595670  0.28714375
   5.50418536  9.34376778  0.21767115
  12.09930948  9.34469938  0.27624732
   5.57329289  3.11504326  6.59175467
  12.16841702  3.11597486  6.65033084
   5.88059612  9.34378594  6.58085824
  11.86230942  9.34477026  6.66048086
   2.78363335  6.40352185  5.90929329
   9.07209057  6.05582079  5.97804193
   2.78426967 12.28363188  5.90856933
   9.07145425  0.17571076  5.97876590
   2.85337721  6.05490736 12.28265285
   9.14175741  6.40452433 12.35210300
   2.85274088  0.17479733 12.28337681
   9.14239374 12.28463435 12.35137904
 


--------------------------------------------------------------------------------------------------------


 k-point  1 :   0.0000 0.0000 0.0000  plane waves:   84007
 k-point  2 :   0.3333-0.0000-0.0000  plane waves:   84003
 k-point  3 :   0.0000 0.3333-0.0000  plane waves:   83995
 k-point  4 :   0.3333 0.3333 0.0000  plane waves:   84018
 k-point  5 :  -0.3333 0.3333 0.0000  plane waves:   84019
 k-point  6 :   0.0000 0.0000 0.3333  plane waves:   83960
 k-point  7 :   0.3333 0.0000 0.3333  plane waves:   83937
 k-point  8 :  -0.3333 0.0000 0.3333  plane waves:   83982
 k-point  9 :   0.0000 0.3333 0.3333  plane waves:   83984
 k-point 10 :   0.3333 0.3333 0.3333  plane waves:   84012
 k-point 11 :  -0.3333 0.3333 0.3333  plane waves:   83970
 k-point 12 :   0.0000-0.3333 0.3333  plane waves:   83977
 k-point 13 :   0.3333-0.3333 0.3333  plane waves:   84013
 k-point 14 :  -0.3333-0.3333 0.3333  plane waves:   83973

 maximum and minimum number of plane-waves per node :     28039    27934

 maximum number of plane-waves:     84019
 maximum index in each direction: 
   IXMAX=   27   IYMAX=   27   IZMAX=   27
   IXMIN=  -27   IYMIN=  -27   IZMIN=  -27

 NGX is ok and might be reduce to 110
 WARNING: aliasing errors must be expected set NGY to 110 to avoid them
 NGZ is ok and might be reduce to 110
 aliasing errors are usually negligible using standard VASP settings
 and one can safely disregard these warnings

 parallel 3D FFT for wavefunctions:
    minimum data exchange during FFTs selected (reduces bandwidth)
 parallel 3D FFT for charge:
    minimum data exchange during FFTs selected (reduces bandwidth)


 total amount of memory used by VASP on root node   697522. kBytes
========================================================================

   base      :      30000. kBytes
   nonl-proj :     325712. kBytes
   fftplans  :      80881. kBytes
   grid      :      57435. kBytes
   one-center:        497. kBytes
   wavefun   :     202997. kBytes
 
     INWAV:  cpu time    0.0000: real time    0.0000
 Broyden mixing: mesh for mixing (old mesh)
   NGX = 55   NGY = 53   NGZ = 55
  (NGX  =224   NGY  =216   NGZ  =224)
  gives a total of 160325 points

 initial charge density was supplied:
 charge density of overlapping atoms calculated
 number of electron     400.0000000 magnetization 
 keeping initial charge density in first step


--------------------------------------------------------------------------------------------------------


 Maximum index for augmentation-charges        14457 (set IRDMAX)


--------------------------------------------------------------------------------------------------------


 First call to EWALD:  gamma=   0.141
 Maximum number of real-space cells 3x 3x 3
 Maximum number of reciprocal cells 3x 3x 3

 FEWALD executed in parallel
    FEWALD:  cpu time    0.0520: real time    0.0521


----------------------------------------- Iteration    1(   1)  ---------------------------------------


    POTLOK:  cpu time    0.4440: real time    0.4449
    SETDIJ:  cpu time    0.7800: real time    0.7799
     EDDAV:  cpu time   71.1124: real time   71.1577
       DOS:  cpu time    0.0000: real time    0.0013
    --------------------------------------------
      LOOP:  cpu time   72.3365: real time   72.4062

 eigenvalue-minimisations  :  7176
 total energy-change (2. order) : 0.3602150E+04  (-0.1894789E+05)
 number of electron     400.0000000 magnetization 
 augmentation part      400.0000000 magnetization 

 Free energy of the ion-electron system (eV)
  ---------------------------------------------------
  alpha Z        PSCENC =       370.05370877
  Ewald energy   TEWEN  =    -15515.44467960
  -Hartree energ DENC   =     -8131.40316003
  -exchange      EXHF   =         0.00000000
  -V(xc)+E(xc)   XCENC  =       390.02180631
  PAW double counting   =     20601.23165652   -19855.90553853
  entropy T*S    EENTRO =        -0.00001258
  eigenvalues    EBANDS =       994.58960392
  atomic energy  EATOM  =     24749.00668030
  Solvation  Ediel_sol  =         0.00000000
  ---------------------------------------------------
  free energy    TOTEN  =      3602.15006508 eV

  energy without entropy =     3602.15007767  energy(sigma->0) =     3602.15007137


--------------------------------------------------------------------------------------------------------




----------------------------------------- Iteration    1(   2)  ---------------------------------------


     EDDAV:  cpu time   77.8969: real time   77.9479
       DOS:  cpu time    0.0000: real time    0.0014
    --------------------------------------------
      LOOP:  cpu time   77.9009: real time   77.9783

 eigenvalue-minimisations  :  8016
 total energy-change (2. order) :-0.3404815E+04  (-0.3214338E+04)
 number of electron     400.0000000 magnetization 
 augmentation part      400.0000000 magnetization 

 Free energy of the ion-electron system (eV)
  ---------------------------------------------------
  alpha Z        PSCENC =       370.05370877
  Ewald energy   TEWEN  =    -15515.44467960
  -Hartree energ DENC   =     -8131.40316003
  -exchange      EXHF   =         0.00000000
  -V(xc)+E(xc)   XCENC  =       390.02180631
  PAW double counting   =     20601.23165652   -19855.90553853
  entropy T*S    EENTRO =        -0.00004179
  eigenvalues    EBANDS =     -2410.22540655
  atomic energy  EATOM  =     24749.00668030
  Solvation  Ediel_sol  =         0.00000000
  ---------------------------------------------------
  free energy    TOTEN  =       197.33502540 eV

  energy without entropy =      197.33506719  energy(sigma->0) =      197.33504630


--------------------------------------------------------------------------------------------------------




----------------------------------------- Iteration    1(   3)  ---------------------------------------


     EDDAV:  cpu time   88.6775: real time   88.7336
       DOS:  cpu time    0.0040: real time    0.0008
    --------------------------------------------
      LOOP:  cpu time   88.6855: real time   88.7544

 eigenvalue-minimisations  :  9464
 total energy-change (2. order) :-0.5959697E+03  (-0.5873497E+03)
 number of electron     400.0000000 magnetization 
 augmentation part      400.0000000 magnetization 

 Free energy of the ion-electron system (eV)
  ---------------------------------------------------
  alpha Z        PSCENC =       370.05370877
  Ewald energy   TEWEN  =    -15515.44467960
  -Hartree energ DENC   =     -8131.40316003
  -exchange      EXHF   =         0.00000000
  -V(xc)+E(xc)   XCENC  =       390.02180631
  PAW double counting   =     20601.23165652   -19855.90553853
  entropy T*S    EENTRO =         0.00000000
  eigenvalues    EBANDS =     -3006.19519249
  atomic energy  EATOM  =     24749.00668030
  Solvation  Ediel_sol  =         0.00000000
  ---------------------------------------------------
  free energy    TOTEN  =      -398.63471875 eV

  energy without entropy =     -398.63471875  energy(sigma->0) =     -398.63471875


--------------------------------------------------------------------------------------------------------




----------------------------------------- Iteration    1(   4)  ---------------------------------------


     EDDAV:  cpu time   89.7096: real time   89.7645
       DOS:  cpu time    0.0000: real time    0.0009
    --------------------------------------------
      LOOP:  cpu time   89.7096: real time   89.8057

 eigenvalue-minimisations  :  9640
 total energy-change (2. order) :-0.4003667E+02  (-0.3986575E+02)
 number of electron     400.0000000 magnetization 
 augmentation part      400.0000000 magnetization 

 Free energy of the ion-electron system (eV)
  ---------------------------------------------------
  alpha Z        PSCENC =       370.05370877
  Ewald energy   TEWEN  =    -15515.44467960
  -Hartree energ DENC   =     -8131.40316003
  -exchange      EXHF   =         0.00000000
  -V(xc)+E(xc)   XCENC  =       390.02180631
  PAW double counting   =     20601.23165652   -19855.90553853
  entropy T*S    EENTRO =         0.00000000
  eigenvalues    EBANDS =     -3046.23185875
  atomic energy  EATOM  =     24749.00668030
  Solvation  Ediel_sol  =         0.00000000
  ---------------------------------------------------
  free energy    TOTEN  =      -438.67138500 eV

  energy without entropy =     -438.67138500  energy(sigma->0) =     -438.67138500


--------------------------------------------------------------------------------------------------------




----------------------------------------- Iteration    1(   5)  ---------------------------------------


     EDDAV:  cpu time   91.1617: real time   91.2179
       DOS:  cpu time    0.0000: real time    0.0006
    CHARGE:  cpu time    3.3122: real time    3.3137
    MIXING:  cpu time    0.0120: real time    0.0131
    --------------------------------------------
      LOOP:  cpu time   94.4899: real time   94.5880

 eigenvalue-minimisations  :  9776
 total energy-change (2. order) :-0.1499183E+01  (-0.1496998E+01)
 number of electron     400.0000000 magnetization 
 augmentation part        7.5660705 magnetization 

 Broyden mixing:
  rms(total) = 0.29694E+01    rms(broyden)= 0.29693E+01
  rms(prec ) = 0.35207E+01
  weight for this iteration     100.00

 Free energy of the ion-electron system (eV)
  ---------------------------------------------------
  alpha Z        PSCENC =       370.05370877
  Ewald energy   TEWEN  =    -15515.44467960
  -Hartree energ DENC   =     -8131.40316003
  -exchange      EXHF   =         0.00000000
  -V(xc)+E(xc)   XCENC  =       390.02180631
  PAW double counting   =     20601.23165652   -19855.90553853
  entropy T*S    EENTRO =         0.00000000
  eigenvalues    EBANDS =     -3047.73104155
  atomic energy  EATOM  =     24749.00668030
  Solvation  Ediel_sol  =         0.00000000
  ---------------------------------------------------
  free energy    TOTEN  =      -440.17056781 eV

  energy without entropy =     -440.17056781  energy(sigma->0) =     -440.17056781


--------------------------------------------------------------------------------------------------------




----------------------------------------- Iteration    1(   6)  ---------------------------------------


    POTLOK:  cpu time    0.4360: real time    0.4399
    SETDIJ:  cpu time    0.8041: real time    0.8016
     EDDAV:  cpu time   88.8976: real time   88.9549
       DOS:  cpu time    0.0040: real time    0.0009
    CHARGE:  cpu time    3.3082: real time    3.3122
    MIXING:  cpu time    0.0120: real time    0.0132
    --------------------------------------------
      LOOP:  cpu time   93.4658: real time   93.5431

 eigenvalue-minimisations  :  9560
 total energy-change (2. order) : 0.2061799E+02  (-0.4165818E+01)
 number of electron     400.0000000 magnetization 
 augmentation part        7.8746699 magnetization 

 Broyden mixing:
  rms(total) = 0.15720E+01    rms(broyden)= 0.15720E+01
  rms(prec ) = 0.17496E+01
  weight for this iteration     100.00

 eigenvalues of (default mixing * dielectric matrix)
  average eigenvalue GAMMA=   1.5501
  1.5501

 Free energy of the ion-electron system (eV)
  ---------------------------------------------------
  alpha Z        PSCENC =       370.05370877
  Ewald energy   TEWEN  =    -15515.44467960
  -Hartree energ DENC   =     -8304.28603726
  -exchange      EXHF   =         0.00000000
  -V(xc)+E(xc)   XCENC  =       404.23416205
  PAW double counting   =     23067.62258621   -22320.44048577
  entropy T*S    EENTRO =        -0.00000000
  eigenvalues    EBANDS =     -2870.29851701
  atomic energy  EATOM  =     24749.00668030
  Solvation  Ediel_sol  =         0.00000000
  ---------------------------------------------------
  free energy    TOTEN  =      -419.55258231 eV

  energy without entropy =     -419.55258231  energy(sigma->0) =     -419.55258231


--------------------------------------------------------------------------------------------------------




----------------------------------------- Iteration    1(   7)  ---------------------------------------


    POTLOK:  cpu time    0.4400: real time    0.4406
    SETDIJ:  cpu time    0.7840: real time    0.7842
     EDDAV:  cpu time   94.4859: real time   94.5443
       DOS:  cpu time    0.0000: real time    0.0009
    CHARGE:  cpu time    3.3122: real time    3.3133
    MIXING:  cpu time    0.0120: real time    0.0133
    --------------------------------------------
      LOOP:  cpu time   99.0382: real time   99.1369

 eigenvalue-minimisations  : 10200
 total energy-change (2. order) : 0.2477315E+01  (-0.1465730E+01)
 number of electron     400.0000000 magnetization 
 augmentation part        8.0070982 magnetization 

 Broyden mixing:
  rms(total) = 0.78277E+00    rms(broyden)= 0.78276E+00
  rms(prec ) = 0.83482E+00
  weight for this iteration     100.00

 eigenvalues of (default mixing * dielectric matrix)
  average eigenvalue GAMMA=   1.9276
  1.4506  2.4046

 Free energy of the ion-electron system (eV)
  ---------------------------------------------------
  alpha Z        PSCENC =       370.05370877
  Ewald energy   TEWEN  =    -15515.44467960
  -Hartree energ DENC   =     -8393.60405010
  -exchange      EXHF   =         0.00000000
  -V(xc)+E(xc)   XCENC  =       413.78680095
  PAW double counting   =     26175.48837136   -25427.27416622
  entropy T*S    EENTRO =         0.00000000
  eigenvalues    EBANDS =     -2789.08793268
  atomic energy  EATOM  =     24749.00668030
  Solvation  Ediel_sol  =         0.00000000
  ---------------------------------------------------
  free energy    TOTEN  =      -417.07526723 eV

  energy without entropy =     -417.07526723  energy(sigma->0) =     -417.07526723


--------------------------------------------------------------------------------------------------------




----------------------------------------- Iteration    1(   8)  ---------------------------------------


    POTLOK:  cpu time    0.4360: real time    0.4383
    SETDIJ:  cpu time    0.8001: real time    0.8016
     EDDAV:  cpu time   82.1931: real time   82.2457
       DOS:  cpu time    0.0040: real time    0.0008
    CHARGE:  cpu time    3.3122: real time    3.3139
    MIXING:  cpu time    0.0120: real time    0.0135
    --------------------------------------------
      LOOP:  cpu time   86.7614: real time   86.8337

 eigenvalue-minimisations  :  8656
 total energy-change (2. order) : 0.1708687E+00  (-0.3032860E+00)
 number of electron     400.0000000 magnetization 
 augmentation part        7.9403968 magnetization 

 Broyden mixing:
  rms(total) = 0.18251E+00    rms(broyden)= 0.18251E+00
  rms(prec ) = 0.22143E+00
  weight for this iteration     100.00

 eigenvalues of (default mixing * dielectric matrix)
  average eigenvalue GAMMA=   1.6362
  2.3817  1.2634  1.2634

 Free energy of the ion-electron system (eV)
  ---------------------------------------------------
  alpha Z        PSCENC =       370.05370877
  Ewald energy   TEWEN  =    -15515.44467960
  -Hartree energ DENC   =     -8401.85199293
  -exchange      EXHF   =         0.00000000
  -V(xc)+E(xc)   XCENC  =       417.02211650
  PAW double counting   =     28642.81573346   -27895.62411774
  entropy T*S    EENTRO =         0.00000000
  eigenvalues    EBANDS =     -2782.88184729
  atomic energy  EATOM  =     24749.00668030
  Solvation  Ediel_sol  =         0.00000000
  ---------------------------------------------------
  free energy    TOTEN  =      -416.90439851 eV

  energy without entropy =     -416.90439851  energy(sigma->0) =     -416.90439851


--------------------------------------------------------------------------------------------------------




----------------------------------------- Iteration    1(   9)  ---------------------------------------


    POTLOK:  cpu time    0.4360: real time    0.4388
    SETDIJ:  cpu time    0.7800: real time    0.7800
     EDDAV:  cpu time   86.8254: real time   86.8775
       DOS:  cpu time    0.0000: real time    0.0009
    CHARGE:  cpu time    3.3122: real time    3.3138
    MIXING:  cpu time    0.0120: real time    0.0138
    --------------------------------------------
      LOOP:  cpu time   91.3697: real time   91.4662

 eigenvalue-minimisations  :  9304
 total energy-change (2. order) : 0.7221312E-01  (-0.7455522E-01)
 number of electron     400.0000000 magnetization 
 augmentation part        7.9513791 magnetization 

 Broyden mixing:
  rms(total) = 0.72634E-01    rms(broyden)= 0.72626E-01
  rms(prec ) = 0.81567E-01
  weight for this iteration     100.00

 eigenvalues of (default mixing * dielectric matrix)
  average eigenvalue GAMMA=   1.5461
  2.3317  1.0833  1.4994  1.2698

 Free energy of the ion-electron system (eV)
  ---------------------------------------------------
  alpha Z        PSCENC =       370.05370877
  Ewald energy   TEWEN  =    -15515.44467960
  -Hartree energ DENC   =     -8419.89643088
  -exchange      EXHF   =         0.00000000
  -V(xc)+E(xc)   XCENC  =       418.09495906
  PAW double counting   =     28659.67575099   -27912.56555462
  entropy T*S    EENTRO =         0.00000000
  eigenvalues    EBANDS =     -2765.75661942
  atomic energy  EATOM  =     24749.00668030
  Solvation  Ediel_sol  =         0.00000000
  ---------------------------------------------------
  free energy    TOTEN  =      -416.83218539 eV

  energy without entropy =     -416.83218539  energy(sigma->0) =     -416.83218539


--------------------------------------------------------------------------------------------------------




----------------------------------------- Iteration    1(  10)  ---------------------------------------


    POTLOK:  cpu time    0.4400: real time    0.4395
    SETDIJ:  cpu time    0.8081: real time    0.8084
     EDDAV:  cpu time   86.3334: real time   86.3877
       DOS:  cpu time    0.0000: real time    0.0013
    CHARGE:  cpu time    3.3082: real time    3.3115
    MIXING:  cpu time    0.0160: real time    0.0141
    --------------------------------------------
      LOOP:  cpu time   90.9097: real time   90.9779

 eigenvalue-minimisations  :  9048
 total energy-change (2. order) :-0.1234400E-01  (-0.1133099E-01)
 number of electron     400.0000000 magnetization 
 augmentation part        7.9277489 magnetization 

 Broyden mixing:
  rms(total) = 0.47002E-01    rms(broyden)= 0.47000E-01
  rms(prec ) = 0.54191E-01
  weight for this iteration     100.00

 eigenvalues of (default mixing * dielectric matrix)
  average eigenvalue GAMMA=   1.4589
  2.3818  1.9405  1.0618  1.0618  0.8486

 Free energy of the ion-electron system (eV)
  ---------------------------------------------------
  alpha Z        PSCENC =       370.05370877
  Ewald energy   TEWEN  =    -15515.44467960
  -Hartree energ DENC   =     -8420.78674520
  -exchange      EXHF   =         0.00000000
  -V(xc)+E(xc)   XCENC  =       418.19869952
  PAW double counting   =     28703.19690894   -27956.31918862
  entropy T*S    EENTRO =         0.00000000
  eigenvalues    EBANDS =     -2764.74991350
  atomic energy  EATOM  =     24749.00668030
  Solvation  Ediel_sol  =         0.00000000
  ---------------------------------------------------
  free energy    TOTEN  =      -416.84452939 eV

  energy without entropy =     -416.84452939  energy(sigma->0) =     -416.84452939


--------------------------------------------------------------------------------------------------------




----------------------------------------- Iteration    1(  11)  ---------------------------------------


    POTLOK:  cpu time    0.4400: real time    0.4388
    SETDIJ:  cpu time    0.7880: real time    0.7870
     EDDAV:  cpu time   90.6777: real time   90.7353
       DOS:  cpu time    0.0040: real time    0.0023
    CHARGE:  cpu time    3.3082: real time    3.3102
    MIXING:  cpu time    0.0120: real time    0.0143
    --------------------------------------------
      LOOP:  cpu time   95.2300: real time   95.3276

 eigenvalue-minimisations  :  9800
 total energy-change (2. order) : 0.3526841E-03  (-0.1427007E-02)
 number of electron     400.0000000 magnetization 
 augmentation part        7.9286004 magnetization 

 Broyden mixing:
  rms(total) = 0.19976E-01    rms(broyden)= 0.19975E-01
  rms(prec ) = 0.23747E-01
  weight for this iteration     100.00

 eigenvalues of (default mixing * dielectric matrix)
  average eigenvalue GAMMA=   1.5233
  2.4548  1.9753  1.5182  1.1028  1.0444  1.0444

 Free energy of the ion-electron system (eV)
  ---------------------------------------------------
  alpha Z        PSCENC =       370.05370877
  Ewald energy   TEWEN  =    -15515.44467960
  -Hartree energ DENC   =     -8419.96851398
  -exchange      EXHF   =         0.00000000
  -V(xc)+E(xc)   XCENC  =       418.21092582
  PAW double counting   =     28737.81146681   -27991.00743125
  entropy T*S    EENTRO =         0.00000000
  eigenvalues    EBANDS =     -2765.50633358
  atomic energy  EATOM  =     24749.00668030
  Solvation  Ediel_sol  =         0.00000000
  ---------------------------------------------------
  free energy    TOTEN  =      -416.84417671 eV

  energy without entropy =     -416.84417671  energy(sigma->0) =     -416.84417671


--------------------------------------------------------------------------------------------------------




----------------------------------------- Iteration    1(  12)  ---------------------------------------


    POTLOK:  cpu time    0.4400: real time    0.4393
    SETDIJ:  cpu time    0.7840: real time    0.7868
     EDDAV:  cpu time   91.4857: real time   91.5423
       DOS:  cpu time    0.0000: real time    0.0010
    CHARGE:  cpu time    3.3282: real time    3.3304
    MIXING:  cpu time    0.0160: real time    0.0146
    --------------------------------------------
      LOOP:  cpu time   96.0580: real time   96.1513

 eigenvalue-minimisations  :  9864
 total energy-change (2. order) :-0.1371372E-02  (-0.8976401E-03)
 number of electron     400.0000000 magnetization 
 augmentation part        7.9396153 magnetization 

 Broyden mixing:
  rms(total) = 0.10318E-01    rms(broyden)= 0.10317E-01
  rms(prec ) = 0.12284E-01
  weight for this iteration     100.00

 eigenvalues of (default mixing * dielectric matrix)
  average eigenvalue GAMMA=   1.4711
  2.5658  2.3201  1.3076  1.3076  0.9378  0.9295  0.9295

 Free energy of the ion-electron system (eV)
  ---------------------------------------------------
  alpha Z        PSCENC =       370.05370877
  Ewald energy   TEWEN  =    -15515.44467960
  -Hartree energ DENC   =     -8420.41922859
  -exchange      EXHF   =         0.00000000
  -V(xc)+E(xc)   XCENC  =       418.27252583
  PAW double counting   =     28729.26911664   -27982.48765467
  entropy T*S    EENTRO =         0.00000000
  eigenvalues    EBANDS =     -2765.09601675
  atomic energy  EATOM  =     24749.00668030
  Solvation  Ediel_sol  =         0.00000000
  ---------------------------------------------------
  free energy    TOTEN  =      -416.84554808 eV

  energy without entropy =     -416.84554808  energy(sigma->0) =     -416.84554808


--------------------------------------------------------------------------------------------------------




----------------------------------------- Iteration    1(  13)  ---------------------------------------


    POTLOK:  cpu time    0.4400: real time    0.4395
    SETDIJ:  cpu time    0.7800: real time    0.7794
     EDDAV:  cpu time   80.9171: real time   80.9706
       DOS:  cpu time    0.0000: real time    0.0032
    CHARGE:  cpu time    3.3082: real time    3.3100
    MIXING:  cpu time    0.0160: real time    0.0148
    --------------------------------------------
      LOOP:  cpu time   85.4653: real time   85.5649

 eigenvalue-minimisations  :  8448
 total energy-change (2. order) :-0.1736323E-03  (-0.1231869E-03)
 number of electron     400.0000000 magnetization 
 augmentation part        7.9382153 magnetization 

 Broyden mixing:
  rms(total) = 0.72708E-02    rms(broyden)= 0.72706E-02
  rms(prec ) = 0.83116E-02
  weight for this iteration     100.00

 eigenvalues of (default mixing * dielectric matrix)
  average eigenvalue GAMMA=   1.4553
  2.5975  2.3558  1.5854  1.1300  0.9911  0.9911  0.9958  0.9958

 Free energy of the ion-electron system (eV)
  ---------------------------------------------------
  alpha Z        PSCENC =       370.05370877
  Ewald energy   TEWEN  =    -15515.44467960
  -Hartree energ DENC   =     -8420.67942590
  -exchange      EXHF   =         0.00000000
  -V(xc)+E(xc)   XCENC  =       418.29496319
  PAW double counting   =     28727.44452418   -27980.67370329
  entropy T*S    EENTRO =         0.00000000
  eigenvalues    EBANDS =     -2764.84778937
  atomic energy  EATOM  =     24749.00668030
  Solvation  Ediel_sol  =         0.00000000
  ---------------------------------------------------
  free energy    TOTEN  =      -416.84572171 eV

  energy without entropy =     -416.84572171  energy(sigma->0) =     -416.84572171


--------------------------------------------------------------------------------------------------------




----------------------------------------- Iteration    1(  14)  ---------------------------------------


    POTLOK:  cpu time    0.4360: real time    0.4388
    SETDIJ:  cpu time    0.7840: real time    0.7843
     EDDAV:  cpu time   80.2890: real time   80.3382
       DOS:  cpu time    0.0000: real time    0.0009
    CHARGE:  cpu time    3.3122: real time    3.3126
    MIXING:  cpu time    0.0160: real time    0.0151
    --------------------------------------------
      LOOP:  cpu time   84.8413: real time   84.9299

 eigenvalue-minimisations  :  8408
 total energy-change (2. order) :-0.4189845E-04  (-0.2731171E-04)
 number of electron     400.0000000 magnetization 
 augmentation part        7.9384921 magnetization 

 Broyden mixing:
  rms(total) = 0.31837E-02    rms(broyden)= 0.31836E-02
  rms(prec ) = 0.36885E-02
  weight for this iteration     100.00

 eigenvalues of (default mixing * dielectric matrix)
  average eigenvalue GAMMA=   1.5435
  2.7545  2.7545  1.9372  1.3073  1.0537  1.0537  0.9330  1.0487  1.0487

 Free energy of the ion-electron system (eV)
  ---------------------------------------------------
  alpha Z        PSCENC =       370.05370877
  Ewald energy   TEWEN  =    -15515.44467960
  -Hartree energ DENC   =     -8421.03543934
  -exchange      EXHF   =         0.00000000
  -V(xc)+E(xc)   XCENC  =       418.31840595
  PAW double counting   =     28722.69908077   -27975.91572250
  entropy T*S    EENTRO =         0.00000000
  eigenvalues    EBANDS =     -2764.52779796
  atomic energy  EATOM  =     24749.00668030
  Solvation  Ediel_sol  =         0.00000000
  ---------------------------------------------------
  free energy    TOTEN  =      -416.84576361 eV

  energy without entropy =     -416.84576361  energy(sigma->0) =     -416.84576361


--------------------------------------------------------------------------------------------------------




----------------------------------------- Iteration    1(  15)  ---------------------------------------


    POTLOK:  cpu time    0.4400: real time    0.4404
    SETDIJ:  cpu time    0.8041: real time    0.8024
     EDDAV:  cpu time   79.2810: real time   79.3335
       DOS:  cpu time    0.0040: real time    0.0009
    CHARGE:  cpu time    3.3122: real time    3.3147
    MIXING:  cpu time    0.0160: real time    0.0155
    --------------------------------------------
[...]
   0.830E+01 0.433E-01 0.514E+02   -.831E+01 -.491E-01 -.570E+02   0.396E-02 0.582E-02 0.570E+01   -.781E-08 0.132E-07 0.612E-08
   0.301E+01 0.507E-01 0.527E+02   -.238E+01 -.564E-01 -.583E+02   -.641E+00 0.564E-02 0.567E+01   0.700E-08 0.137E-07 0.151E-07
   0.298E+02 -.392E+02 -.123E+02   -.326E+02 0.438E+02 0.141E+02   0.279E+01 -.464E+01 -.180E+01   -.400E-08 -.512E-08 -.168E-07
   0.311E+02 -.393E+02 -.801E+01   -.341E+02 0.439E+02 0.951E+01   0.295E+01 -.464E+01 -.149E+01   0.113E-07 -.164E-07 -.210E-07
   0.311E+02 -.393E+02 -.801E+01   -.341E+02 0.439E+02 0.951E+01   0.295E+01 -.464E+01 -.149E+01   0.118E-08 -.476E-08 -.818E-08
   0.298E+02 -.392E+02 -.123E+02   -.326E+02 0.438E+02 0.141E+02   0.279E+01 -.464E+01 -.180E+01   0.461E-08 0.753E-08 -.477E-08
   0.311E+02 -.393E+02 -.801E+01   -.341E+02 0.439E+02 0.951E+01   0.295E+01 -.464E+01 -.149E+01   0.489E-08 -.158E-07 0.145E-07
   0.298E+02 -.392E+02 -.123E+02   -.326E+02 0.438E+02 0.141E+02   0.279E+01 -.464E+01 -.180E+01   0.408E-08 -.896E-08 0.184E-07
   0.298E+02 -.392E+02 -.123E+02   -.326E+02 0.438E+02 0.141E+02   0.279E+01 -.464E+01 -.180E+01   -.563E-08 0.935E-08 0.393E-08
   0.311E+02 -.393E+02 -.801E+01   -.341E+02 0.439E+02 0.951E+01   0.295E+01 -.464E+01 -.149E+01   0.508E-08 0.390E-08 0.159E-08
   0.298E+02 0.392E+02 -.124E+02   -.325E+02 -.438E+02 0.142E+02   0.278E+01 0.464E+01 -.181E+01   -.285E-08 -.261E-08 -.939E-08
   0.311E+02 0.393E+02 -.809E+01   -.340E+02 -.439E+02 0.959E+01   0.294E+01 0.464E+01 -.150E+01   0.936E-08 0.393E-08 -.131E-07
   0.311E+02 0.393E+02 -.809E+01   -.340E+02 -.439E+02 0.959E+01   0.294E+01 0.464E+01 -.150E+01   -.231E-09 0.128E-07 -.157E-07
   0.298E+02 0.392E+02 -.124E+02   -.325E+02 -.438E+02 0.142E+02   0.278E+01 0.464E+01 -.181E+01   0.686E-08 0.466E-08 -.123E-07
   0.311E+02 0.393E+02 -.809E+01   -.340E+02 -.439E+02 0.959E+01   0.294E+01 0.464E+01 -.150E+01   0.158E-08 0.967E-09 0.533E-08
   0.298E+02 0.392E+02 -.124E+02   -.325E+02 -.438E+02 0.142E+02   0.278E+01 0.464E+01 -.181E+01   -.224E-08 -.106E-07 0.969E-08
   0.298E+02 0.392E+02 -.124E+02   -.325E+02 -.438E+02 0.142E+02   0.278E+01 0.464E+01 -.181E+01   -.269E-08 0.584E-08 0.126E-07
   0.311E+02 0.393E+02 -.809E+01   -.340E+02 -.439E+02 0.959E+01   0.294E+01 0.464E+01 -.150E+01   0.117E-07 0.156E-07 0.106E-07
   -.322E+02 -.483E+02 0.187E+02   0.356E+02 0.538E+02 -.207E+02   -.348E+01 -.552E+01 0.208E+01   -.252E-08 -.612E-08 -.262E-07
   -.346E+02 -.481E+02 0.160E+02   0.383E+02 0.536E+02 -.177E+02   -.366E+01 -.552E+01 0.169E+01   -.473E-08 -.863E-08 -.188E-07
   -.346E+02 -.481E+02 0.160E+02   0.383E+02 0.536E+02 -.177E+02   -.366E+01 -.552E+01 0.169E+01   -.577E-08 0.870E-08 -.124E-07
   -.322E+02 -.483E+02 0.187E+02   0.356E+02 0.538E+02 -.207E+02   -.348E+01 -.552E+01 0.208E+01   0.721E-09 0.697E-08 -.505E-08
   -.346E+02 -.481E+02 0.160E+02   0.383E+02 0.536E+02 -.177E+02   -.366E+01 -.552E+01 0.169E+01   -.117E-07 -.179E-07 0.221E-07
   -.322E+02 -.483E+02 0.187E+02   0.356E+02 0.538E+02 -.207E+02   -.348E+01 -.552E+01 0.208E+01   -.446E-08 -.120E-07 0.136E-07
   -.322E+02 -.483E+02 0.187E+02   0.356E+02 0.538E+02 -.207E+02   -.348E+01 -.552E+01 0.208E+01   0.624E-08 0.291E-07 0.662E-08
   -.346E+02 -.481E+02 0.160E+02   0.383E+02 0.536E+02 -.177E+02   -.366E+01 -.552E+01 0.169E+01   0.112E-08 0.144E-07 -.209E-08
   -.322E+02 0.483E+02 0.186E+02   0.357E+02 -.538E+02 -.206E+02   -.348E+01 0.552E+01 0.207E+01   0.900E-09 -.769E-08 -.198E-07
   -.347E+02 0.481E+02 0.159E+02   0.383E+02 -.536E+02 -.176E+02   -.366E+01 0.552E+01 0.168E+01   -.645E-08 0.314E-09 -.118E-07
   -.347E+02 0.481E+02 0.159E+02   0.383E+02 -.536E+02 -.176E+02   -.366E+01 0.552E+01 0.168E+01   -.885E-08 0.719E-08 -.189E-07
   -.322E+02 0.483E+02 0.186E+02   0.357E+02 -.538E+02 -.206E+02   -.348E+01 0.552E+01 0.207E+01   0.180E-08 -.790E-09 -.114E-07
   -.347E+02 0.481E+02 0.159E+02   0.383E+02 -.536E+02 -.176E+02   -.366E+01 0.552E+01 0.168E+01   0.209E-08 -.176E-07 0.126E-07
   -.322E+02 0.483E+02 0.186E+02   0.357E+02 -.538E+02 -.206E+02   -.348E+01 0.552E+01 0.207E+01   0.374E-08 -.185E-07 0.697E-08
   -.322E+02 0.483E+02 0.186E+02   0.357E+02 -.538E+02 -.206E+02   -.348E+01 0.552E+01 0.207E+01   -.653E-08 0.915E-08 0.135E-07
   -.347E+02 0.481E+02 0.159E+02   0.383E+02 -.536E+02 -.176E+02   -.366E+01 0.552E+01 0.168E+01   -.799E-08 0.137E-07 0.648E-08
   0.302E+00 -.661E-01 -.629E+02   0.101E+00 0.722E-01 0.697E+02   -.418E+00 -.603E-02 -.687E+01   -.122E-07 -.110E-07 -.156E-07
   0.697E+01 -.786E-01 -.651E+02   -.741E+01 0.877E-01 0.721E+02   0.434E+00 -.909E-02 -.706E+01   -.422E-08 -.117E-07 -.138E-07
   0.697E+01 -.786E-01 -.651E+02   -.741E+01 0.877E-01 0.721E+02   0.434E+00 -.909E-02 -.706E+01   -.145E-07 0.124E-07 -.126E-07
   0.302E+00 -.661E-01 -.629E+02   0.101E+00 0.722E-01 0.697E+02   -.418E+00 -.603E-02 -.687E+01   0.256E-08 0.955E-08 0.409E-08
   0.697E+01 -.786E-01 -.651E+02   -.741E+01 0.877E-01 0.721E+02   0.434E+00 -.909E-02 -.706E+01   0.626E-09 -.215E-08 0.938E-08
   0.302E+00 -.661E-01 -.629E+02   0.101E+00 0.722E-01 0.697E+02   -.418E+00 -.603E-02 -.687E+01   0.219E-08 -.425E-08 0.193E-07
   0.302E+00 -.661E-01 -.629E+02   0.101E+00 0.722E-01 0.697E+02   -.418E+00 -.603E-02 -.687E+01   -.495E-08 0.563E-08 0.107E-07
   0.697E+01 -.786E-01 -.651E+02   -.741E+01 0.877E-01 0.721E+02   0.434E+00 -.909E-02 -.706E+01   -.407E-08 0.158E-08 0.217E-08
   -.311E+02 0.355E+01 -.116E+02   0.300E+02 -.353E+01 0.113E+02   0.111E+01 -.248E-01 0.280E+00   0.859E-07 -.248E-07 -.112E-06
   -.311E+02 -.341E+01 -.116E+02   0.300E+02 0.338E+01 0.113E+02   0.111E+01 0.348E-01 0.280E+00   -.559E-07 0.818E-07 -.837E-07
   -.311E+02 -.341E+01 -.116E+02   0.300E+02 0.338E+01 0.113E+02   0.111E+01 0.348E-01 0.280E+00   0.114E-06 0.504E-08 0.121E-06
   -.311E+02 0.355E+01 -.116E+02   0.300E+02 -.353E+01 0.113E+02   0.111E+01 -.248E-01 0.280E+00   -.747E-07 -.660E-07 0.888E-07
   -.311E+02 -.341E+01 -.116E+02   0.300E+02 0.338E+01 0.113E+02   0.111E+01 0.348E-01 0.280E+00   0.348E-07 -.152E-06 0.741E-08
   -.311E+02 0.355E+01 -.116E+02   0.300E+02 -.353E+01 0.113E+02   0.111E+01 -.248E-01 0.280E+00   0.149E-07 -.118E-06 0.493E-07
   -.311E+02 0.355E+01 -.116E+02   0.300E+02 -.353E+01 0.113E+02   0.111E+01 -.248E-01 0.280E+00   0.151E-07 0.120E-06 -.116E-06
   -.311E+02 -.341E+01 -.116E+02   0.300E+02 0.338E+01 0.113E+02   0.111E+01 0.348E-01 0.280E+00   -.255E-07 0.827E-07 -.750E-07
   -.172E+02 -.154E+01 0.558E+01   0.174E+02 0.157E+01 -.552E+01   -.158E+00 -.335E-01 -.657E-01   0.139E-07 -.171E-07 -.181E-06
   -.173E+02 0.162E+01 0.557E+01   0.175E+02 -.166E+01 -.551E+01   -.159E+00 0.346E-01 -.658E-01   -.153E-08 -.166E-07 -.127E-06
   -.173E+02 0.162E+01 0.557E+01   0.175E+02 -.166E+01 -.551E+01   -.159E+00 0.346E-01 -.658E-01   0.221E-07 0.171E-07 -.644E-07
   -.172E+02 -.154E+01 0.558E+01   0.174E+02 0.157E+01 -.552E+01   -.158E+00 -.335E-01 -.657E-01   -.724E-08 0.157E-07 -.139E-07
   -.173E+02 0.162E+01 0.557E+01   0.175E+02 -.166E+01 -.551E+01   -.159E+00 0.346E-01 -.658E-01   0.857E-08 -.202E-07 0.183E-06
   -.172E+02 -.154E+01 0.558E+01   0.174E+02 0.157E+01 -.552E+01   -.158E+00 -.335E-01 -.657E-01   -.290E-08 0.373E-08 0.118E-06
   -.172E+02 -.154E+01 0.558E+01   0.174E+02 0.157E+01 -.552E+01   -.158E+00 -.335E-01 -.657E-01   0.219E-07 0.181E-07 0.577E-07
   -.173E+02 0.162E+01 0.557E+01   0.175E+02 -.166E+01 -.551E+01   -.159E+00 0.346E-01 -.658E-01   -.401E-08 -.306E-08 0.114E-08
   -.250E+02 -.537E-01 -.141E+02   0.250E+02 0.550E-01 0.147E+02   -.473E-01 -.966E-03 -.526E+00   0.147E-07 -.609E-08 -.212E-07
   -.344E+01 -.541E-01 -.175E+02   0.323E+01 0.554E-01 0.182E+02   0.199E+00 -.984E-03 -.695E+00   -.685E-08 0.179E-07 0.305E-08
   -.344E+01 -.541E-01 -.175E+02   0.323E+01 0.554E-01 0.182E+02   0.199E+00 -.984E-03 -.695E+00   0.652E-08 0.832E-08 -.860E-08
   -.250E+02 -.537E-01 -.141E+02   0.250E+02 0.550E-01 0.147E+02   -.473E-01 -.966E-03 -.526E+00   0.398E-08 -.153E-07 -.952E-08
   -.344E+01 -.541E-01 -.175E+02   0.323E+01 0.554E-01 0.182E+02   0.199E+00 -.984E-03 -.695E+00   0.589E-08 -.140E-06 0.410E-07
   -.250E+02 -.537E-01 -.141E+02   0.250E+02 0.550E-01 0.147E+02   -.473E-01 -.966E-03 -.526E+00   -.695E-08 -.112E-06 0.128E-07
   -.250E+02 -.537E-01 -.141E+02   0.250E+02 0.550E-01 0.147E+02   -.473E-01 -.966E-03 -.526E+00   0.238E-07 0.143E-06 0.277E-07
   -.344E+01 -.541E-01 -.175E+02   0.323E+01 0.554E-01 0.182E+02   0.199E+00 -.984E-03 -.695E+00   -.125E-07 0.111E-06 0.263E-07
   0.394E+01 0.457E+00 -.307E+01   -.340E+01 -.383E+00 0.266E+01   -.541E+00 -.570E-01 0.419E+00   -.733E-07 0.176E-07 -.330E-07
   0.394E+01 -.440E+00 -.310E+01   -.340E+01 0.367E+00 0.269E+01   -.541E+00 0.557E-01 0.419E+00   0.662E-07 -.763E-08 -.344E-07
   0.394E+01 -.440E+00 -.310E+01   -.340E+01 0.367E+00 0.269E+01   -.541E+00 0.557E-01 0.419E+00   -.479E-07 -.202E-08 0.175E-07
   0.394E+01 0.457E+00 -.307E+01   -.340E+01 -.383E+00 0.266E+01   -.541E+00 -.570E-01 0.419E+00   0.313E-07 -.908E-08 0.185E-07
   0.394E+01 -.440E+00 -.310E+01   -.340E+01 0.367E+00 0.269E+01   -.541E+00 0.557E-01 0.419E+00   -.163E-07 -.339E-07 0.377E-07
   0.394E+01 0.457E+00 -.307E+01   -.340E+01 -.383E+00 0.266E+01   -.541E+00 -.570E-01 0.419E+00   0.152E-08 -.279E-07 0.363E-07
   0.394E+01 0.457E+00 -.307E+01   -.340E+01 -.383E+00 0.266E+01   -.541E+00 -.570E-01 0.419E+00   0.148E-07 0.322E-07 -.260E-07
   0.394E+01 -.440E+00 -.310E+01   -.340E+01 0.367E+00 0.269E+01   -.541E+00 0.557E-01 0.419E+00   -.166E-07 0.284E-07 -.252E-07
 -----------------------------------------------------------------------------------------------
   -.534E+02 -.106E+00 -.235E+02   0.224E-12 -.241E-12 0.187E-12   0.534E+02 0.106E+00 0.235E+02   -.208E-06 -.690E-07 -.276E-06
 
 
 POSITION                                       TOTAL-FORCE (eV/Angst)
 -----------------------------------------------------------------------------------
      2.51380      3.11332      2.94331         0.035707     -0.000146     -0.013876
      8.79417      3.11491      3.01603         0.038029     -0.000151     -0.008822
      2.50635      9.34272      2.94655         0.038029     -0.000151     -0.008822
      8.80282      9.34305      3.01204         0.035707     -0.000146     -0.013876
      2.57546      3.11400      9.32064         0.038029     -0.000151     -0.008822
      8.87192      3.11433      9.38612         0.035707     -0.000146     -0.013876
      2.58410      9.34214      9.31665         0.035707     -0.000146     -0.013876
      8.86447      9.34373      9.38936         0.038029     -0.000151     -0.008822
      3.90515      3.11484      3.45574        -0.012490     -0.000247      0.007001
     10.12046      3.11619      3.67979        -0.014865     -0.000253     -0.000625
      3.83264      9.34400      3.61032        -0.014865     -0.000253     -0.000625
     10.19417      9.34457      3.52447        -0.012490     -0.000247      0.007001
      3.90175      3.11528      9.98440        -0.014865     -0.000253     -0.000625
     10.26328      3.11584      9.89855        -0.012490     -0.000247      0.007001
      3.97545      9.34365      9.82908        -0.012490     -0.000247      0.007001
     10.19076      9.34501     10.05313        -0.014865     -0.000253     -0.000625
      2.54132      3.11224      1.84265         0.001946      0.000009      0.057944
      8.94593      3.11384      1.92568        -0.005629      0.000009      0.058249
      2.65811      9.34165      1.85621        -0.005629      0.000009      0.058249
      8.83033      9.34197      1.91138         0.001946      0.000009      0.057944
      2.72722      3.11293      8.23029        -0.005629      0.000009      0.058249
      8.89944      3.11324      8.28546         0.001946      0.000009      0.057944
      2.61162      9.34105      8.21599         0.001946      0.000009      0.057944
      9.01624      9.34266      8.29902        -0.005629      0.000009      0.058249
      1.99855      4.01527      3.30524         0.016056     -0.009899     -0.003509
      8.24405      4.01776      3.32036         0.016317     -0.009917     -0.002013
      1.95623     10.24557      3.25088         0.016317     -0.009917     -0.002013
      8.28756     10.24499      3.37397         0.016056     -0.009899     -0.003509
      2.02534      4.01684      9.62497         0.016317     -0.009917     -0.002013
      8.35667      4.01627      9.74805         0.016056     -0.009899     -0.003509
      2.06885     10.24408      9.67858         0.016056     -0.009899     -0.003509
      8.31435     10.24657      9.69369         0.016317     -0.009917     -0.002013
      1.99998      2.21127      3.30703         0.015930      0.010220     -0.003711
      8.24495      2.21216      3.32227         0.016212      0.010231     -0.002207
      1.95713      8.43997      3.25279         0.016212      0.010231     -0.002207
      8.28900      8.44100      3.37575         0.015930      0.010220     -0.003711
      2.02624      2.21124      9.62688         0.016212      0.010231     -0.002207
      8.35810      2.21227      9.74984         0.015930      0.010220     -0.003711
      2.07028      8.44008      9.68037         0.015930      0.010220     -0.003711
      8.31525      8.44097      9.69560         0.016212      0.010231     -0.002207
      4.43521      3.96003      3.13830        -0.019624     -0.014480      0.006393
     10.68075      3.96217      3.41955        -0.020757     -0.014854      0.004472
      4.39293     10.18998      3.35008        -0.020757     -0.014854      0.004472
     10.72422     10.18975      3.20702        -0.019624     -0.014480      0.006393
      4.46204      3.96126      9.72416        -0.020757     -0.014854      0.004472
     10.79333      3.96103      9.58111        -0.019624     -0.014480      0.006393
      4.50551     10.18884      9.51163        -0.019624     -0.014480      0.006393
     10.75106     10.19099      9.79289        -0.020757     -0.014854      0.004472
      4.43627      2.26969      3.13984        -0.019821      0.014708      0.006045
     10.68118      2.26981      3.42166        -0.020927      0.015096      0.004083
      4.39336      8.49762      3.35218        -0.020927      0.015096      0.004083
     10.72529      8.49941      3.20857        -0.019821      0.014708      0.006045
      4.46247      2.26890      9.72627        -0.020927      0.015096      0.004083
     10.79439      2.27069      9.58265        -0.019821      0.014708      0.006045
      4.50657      8.49850      9.51318        -0.019821      0.014708      0.006045
     10.75148      8.49862      9.79499        -0.020927      0.015096      0.004083
      3.96319      3.11576      4.50041        -0.015352      0.000023     -0.053893
     10.05082      3.11752      4.71832        -0.006014      0.000013     -0.052932
      3.76300      9.34533      4.64884        -0.006014      0.000013     -0.052932
     10.25221      9.34549      4.56913        -0.015352      0.000023     -0.053893
      3.83210      3.11661     11.02293        -0.006014      0.000013     -0.052932
     10.32132      3.11676     10.94322        -0.015352      0.000023     -0.053893
      4.03350      9.34457     10.87374        -0.015352      0.000023     -0.053893
     10.12112      9.34634     11.09165        -0.006014      0.000013     -0.052932
      6.01055      6.21969      6.29598        -0.000559     -0.002479      0.001157
     12.29901      6.24045      6.36513        -0.000558      0.002078      0.001185
      6.00999      0.01072      6.29640        -0.000558      0.002078      0.001185
     12.29956     12.44942      6.36470        -0.000559     -0.002479      0.001157
      6.08029      6.23954     12.66974        -0.000558      0.002078      0.001185
     12.36867      6.22069     12.73879        -0.000559     -0.002479      0.001157
      6.08085     12.44850     12.66931        -0.000559     -0.002479      0.001157
     12.36811      0.01173     12.73921        -0.000558      0.002078      0.001185
      5.75272      6.25005      3.09092         0.000417      0.002149     -0.003387
     12.04161      6.21001      3.16000         0.000469     -0.002500     -0.003388
      5.75378     12.43782      3.09053         0.000469     -0.002500     -0.003388
     12.04054      0.02224      3.16039         0.000417      0.002149     -0.003387
      5.82289      6.20910      9.46461         0.000469     -0.002500     -0.003388
     12.11085      6.25105      9.53373         0.000417      0.002149     -0.003387
      5.82183      0.02132      9.46500         0.000417      0.002149     -0.003387
     12.11191     12.43882      9.53334         0.000469     -0.002500     -0.003388
      5.81029      3.11497      0.20752         0.018730      0.000309     -0.011622
     11.79201      3.11596      0.28714        -0.013451      0.000313     -0.012951
      5.50419      9.34377      0.21767        -0.013451      0.000313     -0.012951
     12.09931      9.34470      0.27625         0.018730      0.000309     -0.011622
      5.57329      3.11504      6.59175        -0.013451      0.000313     -0.012951
     12.16842      3.11597      6.65033         0.018730      0.000309     -0.011622
      5.88060      9.34379      6.58086         0.018730      0.000309     -0.011622
     11.86231      9.34477      6.66048        -0.013451      0.000313     -0.012951
      2.78363      6.40352      5.90929        -0.004881      0.016482      0.013211
      9.07209      6.05582      5.97804        -0.004882     -0.016712      0.013195
      2.78427     12.28363      5.90857        -0.004882     -0.016712      0.013195
      9.07145      0.17571      5.97877        -0.004881      0.016482      0.013211
      2.85338      6.05491     12.28265        -0.004882     -0.016712      0.013195
      9.14176      6.40452     12.35210        -0.004881      0.016482      0.013211
      2.85274      0.17480     12.28338        -0.004881      0.016482      0.013211
      9.14239     12.28463     12.35138        -0.004882     -0.016712      0.013195
 -----------------------------------------------------------------------------------
    total drift:                                0.004228     -0.000036     -0.000797


--------------------------------------------------------------------------------------------------------



  FREE ENERGIE OF THE ION-ELECTRON SYSTEM (eV)
  ---------------------------------------------------
  free  energy   TOTEN  =      -416.84580930 eV

  energy  without entropy=     -416.84580930  energy(sigma->0) =     -416.84580930
 


--------------------------------------------------------------------------------------------------------


    POTLOK:  cpu time    1.6401: real time    1.6427


--------------------------------------------------------------------------------------------------------


     LOOP+:  cpu time 3077.0603: real time 3080.1419
    4ORBIT:  cpu time    0.0000: real time    0.0000

 total amount of memory used by VASP on root node   697522. kBytes
========================================================================

   base      :      30000. kBytes
   nonl-proj :     325712. kBytes
   fftplans  :      80881. kBytes
   grid      :      57435. kBytes
   one-center:        497. kBytes
   wavefun   :     202997. kBytes
 
  
  
 General timing and accounting informations for this job:
 ========================================================
  
                  Total CPU time used (sec):     3106.570
                            User time (sec):     3105.198
                          System time (sec):        1.372
                         Elapsed time (sec):     3109.953
  
                   Maximum memory used (kb):      647720.
                   Average memory used (kb):           0.
  
                          Minor page faults:       275951
                          Major page faults:            0
                 Voluntary context switches:         2273
