       N       E                     dE             d eps       ncg     rms          ort
DAV:   1     0.656808029859E+03    0.65681E+03   -0.43604E+04  2128   0.216E+03
DAV:   2     0.132345302809E+03   -0.52446E+03   -0.50424E+03  2128   0.727E+02
DAV:   3     0.356909312037E+02   -0.96654E+02   -0.91119E+02  2128   0.213E+02
DAV:   4     0.286353086637E+02   -0.70556E+01   -0.69682E+01  2128   0.562E+01
DAV:   5     0.284282461271E+02   -0.20706E+00   -0.20682E+00  2128   0.749E+00
