 vasp.5.4.1 24Jun15 (build Nov 25 2015 16:39:35) complex                        
  
 executed on         CrayXC-Intel date 2016.09.26  11:32:36
 running on   24 total cores
 distrk:  each k-point on   24 cores,    1 groups
 distr:  one band on NCORES_PER_BAND=  24 cores,    1 groups


--------------------------------------------------------------------------------------------------------


 INCAR:
 POTCAR:    PAW_PBE Cd 06Sep2000                  
 POTCAR:    PAW_PBE Te 08Apr2002                  

 ----------------------------------------------------------------------------- 
|                                                                             |
|           W    W    AA    RRRRR   N    N  II  N    N   GGGG   !!!           |
|           W    W   A  A   R    R  NN   N  II  NN   N  G    G  !!!           |
|           W    W  A    A  R    R  N N  N  II  N N  N  G       !!!           |
|           W WW W  AAAAAA  RRRRR   N  N N  II  N  N N  G  GGG   !            |
|           WW  WW  A    A  R   R   N   NN  II  N   NN  G    G                |
|           W    W  A    A  R    R  N    N  II  N    N   GGGG   !!!           |
|                                                                             |
|      For optimal performance we recommend to set                            |
|        NCORE= 4 - approx SQRT( number of cores)                             |
|      NCORE specifies how many cores store one orbital (NPAR=cpu/NCORE).     |
|      This setting can  greatly improve the performance of VASP for DFT.     |
|      The default, NPAR=number of cores might be grossly inefficient         |
|      on modern multi-core architectures or massively parallel machines.     |
|      Do your own testing !!!!                                               |
|      Unfortunately you need to use the default for GW and RPA calculations. |
|      (for HF NCORE is supported but not extensively tested yet)             |
|                                                                             |
 ----------------------------------------------------------------------------- 

 POTCAR:    PAW_PBE Cd 06Sep2000                  
   VRHFIN =Cd : s2 d10                                                          
   LEXCH  = PE                                                                  
   EATOM  =  1293.1815 eV,   95.0462 Ry                                         
                                                                                
   TITEL  = PAW_PBE Cd 06Sep2000                                                
   LULTRA =        F    use ultrasoft PP ?                                      
   IUNSCR =        1    unscreen: 0-lin 1-nonlin 2-no                           
   RPACOR =    2.000    partial core radius                                     
   POMASS =  112.411; ZVAL   =   12.000    mass and valenz                      
   RCORE  =    2.300    outmost cutoff radius                                   
   RWIGS  =    2.980; RWIGS  =    1.577    wigner-seitz radius (au A)           
   ENMAX  =  274.336; ENMIN  =  205.752 eV                                      
   RCLOC  =    2.054    cutoff for local pot                                    
   LCOR   =        T    correct aug charges                                     
   LPAW   =        T    paw PP                                                  
   EAUG   =  456.106                                                            
   DEXC   =    0.000                                                            
   RMAX   =    2.358    core radius for proj-oper                               
   RAUG   =    1.300    factor for augmentation sphere                          
   RDEP   =    2.450    radius for radial grids                                 
   RDEPT  =    1.955    core radius for aug-charge                              
                                                                                
   Atomic configuration                                                         
   12 entries                                                                   
     n  l   j            E        occ.                                          
     1  0  0.50    -26519.7817   2.0000                                         
     2  0  0.50     -3936.9612   2.0000                                         
     2  1  1.50     -3532.2230   6.0000                                         
     3  0  0.50      -733.7908   2.0000                                         
     3  1  1.50      -601.0792   6.0000                                         
     3  2  2.50      -393.5307  10.0000                                         
     4  0  0.50      -105.8977   2.0000                                         
     4  1  1.50       -66.9488   6.0000                                         
     4  2  2.50       -11.7331  10.0000                                         
     5  0  0.50        -5.6592   2.0000                                         
     5  1  0.50        -1.3606   0.0000                                         
     4  3  2.50        -1.3606   0.0000                                         
   Description                                                                  
     l       E           TYP  RCUT    TYP  RCUT                                 
     2    -11.7331479     23  2.300                                             
     2    -13.0937305     23  2.300                                             
     0     -5.6591502     23  2.300                                             
     0     -1.5561433     23  2.300                                             
     1     -2.7211652     23  2.300                                             
     1      8.3548275     23  2.300                                             
  local pseudopotential read in
  partial core-charges read in
  partial kinetic energy density read in
  atomic valenz-charges read in
  non local Contribution for L=           2  read in
    real space projection operators read in
  non local Contribution for L=           2  read in
    real space projection operators read in
  non local Contribution for L=           0  read in
    real space projection operators read in
  non local Contribution for L=           0  read in
    real space projection operators read in
  non local Contribution for L=           1  read in
    real space projection operators read in
  non local Contribution for L=           1  read in
    real space projection operators read in
    PAW grid and wavefunctions read in
 
   number of l-projection  operators is LMAX  =           6
   number of lm-projection operators is LMMAX =          18
 
 POTCAR:    PAW_PBE Te 08Apr2002                  
   VRHFIN =Te: s2p4                                                             
   LEXCH  = PE                                                                  
   EATOM  =   223.2721 eV,   16.4100 Ry                                         
                                                                                
   TITEL  = PAW_PBE Te 08Apr2002                                                
   LULTRA =        F    use ultrasoft PP ?                                      
   IUNSCR =        1    unscreen: 0-lin 1-nonlin 2-no                           
   RPACOR =    2.200    partial core radius                                     
   POMASS =  127.600; ZVAL   =    6.000    mass and valenz                      
   RCORE  =    2.300    outmost cutoff radius                                   
   RWIGS  =    2.900; RWIGS  =    1.535    wigner-seitz radius (au A)           
   ENMAX  =  174.982; ENMIN  =  131.236 eV                                      
   ICORE  =        3    local potential                                         
   LCOR   =        T    correct aug charges                                     
   LPAW   =        T    paw PP                                                  
   EAUG   =  368.792                                                            
   DEXC   =    0.000                                                            
   RMAX   =    2.345    core radius for proj-oper                               
   RAUG   =    1.300    factor for augmentation sphere                          
   RDEP   =    2.397    radius for radial grids                                 
   RDEPT  =    2.174    core radius for aug-charge                              
                                                                                
   Atomic configuration                                                         
   13 entries                                                                   
     n  l   j            E        occ.                                          
     1  0  0.50    -31621.2075   2.0000                                         
     2  0  0.50     -4848.7941   2.0000                                         
     2  1  1.50     -4352.1960   6.0000                                         
     3  0  0.50      -964.9612   2.0000                                         
     3  1  1.50      -803.6179   6.0000                                         
     3  2  2.50      -559.8710  10.0000                                         
     4  0  0.50      -164.3522   2.0000                                         
     4  1  1.50      -114.3756   6.0000                                         
     4  2  2.50       -41.6483  10.0000                                         
     5  0  0.50       -15.1072   2.0000                                         
     5  1  0.50        -5.9526   4.0000                                         
     5  2  1.50        -5.4423   0.0000                                         
     4  3  2.50        -5.4423   0.0000                                         
   Description                                                                  
     l       E           TYP  RCUT    TYP  RCUT                                 
     0    -15.1072389     23  2.300                                             
     0    -16.4678215     23  2.300                                             
     1     -5.9526306     23  2.300                                             
     1     -2.4873968     23  2.300                                             
     2     -5.4423304     23  2.300                                             
     3     -1.3605826     23  2.300                                             
  local pseudopotential read in
  partial core-charges read in
  partial kinetic energy density read in
  atomic valenz-charges read in
  non local Contribution for L=           0  read in
    real space projection operators read in
  non local Contribution for L=           0  read in
    real space projection operators read in
  non local Contribution for L=           1  read in
    real space projection operators read in
  non local Contribution for L=           1  read in
    real space projection operators read in
  non local Contribution for L=           2  read in
    real space projection operators read in
    PAW grid and wavefunctions read in
 
   number of l-projection  operators is LMAX  =           5
   number of lm-projection operators is LMMAX =          13
 
  PAW_PBE Cd 06Sep2000                  :
 energy of atom  1       EATOM=-1293.1815
 kinetic energy error for atom=    0.0063 (will be added to EATOM!!)
  PAW_PBE Te 08Apr2002                  :
 energy of atom  2       EATOM= -223.2721
 kinetic energy error for atom=    0.0007 (will be added to EATOM!!)
 
 
 POSCAR: CdTe (ICSD, 295K, Rabadanov 2001)       
  positions in direct lattice
  No initial velocities read in
 exchange correlation table for  LEXCH =        8
   RHO(1)=    0.500       N(1)  =     2000
   RHO(2)=  100.500       N(2)  =     4000
 


--------------------------------------------------------------------------------------------------------


 ion  position               nearest neighbor table
   1  0.000  0.000  0.000-   2 2.81   2 2.81   2 2.81   2 2.81
   2  0.250  0.250  0.250-   1 2.81   1 2.81   1 2.81   1 2.81
 
  LATTYP: Found a face centered cubic cell.
 ALAT       =     6.4827000000
  
  Lattice vectors:
  
 A1 = (   3.2413500000,   3.2413500000,   0.0000000000)
 A2 = (   3.2413500000,   0.0000000000,  -3.2413500000)
 A3 = (   0.0000000000,   3.2413500000,  -3.2413500000)


Analysis of symmetry for initial positions (statically):
=====================================================================
 Subroutine PRICEL returns:
 Original cell was already a primitive cell.
 

 Routine SETGRP: Setting up the symmetry group for a 
 face centered cubic supercell.


 Subroutine GETGRP returns: Found 24 space group operations
 (whereof 24 operations were pure point group operations)
 out of a pool of 48 trial point group operations.


The static configuration has the point symmetry T_d .


Analysis of symmetry for dynamics (positions and initial velocities):
=====================================================================
 Subroutine PRICEL returns:
 Original cell was already a primitive cell.
 

 Routine SETGRP: Setting up the symmetry group for a 
 face centered cubic supercell.


 Subroutine GETGRP returns: Found 24 space group operations
 (whereof 24 operations were pure point group operations)
 out of a pool of 48 trial point group operations.


The dynamic configuration has the point symmetry T_d .


Analysis of structural, dynamic, and magnetic symmetry:
=====================================================================
 Subroutine PRICEL returns:
 Original cell was already a primitive cell.
 

 Routine SETGRP: Setting up the symmetry group for a 
 face centered cubic supercell.


 Subroutine GETGRP returns: Found  3 space group operations
 (whereof  3 operations were pure point group operations)
 out of a pool of 48 trial point group operations.


The (compounded) configuration has the point symmetry C_3 .


 Subroutine INISYM returns: Found  3 space group operations
 (whereof  3 operations are pure point group operations),
 and found     1 'primitive' translations

 
 
 KPOINTS: Automatic mesh                          

Automatic generation of k-mesh.
Space group operators:
 irot       det(A)        alpha          n_x          n_y          n_z        tau_x        tau_y        tau_z
    1     1.000000     0.000000     1.000000     0.000000     0.000000     0.000000     0.000000     0.000000
    2     1.000000   120.000000     0.577350     0.577350     0.577350     0.000000     0.000000     0.000000
    3     1.000000   120.000000    -0.577350    -0.577350    -0.577350     0.000000     0.000000     0.000000
 
 Subroutine IBZKPT returns following result:
 ===========================================
 
 Found     76 irreducible k-points:
 
 Following reciprocal coordinates:
            Coordinates               Weight
  0.000000  0.000000  0.000000      1.000000
  0.166667  0.000000  0.000000      1.000000
  0.333333  0.000000  0.000000      1.000000
  0.500000  0.000000  0.000000      1.000000
 -0.333333  0.000000  0.000000      1.000000
 -0.166667  0.000000  0.000000      1.000000
  0.000000  0.166667  0.000000      3.000000
  0.166667  0.166667  0.000000      3.000000
  0.333333  0.166667  0.000000      3.000000
  0.500000  0.166667  0.000000      3.000000
 -0.333333  0.166667  0.000000      3.000000
 -0.166667  0.166667  0.000000      3.000000
  0.000000  0.333333  0.000000      3.000000
  0.166667  0.333333  0.000000      3.000000
  0.333333  0.333333  0.000000      3.000000
  0.500000  0.333333  0.000000      3.000000
 -0.333333  0.333333  0.000000      3.000000
 -0.166667  0.333333  0.000000      3.000000
  0.000000  0.500000  0.000000      3.000000
  0.166667  0.500000  0.000000      3.000000
  0.333333  0.500000  0.000000      3.000000
  0.500000  0.500000  0.000000      3.000000
 -0.333333  0.500000  0.000000      3.000000
 -0.166667  0.500000  0.000000      3.000000
  0.000000 -0.333333  0.000000      3.000000
  0.166667 -0.333333  0.000000      3.000000
  0.333333 -0.333333  0.000000      3.000000
  0.500000 -0.333333  0.000000      3.000000
 -0.333333 -0.333333  0.000000      3.000000
 -0.166667 -0.333333  0.000000      3.000000
  0.000000 -0.166667  0.000000      3.000000
  0.166667 -0.166667  0.000000      3.000000
  0.333333 -0.166667  0.000000      3.000000
  0.500000 -0.166667  0.000000      3.000000
 -0.333333 -0.166667  0.000000      3.000000
 -0.166667 -0.166667  0.000000      3.000000
  0.000000  0.333333  0.166667      3.000000
  0.166667  0.333333  0.166667      3.000000
  0.333333  0.333333  0.166667      3.000000
  0.500000  0.333333  0.166667      3.000000
 -0.333333  0.333333  0.166667      3.000000
 -0.166667  0.333333  0.166667      3.000000
  0.000000  0.500000  0.166667      3.000000
  0.166667  0.500000  0.166667      3.000000
  0.333333  0.500000  0.166667      3.000000
  0.500000  0.500000  0.166667      3.000000
 -0.333333  0.500000  0.166667      3.000000
 -0.166667  0.500000  0.166667      3.000000
  0.000000 -0.333333  0.166667      3.000000
  0.166667 -0.333333  0.166667      3.000000
  0.333333 -0.333333  0.166667      3.000000
  0.500000 -0.333333  0.166667      3.000000
 -0.333333 -0.333333  0.166667      3.000000
 -0.166667 -0.333333  0.166667      3.000000
  0.000000  0.166667  0.333333      3.000000
  0.166667  0.166667  0.333333      3.000000
  0.333333  0.166667  0.333333      3.000000
  0.500000  0.166667  0.333333      3.000000
 -0.333333  0.166667  0.333333      3.000000
 -0.166667  0.166667  0.333333      3.000000
  0.000000 -0.333333  0.333333      3.000000
  0.166667 -0.333333  0.333333      3.000000
  0.000000  0.166667  0.500000      3.000000
  0.166667  0.166667  0.500000      3.000000
  0.333333  0.166667  0.500000      3.000000
  0.500000  0.166667  0.500000      3.000000
 -0.333333  0.166667  0.500000      3.000000
 -0.166667  0.166667  0.500000      3.000000
  0.000000  0.333333  0.500000      3.000000
  0.166667  0.333333  0.500000      3.000000
  0.333333  0.333333  0.500000      3.000000
  0.500000  0.333333  0.500000      3.000000
 -0.333333  0.333333  0.500000      3.000000
 -0.166667  0.333333  0.500000      3.000000
  0.000000  0.333333 -0.333333      3.000000
  0.166667  0.333333 -0.333333      3.000000
 
 Following cartesian coordinates:
            Coordinates               Weight
  0.000000  0.000000  0.000000      1.000000
  0.166667  0.166667  0.166667      1.000000
  0.333333  0.333333  0.333333      1.000000
  0.500000  0.500000  0.500000      1.000000
 -0.333333 -0.333333 -0.333333      1.000000
 -0.166667 -0.166667 -0.166667      1.000000
  0.166667 -0.166667 -0.166667      3.000000
  0.333333  0.000000  0.000000      3.000000
  0.500000  0.166667  0.166667      3.000000
  0.666667  0.333333  0.333333      3.000000
 -0.166667 -0.500000 -0.500000      3.000000
  0.000000 -0.333333 -0.333333      3.000000
  0.333333 -0.333333 -0.333333      3.000000
  0.500000 -0.166667 -0.166667      3.000000
  0.666667  0.000000  0.000000      3.000000
  0.833333  0.166667  0.166667      3.000000
  0.000000 -0.666667 -0.666667      3.000000
  0.166667 -0.500000 -0.500000      3.000000
  0.500000 -0.500000 -0.500000      3.000000
  0.666667 -0.333333 -0.333333      3.000000
  0.833333 -0.166667 -0.166667      3.000000
  1.000000  0.000000  0.000000      3.000000
  0.166667 -0.833333 -0.833333      3.000000
  0.333333 -0.666667 -0.666667      3.000000
 -0.333333  0.333333  0.333333      3.000000
 -0.166667  0.500000  0.500000      3.000000
  0.000000  0.666667  0.666667      3.000000
  0.166667  0.833333  0.833333      3.000000
 -0.666667  0.000000  0.000000      3.000000
 -0.500000  0.166667  0.166667      3.000000
 -0.166667  0.166667  0.166667      3.000000
  0.000000  0.333333  0.333333      3.000000
  0.166667  0.500000  0.500000      3.000000
  0.333333  0.666667  0.666667      3.000000
 -0.500000 -0.166667 -0.166667      3.000000
 -0.333333  0.000000  0.000000      3.000000
  0.166667 -0.166667 -0.500000      3.000000
  0.333333  0.000000 -0.333333      3.000000
  0.500000  0.166667 -0.166667      3.000000
  0.666667  0.333333  0.000000      3.000000
 -0.166667 -0.500000 -0.833333      3.000000
 -0.000000 -0.333333 -0.666667      3.000000
  0.333333 -0.333333 -0.666667      3.000000
  0.500000 -0.166667 -0.500000      3.000000
  0.666667 -0.000000 -0.333333      3.000000
  0.833333  0.166667 -0.166667      3.000000
  0.000000 -0.666667 -1.000000      3.000000
  0.166667 -0.500000 -0.833333      3.000000
 -0.500000  0.500000  0.166667      3.000000
 -0.333333  0.666667  0.333333      3.000000
 -0.166667  0.833333  0.500000      3.000000
  0.000000  1.000000  0.666667      3.000000
 -0.833333  0.166667 -0.166667      3.000000
 -0.666667  0.333333  0.000000      3.000000
 -0.166667  0.166667 -0.500000      3.000000
  0.000000  0.333333 -0.333333      3.000000
  0.166667  0.500000 -0.166667      3.000000
  0.333333  0.666667  0.000000      3.000000
 -0.500000 -0.166667 -0.833333      3.000000
 -0.333333 -0.000000 -0.666667      3.000000
 -0.666667  0.666667  0.000000      3.000000
 -0.500000  0.833333  0.166667      3.000000
 -0.333333  0.333333 -0.666667      3.000000
 -0.166667  0.500000 -0.500000      3.000000
  0.000000  0.666667 -0.333333      3.000000
  0.166667  0.833333 -0.166667      3.000000
 -0.666667  0.000000 -1.000000      3.000000
 -0.500000  0.166667 -0.833333      3.000000
 -0.166667  0.166667 -0.833333      3.000000
  0.000000  0.333333 -0.666667      3.000000
  0.166667  0.500000 -0.500000      3.000000
  0.333333  0.666667 -0.333333      3.000000
 -0.500000 -0.166667 -1.166667      3.000000
 -0.333333 -0.000000 -1.000000      3.000000
  0.666667 -0.666667  0.000000      3.000000
  0.833333 -0.500000  0.166667      3.000000
 
 
 Subroutine IBZKPT_HF returns following result:
 ==============================================
 
 Found    216 k-points in 1st BZ
 the following    216 k-points will be used (e.g. in the exchange kernel)
 Following reciprocal coordinates:   # in IRBZ
  0.000000  0.000000  0.000000    0.00462963   1 t-inv F
  0.166667  0.000000  0.000000    0.00462963   2 t-inv F
  0.333333  0.000000  0.000000    0.00462963   3 t-inv F
  0.500000  0.000000  0.000000    0.00462963   4 t-inv F
 -0.333333  0.000000  0.000000    0.00462963   5 t-inv F
 -0.166667  0.000000  0.000000    0.00462963   6 t-inv F
  0.000000  0.166667  0.000000    0.00462963   7 t-inv F
  0.166667  0.166667  0.000000    0.00462963   8 t-inv F
  0.333333  0.166667  0.000000    0.00462963   9 t-inv F
  0.500000  0.166667  0.000000    0.00462963  10 t-inv F
 -0.333333  0.166667  0.000000    0.00462963  11 t-inv F
 -0.166667  0.166667  0.000000    0.00462963  12 t-inv F
  0.000000  0.333333  0.000000    0.00462963  13 t-inv F
  0.166667  0.333333  0.000000    0.00462963  14 t-inv F
  0.333333  0.333333  0.000000    0.00462963  15 t-inv F
  0.500000  0.333333  0.000000    0.00462963  16 t-inv F
 -0.333333  0.333333  0.000000    0.00462963  17 t-inv F
 -0.166667  0.333333  0.000000    0.00462963  18 t-inv F
  0.000000  0.500000  0.000000    0.00462963  19 t-inv F
  0.166667  0.500000  0.000000    0.00462963  20 t-inv F
  0.333333  0.500000  0.000000    0.00462963  21 t-inv F
  0.500000  0.500000  0.000000    0.00462963  22 t-inv F
 -0.333333  0.500000  0.000000    0.00462963  23 t-inv F
 -0.166667  0.500000  0.000000    0.00462963  24 t-inv F
  0.000000 -0.333333  0.000000    0.00462963  25 t-inv F
  0.166667 -0.333333  0.000000    0.00462963  26 t-inv F
  0.333333 -0.333333  0.000000    0.00462963  27 t-inv F
  0.500000 -0.333333  0.000000    0.00462963  28 t-inv F
 -0.333333 -0.333333  0.000000    0.00462963  29 t-inv F
 -0.166667 -0.333333  0.000000    0.00462963  30 t-inv F
  0.000000 -0.166667  0.000000    0.00462963  31 t-inv F
  0.166667 -0.166667  0.000000    0.00462963  32 t-inv F
  0.333333 -0.166667  0.000000    0.00462963  33 t-inv F
  0.500000 -0.166667  0.000000    0.00462963  34 t-inv F
 -0.333333 -0.166667  0.000000    0.00462963  35 t-inv F
 -0.166667 -0.166667  0.000000    0.00462963  36 t-inv F
  0.000000  0.333333  0.166667    0.00462963  37 t-inv F
  0.166667  0.333333  0.166667    0.00462963  38 t-inv F
  0.333333  0.333333  0.166667    0.00462963  39 t-inv F
  0.500000  0.333333  0.166667    0.00462963  40 t-inv F
 -0.333333  0.333333  0.166667    0.00462963  41 t-inv F
 -0.166667  0.333333  0.166667    0.00462963  42 t-inv F
  0.000000  0.500000  0.166667    0.00462963  43 t-inv F
  0.166667  0.500000  0.166667    0.00462963  44 t-inv F
  0.333333  0.500000  0.166667    0.00462963  45 t-inv F
  0.500000  0.500000  0.166667    0.00462963  46 t-inv F
 -0.333333  0.500000  0.166667    0.00462963  47 t-inv F
 -0.166667  0.500000  0.166667    0.00462963  48 t-inv F
  0.000000 -0.333333  0.166667    0.00462963  49 t-inv F
  0.166667 -0.333333  0.166667    0.00462963  50 t-inv F
  0.333333 -0.333333  0.166667    0.00462963  51 t-inv F
  0.500000 -0.333333  0.166667    0.00462963  52 t-inv F
 -0.333333 -0.333333  0.166667    0.00462963  53 t-inv F
 -0.166667 -0.333333  0.166667    0.00462963  54 t-inv F
  0.000000  0.166667  0.333333    0.00462963  55 t-inv F
  0.166667  0.166667  0.333333    0.00462963  56 t-inv F
  0.333333  0.166667  0.333333    0.00462963  57 t-inv F
  0.500000  0.166667  0.333333    0.00462963  58 t-inv F
 -0.333333  0.166667  0.333333    0.00462963  59 t-inv F
 -0.166667  0.166667  0.333333    0.00462963  60 t-inv F
  0.000000 -0.333333  0.333333    0.00462963  61 t-inv F
  0.166667 -0.333333  0.333333    0.00462963  62 t-inv F
  0.000000  0.166667  0.500000    0.00462963  63 t-inv F
  0.166667  0.166667  0.500000    0.00462963  64 t-inv F
  0.333333  0.166667  0.500000    0.00462963  65 t-inv F
  0.500000  0.166667  0.500000    0.00462963  66 t-inv F
 -0.333333  0.166667  0.500000    0.00462963  67 t-inv F
 -0.166667  0.166667  0.500000    0.00462963  68 t-inv F
  0.000000  0.333333  0.500000    0.00462963  69 t-inv F
  0.166667  0.333333  0.500000    0.00462963  70 t-inv F
  0.333333  0.333333  0.500000    0.00462963  71 t-inv F
  0.500000  0.333333  0.500000    0.00462963  72 t-inv F
 -0.333333  0.333333  0.500000    0.00462963  73 t-inv F
 -0.166667  0.333333  0.500000    0.00462963  74 t-inv F
  0.000000  0.333333 -0.333333    0.00462963  75 t-inv F
  0.166667  0.333333 -0.333333    0.00462963  76 t-inv F
 -0.166667 -0.166667 -0.166667    0.00462963   7 t-inv F
  0.000000  0.000000  0.166667    0.00462963   7 t-inv F
  0.000000 -0.166667 -0.166667    0.00462963   8 t-inv F
  0.166667  0.000000  0.166667    0.00462963   8 t-inv F
  0.166667 -0.166667 -0.166667    0.00462963   9 t-inv F
  0.333333  0.000000  0.166667    0.00462963   9 t-inv F
  0.333333 -0.166667 -0.166667    0.00462963  10 t-inv F
  0.500000  0.000000  0.166667    0.00462963  10 t-inv F
 -0.500000 -0.166667 -0.166667    0.00462963  11 t-inv F
 -0.333333  0.000000  0.166667    0.00462963  11 t-inv F
 -0.333333 -0.166667 -0.166667    0.00462963  12 t-inv F
 -0.166667  0.000000  0.166667    0.00462963  12 t-inv F
 -0.333333 -0.333333 -0.333333    0.00462963  13 t-inv F
  0.000000  0.000000  0.333333    0.00462963  13 t-inv F
 -0.166667 -0.333333 -0.333333    0.00462963  14 t-inv F
  0.166667  0.000000  0.333333    0.00462963  14 t-inv F
  0.000000 -0.333333 -0.333333    0.00462963  15 t-inv F
  0.333333  0.000000  0.333333    0.00462963  15 t-inv F
  0.166667 -0.333333 -0.333333    0.00462963  16 t-inv F
  0.500000  0.000000  0.333333    0.00462963  16 t-inv F
 -0.666667 -0.333333 -0.333333    0.00462963  17 t-inv F
 -0.333333  0.000000  0.333333    0.00462963  17 t-inv F
 -0.500000 -0.333333 -0.333333    0.00462963  18 t-inv F
 -0.166667  0.000000  0.333333    0.00462963  18 t-inv F
 -0.500000 -0.500000 -0.500000    0.00462963  19 t-inv F
  0.000000  0.000000  0.500000    0.00462963  19 t-inv F
 -0.333333 -0.500000 -0.500000    0.00462963  20 t-inv F
  0.166667  0.000000  0.500000    0.00462963  20 t-inv F
 -0.166667 -0.500000 -0.500000    0.00462963  21 t-inv F
  0.333333  0.000000  0.500000    0.00462963  21 t-inv F
  0.000000 -0.500000 -0.500000    0.00462963  22 t-inv F
  0.500000  0.000000  0.500000    0.00462963  22 t-inv F
 -0.833333 -0.500000 -0.500000    0.00462963  23 t-inv F
 -0.333333  0.000000  0.500000    0.00462963  23 t-inv F
 -0.666667 -0.500000 -0.500000    0.00462963  24 t-inv F
 -0.166667  0.000000  0.500000    0.00462963  24 t-inv F
  0.333333  0.333333  0.333333    0.00462963  25 t-inv F
  0.000000  0.000000 -0.333333    0.00462963  25 t-inv F
  0.500000  0.333333  0.333333    0.00462963  26 t-inv F
  0.166667  0.000000 -0.333333    0.00462963  26 t-inv F
  0.666667  0.333333  0.333333    0.00462963  27 t-inv F
  0.333333  0.000000 -0.333333    0.00462963  27 t-inv F
  0.833333  0.333333  0.333333    0.00462963  28 t-inv F
  0.500000  0.000000 -0.333333    0.00462963  28 t-inv F
  0.000000  0.333333  0.333333    0.00462963  29 t-inv F
 -0.333333  0.000000 -0.333333    0.00462963  29 t-inv F
  0.166667  0.333333  0.333333    0.00462963  30 t-inv F
 -0.166667  0.000000 -0.333333    0.00462963  30 t-inv F
  0.166667  0.166667  0.166667    0.00462963  31 t-inv F
  0.000000  0.000000 -0.166667    0.00462963  31 t-inv F
  0.333333  0.166667  0.166667    0.00462963  32 t-inv F
  0.166667  0.000000 -0.166667    0.00462963  32 t-inv F
  0.500000  0.166667  0.166667    0.00462963  33 t-inv F
  0.333333  0.000000 -0.166667    0.00462963  33 t-inv F
  0.666667  0.166667  0.166667    0.00462963  34 t-inv F
  0.500000  0.000000 -0.166667    0.00462963  34 t-inv F
 -0.166667  0.166667  0.166667    0.00462963  35 t-inv F
 -0.333333  0.000000 -0.166667    0.00462963  35 t-inv F
  0.000000  0.166667  0.166667    0.00462963  36 t-inv F
 -0.166667  0.000000 -0.166667    0.00462963  36 t-inv F
 -0.333333 -0.166667 -0.333333    0.00462963  37 t-inv F
 -0.166667 -0.166667  0.166667    0.00462963  37 t-inv F
 -0.166667 -0.166667 -0.333333    0.00462963  38 t-inv F
  0.000000 -0.166667  0.166667    0.00462963  38 t-inv F
  0.000000 -0.166667 -0.333333    0.00462963  39 t-inv F
  0.166667 -0.166667  0.166667    0.00462963  39 t-inv F
  0.166667 -0.166667 -0.333333    0.00462963  40 t-inv F
  0.333333 -0.166667  0.166667    0.00462963  40 t-inv F
 -0.666667 -0.166667 -0.333333    0.00462963  41 t-inv F
 -0.500000 -0.166667  0.166667    0.00462963  41 t-inv F
 -0.500000 -0.166667 -0.333333    0.00462963  42 t-inv F
 -0.333333 -0.166667  0.166667    0.00462963  42 t-inv F
 -0.500000 -0.333333 -0.500000    0.00462963  43 t-inv F
 -0.166667 -0.166667  0.333333    0.00462963  43 t-inv F
 -0.333333 -0.333333 -0.500000    0.00462963  44 t-inv F
  0.000000 -0.166667  0.333333    0.00462963  44 t-inv F
 -0.166667 -0.333333 -0.500000    0.00462963  45 t-inv F
  0.166667 -0.166667  0.333333    0.00462963  45 t-inv F
  0.000000 -0.333333 -0.500000    0.00462963  46 t-inv F
  0.333333 -0.166667  0.333333    0.00462963  46 t-inv F
 -0.833333 -0.333333 -0.500000    0.00462963  47 t-inv F
 -0.500000 -0.166667  0.333333    0.00462963  47 t-inv F
 -0.666667 -0.333333 -0.500000    0.00462963  48 t-inv F
 -0.333333 -0.166667  0.333333    0.00462963  48 t-inv F
  0.333333  0.500000  0.333333    0.00462963  49 t-inv F
 -0.166667 -0.166667 -0.500000    0.00462963  49 t-inv F
  0.500000  0.500000  0.333333    0.00462963  50 t-inv F
  0.000000 -0.166667 -0.500000    0.00462963  50 t-inv F
  0.666667  0.500000  0.333333    0.00462963  51 t-inv F
  0.166667 -0.166667 -0.500000    0.00462963  51 t-inv F
  0.833333  0.500000  0.333333    0.00462963  52 t-inv F
  0.333333 -0.166667 -0.500000    0.00462963  52 t-inv F
  0.000000  0.500000  0.333333    0.00462963  53 t-inv F
 -0.500000 -0.166667 -0.500000    0.00462963  53 t-inv F
  0.166667  0.500000  0.333333    0.00462963  54 t-inv F
 -0.333333 -0.166667 -0.500000    0.00462963  54 t-inv F
 -0.166667  0.166667 -0.166667    0.00462963  55 t-inv F
 -0.333333 -0.333333 -0.166667    0.00462963  55 t-inv F
  0.000000  0.166667 -0.166667    0.00462963  56 t-inv F
 -0.166667 -0.333333 -0.166667    0.00462963  56 t-inv F
  0.166667  0.166667 -0.166667    0.00462963  57 t-inv F
  0.000000 -0.333333 -0.166667    0.00462963  57 t-inv F
  0.333333  0.166667 -0.166667    0.00462963  58 t-inv F
  0.166667 -0.333333 -0.166667    0.00462963  58 t-inv F
 -0.500000  0.166667 -0.166667    0.00462963  59 t-inv F
 -0.666667 -0.333333 -0.166667    0.00462963  59 t-inv F
 -0.333333  0.166667 -0.166667    0.00462963  60 t-inv F
 -0.500000 -0.333333 -0.166667    0.00462963  60 t-inv F
  0.333333  0.666667  0.333333    0.00462963  61 t-inv F
 -0.333333 -0.333333 -0.666667    0.00462963  61 t-inv F
  0.500000  0.666667  0.333333    0.00462963  62 t-inv F
 -0.166667 -0.333333 -0.666667    0.00462963  62 t-inv F
 -0.166667  0.333333 -0.166667    0.00462963  63 t-inv F
 -0.500000 -0.500000 -0.333333    0.00462963  63 t-inv F
  0.000000  0.333333 -0.166667    0.00462963  64 t-inv F
 -0.333333 -0.500000 -0.333333    0.00462963  64 t-inv F
  0.166667  0.333333 -0.166667    0.00462963  65 t-inv F
 -0.166667 -0.500000 -0.333333    0.00462963  65 t-inv F
  0.333333  0.333333 -0.166667    0.00462963  66 t-inv F
  0.000000 -0.500000 -0.333333    0.00462963  66 t-inv F
 -0.500000  0.333333 -0.166667    0.00462963  67 t-inv F
 -0.833333 -0.500000 -0.333333    0.00462963  67 t-inv F
 -0.333333  0.333333 -0.166667    0.00462963  68 t-inv F
 -0.666667 -0.500000 -0.333333    0.00462963  68 t-inv F
 -0.333333  0.166667 -0.333333    0.00462963  69 t-inv F
 -0.500000 -0.500000 -0.166667    0.00462963  69 t-inv F
 -0.166667  0.166667 -0.333333    0.00462963  70 t-inv F
 -0.333333 -0.500000 -0.166667    0.00462963  70 t-inv F
  0.000000  0.166667 -0.333333    0.00462963  71 t-inv F
 -0.166667 -0.500000 -0.166667    0.00462963  71 t-inv F
  0.166667  0.166667 -0.333333    0.00462963  72 t-inv F
  0.000000 -0.500000 -0.166667    0.00462963  72 t-inv F
 -0.666667  0.166667 -0.333333    0.00462963  73 t-inv F
 -0.833333 -0.500000 -0.166667    0.00462963  73 t-inv F
 -0.500000  0.166667 -0.333333    0.00462963  74 t-inv F
 -0.666667 -0.500000 -0.166667    0.00462963  74 t-inv F
 -0.333333 -0.666667 -0.333333    0.00462963  75 t-inv F
  0.333333  0.333333  0.666667    0.00462963  75 t-inv F
 -0.166667 -0.666667 -0.333333    0.00462963  76 t-inv F
  0.500000  0.333333  0.666667    0.00462963  76 t-inv F


--------------------------------------------------------------------------------------------------------




 Dimension of arrays:
   k-points           NKPTS =     76   k-points in BZ     NKDIM =    216   number of bands    NBANDS=     28
   number of dos      NEDOS =    301   number of ions     NIONS =      2
   non local maximal  LDIM  =      6   non local SUM 2l+1 LMDIM =     18
   total plane-waves  NPLWV =  46656
   max r-space proj   IRMAX =      1   max aug-charges    IRDMAX= 318902
   dimension x,y,z NGX =    36 NGY =   36 NGZ =   36
   dimension x,y,z NGXF=    72 NGYF=   72 NGZF=   72
   support grid    NGXF=   144 NGYF=  144 NGZF=  144
   ions per type =               1   1
 NGX,Y,Z   is equivalent  to a cutoff of  13.06, 13.06, 13.06 a.u.
 NGXF,Y,Z  is equivalent  to a cutoff of  26.11, 26.11, 26.11 a.u.


 I would recommend the setting:
   dimension x,y,z NGX =    33 NGY =   33 NGZ =   33
 SYSTEM =  Hybrid SOC self-consistent (CdTe: 216 K 
 POSCAR =  CdTe (ICSD, 295K, Rabadanov 2001)       

 Startparameter for this run:
   NWRITE =      2    write-flag & timer
   PREC   = accura    normal or accurate (medium, high low for compatibility)
   ISTART =      0    job   : 0-new  1-cont  2-samecut
   ICHARG =      2    charge: 1-file 2-atom 10-const
   ISPIN  =      1    spin polarized calculation?
   LNONCOLLINEAR =      T non collinear calculations
   LSORBIT =      T    spin-orbit coupling
   INIWAV =      1    electr: 0-lowe 1-rand  2-diag
   LASPH  =      F    aspherical Exc in radial PAW
   METAGGA=      F    non-selfconsistent MetaGGA calc.

 Electronic Relaxation 1
   ENCUT  =  500.0 eV  36.75 Ry    6.06 a.u.   8.36  8.36  8.36*2*pi/ulx,y,z
   ENINI  =  500.0     initial cutoff
   ENAUG  =  456.1 eV  augmentation charge cutoff
   NELM   =     60;   NELMIN=  2; NELMDL=  0     # of ELM steps 
   EDIFF  = 0.1E-05   stopping-criterion for ELM
   LREAL  =      F    real-space projection
   NLSPLINE    = F    spline interpolate recip. space projectors
   LCOMPAT=      F    compatible to vasp.4.4
   GGA_COMPAT  = T    GGA compatible to vasp.4.4-vasp.4.6
   LMAXPAW     = -100 max onsite density
   LMAXMIX     =    2 max onsite mixed and CHGCAR
   VOSKOWN=      0    Vosko Wilk Nusair interpolation
   ROPT   =    0.00000   0.00000
 Ionic relaxation
   EDIFFG = 0.1E-04   stopping-criterion for IOM
   NSW    =      0    number of steps for IOM
   NBLOCK =      1;   KBLOCK =      1    inner block; outer block 
   IBRION =     -1    ionic relax: 0-MD 1-quasi-New 2-CG
   NFREE  =      0    steps in history (QN), initial steepest desc. (CG)
   ISIF   =      2    stress and relaxation
   IWAVPR =     10    prediction:  0-non 1-charg 2-wave 3-comb
   ISYM   =      3    0-nonsym 1-usesym 2-fastsym
   LCORR  =      T    Harris-Foulkes like correction to forces

   POTIM  = 0.5000    time-step for ionic-motion
   TEIN   =    0.0    initial temperature
   TEBEG  =    0.0;   TEEND  =   0.0 temperature during run
   SMASS  =  -3.00    Nose mass-parameter (am)
   estimated Nose-frequenzy (Omega)   =  0.10E-29 period in steps =****** mass=  -0.480E-27a.u.
   SCALEE = 1.0000    scale energy and forces
   NPACO  =    256;   APACO  = 16.0  distance and # of slots for P.C.
   PSTRESS=    0.0 pullay stress

  Mass of Ions in am
   POMASS = 112.41127.60
  Ionic Valenz
   ZVAL   =  12.00  6.00
  Atomic Wigner-Seitz radii
   RWIGS  =  -1.00 -1.00
  virtual crystal weights 
   VCA    =   1.00  1.00
   NELECT =      18.0000    total number of electrons
   NUPDOWN=      -1.0000    fix difference up-down

 DOS related values:
   EMIN   =  10.00;   EMAX   =-10.00  energy-range for DOS
   EFERMI =   0.00
   ISMEAR =     0;   SIGMA  =   0.01  broadening in eV -4-tet -1-fermi 0-gaus

 Electronic relaxation 2 (details)
   IALGO  =     58    algorithm
   LDIAG  =      T    sub-space diagonalisation (order eigenvalues)
   LSUBROT=      F    optimize rotation matrix (better conditioning)
   TURBO    =      0    0=normal 1=particle mesh
   IRESTART =      0    0=no restart 2=restart with 2 vectors
   NREBOOT  =      0    no. of reboots
   NMIN     =      0    reboot dimension
   EREF     =   0.00    reference energy to select bands
   IMIX   =      4    mixing-type and parameters
     AMIX     =   0.40;   BMIX     =  1.00
     AMIX_MAG =   1.60;   BMIX_MAG =  1.00
     AMIN     =   0.10
     WC   =   100.;   INIMIX=   1;  MIXPRE=   1;  MAXMIX= -45

 Intra band minimization:
   WEIMIN = 0.0000     energy-eigenvalue tresh-hold
   EBREAK =  0.89E-08  absolut break condition
   DEPER  =   0.30     relativ break condition  

   TIME   =   0.40     timestep for ELM

  volume/ion in A,a.u.               =      34.05       229.81
  Fermi-wavevector in a.u.,A,eV,Ry     =   1.050581  1.985311 15.017042  1.103721
  Thomas-Fermi vector in A             =   2.185590
 
 Write flags
   LWAVE  =      F    write WAVECAR
   LCHARG =      F    write CHGCAR
   LVTOT  =      F    write LOCPOT, total local potential
   LVHAR  =      F    write LOCPOT, Hartree potential only
   LELF   =      F    write electronic localiz. function (ELF)
   LORBIT =     10    0 simple, 1 ext, 2 COOP (PROOUT)


 Dipole corrections
   LMONO  =      F    monopole corrections only (constant potential shift)
   LDIPOL =      F    correct potential (dipole corrections)
   IDIPOL =      0    1-x, 2-y, 3-z, 4-all directions 
   EPSILON=  1.0000000 bulk dielectric constant

 Core level calculations are selected ICORELEVEL =  1
 Exchange correlation treatment:
   GGA     =    PE    GGA type
   LEXCH   =     8    internal setting for exchange type
   VOSKOWN=      0    Vosko Wilk Nusair interpolation
   EXXOEP  =     0    0=HF, 1=EXX-LHF (local Hartree Fock) 2=EXX OEP
   LHFCALC =     T    Hartree Fock is set to
   LSYMGRAD=     F    symmetrize gradient (conserves proper symmetry)
   PRECFOCK=fast      Normal, Fast or Accurate (Low or Medium for compatibility)
   LRHFCALC=     F    long range Hartree Fock
   LRSCOR  =     F    long range correlation only (use DFT for short range part)
   LTHOMAS =     F    Thomas Fermi screening in HF
   LMODELHF=     F    short range full HF, long range fraction AEXX
   ENCUT4O =  -1.0   cutoff for four orbital integrals eV
   LMAXFOCK=     4    L truncation for augmentation on plane wave grid
   LMAXFOCKAE=  -1    L truncation for all-electron charge restoration on plane wave grid
   NMAXFOCKAE=   1    number of basis functions for all-electron charge restoration
   LFOCKAEDFT=     F  apply the AE augmentation even for DFT
   NKREDX  =     1    reduce k-point grid by
   NKREDY  =     1    reduce k-point grid by
   NKREDZ  =     1    reduce k-point grid by
   SHIFTRED=     F    shift reduced grid of Gamma
   HFKIDENT=     F    idential grid for each k-point
   ODDONLY =     F    use only odd q-grid points
   EVENONLY=     F    use only even q-grid points
   HFALPHA =   -1.0000 decay constant for conv. correction
   MCALPHA =    0.0000 extent of test-charge in conv. correction in multipole expansion
   AEXX    =    0.2500 exact exchange contribution
   HFSCREEN=    0.2070 screening length (either q_TF or 0.3 A-1)
   HFSCREENC=   0.2070 screening length for correlation (either q_TF or 0.3 A-1)
   HFRCUT  =    0.0000 spherical cutoff for potential kernel
   ALDAX   =    0.7500 LDA exchange part
   AGGAX   =    0.7500 GGA exchange part
   ALDAC   =    1.0000 LDA correlation
   AGGAC   =    1.0000 GGA correlation
   NBANDSGWLOW=     1    first orbital included in HF term
   ENCUTFOCK=  -1.0 apply spherical cutoff to Coloumb kernel
 Linear response parameters
   LEPSILON=     F    determine dielectric tensor
   LRPA    =     F    only Hartree local field effects (RPA)
   LNABLA  =     F    use nabla operator in PAW spheres
   LVEL    =     F    velocity operator in full k-point grid
   LINTERFAST=   F  fast interpolation
   KINTER  =     0    interpolate to denser k-point grid
   CSHIFT  =0.1000    complex shift for real part using Kramers Kronig
   OMEGAMAX=  -1.0    maximum frequency
   DEG_THRESHOLD= 0.2000000E-02 threshold for treating states as degnerate
   RTIME   =    0.100 relaxation time in fs

 Orbital magnetization related:
   ORBITALMAG=     F  switch on orbital magnetization
   LCHIMAG   =     F  perturbation theory with respect to B field
   DQ        =  0.001000  dq finite difference perturbation B field



--------------------------------------------------------------------------------------------------------


 Static calculation
 charge density and potential will be updated during run
 non collinear spin polarized calculation
 Conjugate gradient for all bands (Freysoldt, et al. PRB 79, 241103 (2009))
 preconditioned conjugated gradient                                        
 perform sub-space diagonalisation
    before iterative eigenvector-optimisation
 modified Broyden-mixing scheme, WC =      100.0
 initial mixing is a Kerker type mixing with AMIX =  0.4000 and BMIX =      1.0000
 Hartree-type preconditioning will be used
 using additional bands           19
 reciprocal scheme for non local part
 use partial core corrections
 no Harris-corrections to forces 
 use gradient corrections 
 use of overlap-Matrix (Vanderbilt PP)
 Gauss-broadening in eV      SIGMA  =   0.01


--------------------------------------------------------------------------------------------------------


  energy-cutoff  :      500.00
  volume of cell :       68.11
      direct lattice vectors                 reciprocal lattice vectors
     3.241350000  3.241350000  0.000000000     0.154256714  0.154256714  0.154256714
     3.241350000  0.000000000 -3.241350000     0.154256714 -0.154256714 -0.154256714
     0.000000000  3.241350000 -3.241350000    -0.154256714  0.154256714 -0.154256714

  length of vectors
     4.583961130  4.583961130  4.583961130     0.267180466  0.267180466  0.267180466


 
 k-points in units of 2pi/SCALE and weight: Automatic mesh                          
   0.00000000  0.00000000  0.00000000       0.005
   0.16666667  0.16666667  0.16666667       0.005
   0.33333333  0.33333333  0.33333333       0.005
   0.50000000  0.50000000  0.50000000       0.005
  -0.33333333 -0.33333333 -0.33333333       0.005
  -0.16666667 -0.16666667 -0.16666667       0.005
   0.16666667 -0.16666667 -0.16666667       0.014
   0.33333333  0.00000000  0.00000000       0.014
   0.50000000  0.16666667  0.16666667       0.014
   0.66666667  0.33333333  0.33333333       0.014
  -0.16666667 -0.50000000 -0.50000000       0.014
   0.00000000 -0.33333333 -0.33333333       0.014
   0.33333333 -0.33333333 -0.33333333       0.014
   0.50000000 -0.16666667 -0.16666667       0.014
   0.66666667  0.00000000  0.00000000       0.014
   0.83333333  0.16666667  0.16666667       0.014
   0.00000000 -0.66666667 -0.66666667       0.014
   0.16666667 -0.50000000 -0.50000000       0.014
   0.50000000 -0.50000000 -0.50000000       0.014
   0.66666667 -0.33333333 -0.33333333       0.014
   0.83333333 -0.16666667 -0.16666667       0.014
   1.00000000  0.00000000  0.00000000       0.014
   0.16666667 -0.83333333 -0.83333333       0.014
   0.33333333 -0.66666667 -0.66666667       0.014
  -0.33333333  0.33333333  0.33333333       0.014
  -0.16666667  0.50000000  0.50000000       0.014
   0.00000000  0.66666667  0.66666667       0.014
   0.16666667  0.83333333  0.83333333       0.014
  -0.66666667  0.00000000  0.00000000       0.014
  -0.50000000  0.16666667  0.16666667       0.014
  -0.16666667  0.16666667  0.16666667       0.014
   0.00000000  0.33333333  0.33333333       0.014
   0.16666667  0.50000000  0.50000000       0.014
   0.33333333  0.66666667  0.66666667       0.014
  -0.50000000 -0.16666667 -0.16666667       0.014
  -0.33333333  0.00000000  0.00000000       0.014
   0.16666667 -0.16666667 -0.50000000       0.014
   0.33333333  0.00000000 -0.33333333       0.014
   0.50000000  0.16666667 -0.16666667       0.014
   0.66666667  0.33333333  0.00000000       0.014
  -0.16666667 -0.50000000 -0.83333333       0.014
  -0.00000000 -0.33333333 -0.66666667       0.014
   0.33333333 -0.33333333 -0.66666667       0.014
   0.50000000 -0.16666667 -0.50000000       0.014
   0.66666667 -0.00000000 -0.33333333       0.014
   0.83333333  0.16666667 -0.16666667       0.014
   0.00000000 -0.66666667 -1.00000000       0.014
   0.16666667 -0.50000000 -0.83333333       0.014
  -0.50000000  0.50000000  0.16666667       0.014
  -0.33333333  0.66666667  0.33333333       0.014
  -0.16666667  0.83333333  0.50000000       0.014
   0.00000000  1.00000000  0.66666667       0.014
  -0.83333333  0.16666667 -0.16666667       0.014
  -0.66666667  0.33333333  0.00000000       0.014
  -0.16666667  0.16666667 -0.50000000       0.014
   0.00000000  0.33333333 -0.33333333       0.014
   0.16666667  0.50000000 -0.16666667       0.014
   0.33333333  0.66666667  0.00000000       0.014
  -0.50000000 -0.16666667 -0.83333333       0.014
  -0.33333333 -0.00000000 -0.66666667       0.014
  -0.66666667  0.66666667  0.00000000       0.014
  -0.50000000  0.83333333  0.16666667       0.014
  -0.33333333  0.33333333 -0.66666667       0.014
  -0.16666667  0.50000000 -0.50000000       0.014
   0.00000000  0.66666667 -0.33333333       0.014
   0.16666667  0.83333333 -0.16666667       0.014
  -0.66666667  0.00000000 -1.00000000       0.014
  -0.50000000  0.16666667 -0.83333333       0.014
  -0.16666667  0.16666667 -0.83333333       0.014
   0.00000000  0.33333333 -0.66666667       0.014
   0.16666667  0.50000000 -0.50000000       0.014
   0.33333333  0.66666667 -0.33333333       0.014
  -0.50000000 -0.16666667 -1.16666667       0.014
  -0.33333333 -0.00000000 -1.00000000       0.014
   0.66666667 -0.66666667  0.00000000       0.014
   0.83333333 -0.50000000  0.16666667       0.014
 
 k-points in reciprocal lattice and weights: Automatic mesh                          
   0.00000000  0.00000000  0.00000000       0.005
   0.16666667  0.00000000  0.00000000       0.005
   0.33333333  0.00000000  0.00000000       0.005
   0.50000000  0.00000000  0.00000000       0.005
  -0.33333333  0.00000000  0.00000000       0.005
  -0.16666667  0.00000000  0.00000000       0.005
   0.00000000  0.16666667  0.00000000       0.014
   0.16666667  0.16666667  0.00000000       0.014
   0.33333333  0.16666667  0.00000000       0.014
   0.50000000  0.16666667  0.00000000       0.014
  -0.33333333  0.16666667  0.00000000       0.014
  -0.16666667  0.16666667  0.00000000       0.014
   0.00000000  0.33333333  0.00000000       0.014
   0.16666667  0.33333333  0.00000000       0.014
   0.33333333  0.33333333  0.00000000       0.014
   0.50000000  0.33333333  0.00000000       0.014
  -0.33333333  0.33333333  0.00000000       0.014
  -0.16666667  0.33333333  0.00000000       0.014
   0.00000000  0.50000000  0.00000000       0.014
   0.16666667  0.50000000  0.00000000       0.014
   0.33333333  0.50000000  0.00000000       0.014
   0.50000000  0.50000000  0.00000000       0.014
  -0.33333333  0.50000000  0.00000000       0.014
  -0.16666667  0.50000000  0.00000000       0.014
   0.00000000 -0.33333333  0.00000000       0.014
   0.16666667 -0.33333333  0.00000000       0.014
   0.33333333 -0.33333333  0.00000000       0.014
   0.50000000 -0.33333333  0.00000000       0.014
  -0.33333333 -0.33333333  0.00000000       0.014
  -0.16666667 -0.33333333  0.00000000       0.014
   0.00000000 -0.16666667  0.00000000       0.014
   0.16666667 -0.16666667  0.00000000       0.014
   0.33333333 -0.16666667  0.00000000       0.014
   0.50000000 -0.16666667  0.00000000       0.014
  -0.33333333 -0.16666667  0.00000000       0.014
  -0.16666667 -0.16666667  0.00000000       0.014
   0.00000000  0.33333333  0.16666667       0.014
   0.16666667  0.33333333  0.16666667       0.014
   0.33333333  0.33333333  0.16666667       0.014
   0.50000000  0.33333333  0.16666667       0.014
  -0.33333333  0.33333333  0.16666667       0.014
  -0.16666667  0.33333333  0.16666667       0.014
   0.00000000  0.50000000  0.16666667       0.014
   0.16666667  0.50000000  0.16666667       0.014
   0.33333333  0.50000000  0.16666667       0.014
   0.50000000  0.50000000  0.16666667       0.014
  -0.33333333  0.50000000  0.16666667       0.014
  -0.16666667  0.50000000  0.16666667       0.014
   0.00000000 -0.33333333  0.16666667       0.014
   0.16666667 -0.33333333  0.16666667       0.014
   0.33333333 -0.33333333  0.16666667       0.014
   0.50000000 -0.33333333  0.16666667       0.014
  -0.33333333 -0.33333333  0.16666667       0.014
  -0.16666667 -0.33333333  0.16666667       0.014
   0.00000000  0.16666667  0.33333333       0.014
   0.16666667  0.16666667  0.33333333       0.014
   0.33333333  0.16666667  0.33333333       0.014
   0.50000000  0.16666667  0.33333333       0.014
  -0.33333333  0.16666667  0.33333333       0.014
  -0.16666667  0.16666667  0.33333333       0.014
   0.00000000 -0.33333333  0.33333333       0.014
   0.16666667 -0.33333333  0.33333333       0.014
   0.00000000  0.16666667  0.50000000       0.014
   0.16666667  0.16666667  0.50000000       0.014
   0.33333333  0.16666667  0.50000000       0.014
   0.50000000  0.16666667  0.50000000       0.014
  -0.33333333  0.16666667  0.50000000       0.014
  -0.16666667  0.16666667  0.50000000       0.014
   0.00000000  0.33333333  0.50000000       0.014
   0.16666667  0.33333333  0.50000000       0.014
   0.33333333  0.33333333  0.50000000       0.014
   0.50000000  0.33333333  0.50000000       0.014
  -0.33333333  0.33333333  0.50000000       0.014
  -0.16666667  0.33333333  0.50000000       0.014
   0.00000000  0.33333333 -0.33333333       0.014
   0.16666667  0.33333333 -0.33333333       0.014
 
 position of ions in fractional coordinates (direct lattice) 
   0.00000000  0.00000000  0.00000000
   0.25000000  0.25000000  0.25000000
 
 position of ions in cartesian coordinates  (Angst):
   0.00000000  0.00000000  0.00000000
   1.62067500  1.62067500 -1.62067500
 
 Euler angles ALPHA=     0.0000000  BETA=     0.0000000

 transformation matrix from SAXIS to cartesian coordinates
 ---------------------------------------------------------
     1.0000000 m_x     0.0000000 m_y     0.0000000 m_z
     0.0000000 m_x     1.0000000 m_y     0.0000000 m_z
     0.0000000 m_x     0.0000000 m_y     1.0000000 m_z

 transformation matrix from cartesian coordinates to SAXIS
 ---------------------------------------------------------
     1.0000000 m_x     0.0000000 m_y     0.0000000 m_z
     0.0000000 m_x     1.0000000 m_y     0.0000000 m_z
     0.0000000 m_x     0.0000000 m_y     1.0000000 m_z




--------------------------------------------------------------------------------------------------------


 k-point  1 :   0.0000 0.0000 0.0000  plane waves:    3518
 k-point  2 :   0.1667 0.0000 0.0000  plane waves:    3494
 k-point  3 :   0.3333 0.0000 0.0000  plane waves:    3460
 k-point  4 :   0.5000 0.0000 0.0000  plane waves:    3436
 k-point  5 :  -0.3333 0.0000 0.0000  plane waves:    3460
 k-point  6 :  -0.1667 0.0000 0.0000  plane waves:    3494
 k-point  7 :   0.0000 0.1667 0.0000  plane waves:    3494
 k-point  8 :   0.1667 0.1667 0.0000  plane waves:    3472
 k-point  9 :   0.3333 0.1667 0.0000  plane waves:    3458
 k-point 10 :   0.5000 0.1667 0.0000  plane waves:    3478
 k-point 11 :  -0.3333 0.1667 0.0000  plane waves:    3464
 k-point 12 :  -0.1667 0.1667 0.0000  plane waves:    3470
 k-point 13 :   0.0000 0.3333 0.0000  plane waves:    3460
 k-point 14 :   0.1667 0.3333 0.0000  plane waves:    3458
 k-point 15 :   0.3333 0.3333 0.0000  plane waves:    3456
 k-point 16 :   0.5000 0.3333 0.0000  plane waves:    3446
 k-point 17 :  -0.3333 0.3333 0.0000  plane waves:    3452
 k-point 18 :  -0.1667 0.3333 0.0000  plane waves:    3464
 k-point 19 :   0.0000 0.5000 0.0000  plane waves:    3436
 k-point 20 :   0.1667 0.5000 0.0000  plane waves:    3478
 k-point 21 :   0.3333 0.5000 0.0000  plane waves:    3446
 k-point 22 :   0.5000 0.5000 0.0000  plane waves:    3448
 k-point 23 :  -0.3333 0.5000 0.0000  plane waves:    3446
 k-point 24 :  -0.1667 0.5000 0.0000  plane waves:    3478
 k-point 25 :   0.0000-0.3333 0.0000  plane waves:    3460
 k-point 26 :   0.1667-0.3333 0.0000  plane waves:    3464
 k-point 27 :   0.3333-0.3333 0.0000  plane waves:    3452
 k-point 28 :   0.5000-0.3333 0.0000  plane waves:    3446
 k-point 29 :  -0.3333-0.3333 0.0000  plane waves:    3456
 k-point 30 :  -0.1667-0.3333 0.0000  plane waves:    3458
 k-point 31 :   0.0000-0.1667 0.0000  plane waves:    3494
 k-point 32 :   0.1667-0.1667 0.0000  plane waves:    3470
 k-point 33 :   0.3333-0.1667 0.0000  plane waves:    3464
 k-point 34 :   0.5000-0.1667 0.0000  plane waves:    3478
 k-point 35 :  -0.3333-0.1667 0.0000  plane waves:    3458
 k-point 36 :  -0.1667-0.1667 0.0000  plane waves:    3472
 k-point 37 :   0.0000 0.3333 0.1667  plane waves:    3458
 k-point 38 :   0.1667 0.3333 0.1667  plane waves:    3470
 k-point 39 :   0.3333 0.3333 0.1667  plane waves:    3458
 k-point 40 :   0.5000 0.3333 0.1667  plane waves:    3448
 k-point 41 :  -0.3333 0.3333 0.1667  plane waves:    3452
 k-point 42 :  -0.1667 0.3333 0.1667  plane waves:    3448
 k-point 43 :   0.0000 0.5000 0.1667  plane waves:    3478
 k-point 44 :   0.1667 0.5000 0.1667  plane waves:    3464
 k-point 45 :   0.3333 0.5000 0.1667  plane waves:    3448
 k-point 46 :   0.5000 0.5000 0.1667  plane waves:    3446
 k-point 47 :  -0.3333 0.5000 0.1667  plane waves:    3444
 k-point 48 :  -0.1667 0.5000 0.1667  plane waves:    3452
 k-point 49 :   0.0000-0.3333 0.1667  plane waves:    3464
 k-point 50 :   0.1667-0.3333 0.1667  plane waves:    3478
 k-point 51 :   0.3333-0.3333 0.1667  plane waves:    3452
 k-point 52 :   0.5000-0.3333 0.1667  plane waves:    3444
 k-point 53 :  -0.3333-0.3333 0.1667  plane waves:    3446
 k-point 54 :  -0.1667-0.3333 0.1667  plane waves:    3448
 k-point 55 :   0.0000 0.1667 0.3333  plane waves:    3458
 k-point 56 :   0.1667 0.1667 0.3333  plane waves:    3470
 k-point 57 :   0.3333 0.1667 0.3333  plane waves:    3458
 k-point 58 :   0.5000 0.1667 0.3333  plane waves:    3448
 k-point 59 :  -0.3333 0.1667 0.3333  plane waves:    3452
 k-point 60 :  -0.1667 0.1667 0.3333  plane waves:    3448
 k-point 61 :   0.0000-0.3333 0.3333  plane waves:    3452
 k-point 62 :   0.1667-0.3333 0.3333  plane waves:    3452
 k-point 63 :   0.0000 0.1667 0.5000  plane waves:    3478
 k-point 64 :   0.1667 0.1667 0.5000  plane waves:    3464
 k-point 65 :   0.3333 0.1667 0.5000  plane waves:    3448
 k-point 66 :   0.5000 0.1667 0.5000  plane waves:    3446
 k-point 67 :  -0.3333 0.1667 0.5000  plane waves:    3444
 k-point 68 :  -0.1667 0.1667 0.5000  plane waves:    3452
 k-point 69 :   0.0000 0.3333 0.5000  plane waves:    3446
 k-point 70 :   0.1667 0.3333 0.5000  plane waves:    3448
 k-point 71 :   0.3333 0.3333 0.5000  plane waves:    3464
 k-point 72 :   0.5000 0.3333 0.5000  plane waves:    3478
 k-point 73 :  -0.3333 0.3333 0.5000  plane waves:    3452
 k-point 74 :  -0.1667 0.3333 0.5000  plane waves:    3444
 k-point 75 :   0.0000 0.3333-0.3333  plane waves:    3452
 k-point 76 :   0.1667 0.3333-0.3333  plane waves:    3452

 maximum and minimum number of plane-waves per node :       168      108

 maximum number of plane-waves:      3518
 maximum index in each direction: 
   IXMAX=    8   IYMAX=    8   IZMAX=    8
   IXMIN=   -8   IYMIN=   -8   IZMIN=   -8

 NGX is ok and might be reduce to  34
 NGY is ok and might be reduce to  34
 NGZ is ok and might be reduce to  34

 parallel 3D FFT for wavefunctions:
    minimum data exchange during FFTs selected (reduces bandwidth)
 parallel 3D FFT for charge:
    minimum data exchange during FFTs selected (reduces bandwidth)


 FFT grid for exact exchange (Hartree Fock) 
  NGX = 20; NGY = 20; NGZ = 20

 
 Radii for the augmentation spheres in the non-local exchange
 for species   1 augmentation radius   1.444 (default was   1.070)
       energy cutoff for augmentation   2000.0
 for species   2 augmentation radius   1.606 (default was   1.190)
       energy cutoff for augmentation   2000.0

 real space projection operators:
  total allocation   :        698.05 KBytes
  max/ min on nodes  :         58.20          0.00

 Maximum index for augmentation-charges in exchange          151
  SETUP_FOCK is finished

 total amount of memory used by VASP on root node   101911. kBytes
========================================================================

   base      :      30000. kBytes
   nonl-proj :       5743. kBytes
   fftplans  :       4642. kBytes
   grid      :       4064. kBytes
   one-center:         62. kBytes
   HF        :         64. kBytes
   nonlr-proj:        138. kBytes
   wavefun   :      57198. kBytes
 
     INWAV:  cpu time    0.0000: real time    0.0000
 Broyden mixing: mesh for mixing (old mesh)
   NGX = 17   NGY = 17   NGZ = 17
  (NGX  = 72   NGY  = 72   NGZ  = 72)
  gives a total of   4913 points

 initial charge density was supplied:
 charge density of overlapping atoms calculated
 number of electron      18.0000000 magnetization       2.0000000      2.0000000      2.0000000
 charge density for first step will be calculated from the start-wavefunctions


--------------------------------------------------------------------------------------------------------


 Maximum index for augmentation-charges        13348 (set IRDMAX)


--------------------------------------------------------------------------------------------------------


 First call to EWALD:  gamma=   0.434
 Maximum number of real-space cells 3x 3x 3
 Maximum number of reciprocal cells 3x 3x 3

 FEWALD executed in parallel
    FEWALD:  cpu time    0.0000: real time    0.0013


----------------------------------------- Iteration    1(   1)  ---------------------------------------


    POTLOK:  cpu time    0.0880: real time    0.0886
    SETDIJ:  cpu time    0.2560: real time    0.2579
    TRIAL :  cpu time    2.9482: real time    2.9495
    CORREC:  cpu time    0.0040: real time    0.0031
    --------------------------------------------
      LOOP:  cpu time    3.3202: real time    3.3231

 eigenvalue-minimisations  :  5776
 total energy-change (2. order) : 0.6568080E+03  (-0.4360388E+04)
 number of electron      18.0000000 magnetization       2.0000000      2.0000000      2.0000000
 augmentation part       18.0000000 magnetization       2.0000000      2.0000000      2.0000000

 Free energy of the ion-electron system (eV)
  ---------------------------------------------------
  alpha Z        PSCENC =        50.17222034
  Ewald energy   TEWEN  =     -1044.83138452
  -Hartree energ DENC   =      -510.12304479
  -exchange      EXHF   =         0.00000000
  -V(xc)+E(xc)   XCENC  =       -19.42407828
  PAW double counting   =      1400.74953007    -1338.33597297
  entropy T*S    EENTRO =        -0.00004108
  eigenvalues    EBANDS =       604.30278757
  atomic energy  EATOM  =      1514.29801353
  ---------------------------------------------------
  free energy    TOTEN  =       656.80802986 eV

  energy without entropy =      656.80807094  energy(sigma->0) =      656.80805040
  exchange ACFDT corr.  =         0.00000000  see jH, gK, PRB 81, 115126


--------------------------------------------------------------------------------------------------------




----------------------------------------- Iteration    1(   2)  ---------------------------------------


    TRIAL :  cpu time    2.5442: real time    3.6513
    CORREC:  cpu time    0.0040: real time    0.0031
    --------------------------------------------
      LOOP:  cpu time    2.5482: real time    3.6598

 eigenvalue-minimisations  :  4696
 total energy-change (2. order) :-0.5244627E+03  (-0.5042411E+03)
 number of electron      18.0000000 magnetization       2.0000000      2.0000000      2.0000000
 augmentation part       18.0000000 magnetization       2.0000000      2.0000000      2.0000000

 Free energy of the ion-electron system (eV)
  ---------------------------------------------------
  alpha Z        PSCENC =        50.17222034
  Ewald energy   TEWEN  =     -1044.83138452
  -Hartree energ DENC   =      -510.12304479
  -exchange      EXHF   =         0.00000000
  -V(xc)+E(xc)   XCENC  =       -19.42407828
  PAW double counting   =      1400.74953007    -1338.33597297
  entropy T*S    EENTRO =        -0.00006724
  eigenvalues    EBANDS =        79.84008668
  atomic energy  EATOM  =      1514.29801353
  ---------------------------------------------------
  free energy    TOTEN  =       132.34530281 eV

  energy without entropy =      132.34537005  energy(sigma->0) =      132.34533643
  exchange ACFDT corr.  =         0.00000000  see jH, gK, PRB 81, 115126


--------------------------------------------------------------------------------------------------------




----------------------------------------- Iteration    1(   3)  ---------------------------------------


    TRIAL :  cpu time    2.7922: real time    4.6174
    CORREC:  cpu time    0.0040: real time    0.0012
    --------------------------------------------
      LOOP:  cpu time    2.7962: real time    6.4675

 eigenvalue-minimisations  :  5360
 total energy-change (2. order) :-0.9665437E+02  (-0.9111854E+02)
 number of electron      18.0000000 magnetization       2.0000000      2.0000000      2.0000000
 augmentation part       18.0000000 magnetization       2.0000000      2.0000000      2.0000000

 Free energy of the ion-electron system (eV)
  ---------------------------------------------------
  alpha Z        PSCENC =        50.17222034
  Ewald energy   TEWEN  =     -1044.83138452
  -Hartree energ DENC   =      -510.12304479
  -exchange      EXHF   =         0.00000000
  -V(xc)+E(xc)   XCENC  =       -19.42407828
  PAW double counting   =      1400.74953007    -1338.33597297
  entropy T*S    EENTRO =        -0.00000000
  eigenvalues    EBANDS =       -16.81435217
  atomic energy  EATOM  =      1514.29801353
  ---------------------------------------------------
  free energy    TOTEN  =        35.69093120 eV

  energy without entropy =       35.69093120  energy(sigma->0) =       35.69093120
  exchange ACFDT corr.  =         0.00000000  see jH, gK, PRB 81, 115126


--------------------------------------------------------------------------------------------------------




----------------------------------------- Iteration    1(   4)  ---------------------------------------


    TRIAL :  cpu time    2.6802: real time    2.6827
    CORREC:  cpu time    0.0000: real time    0.0011
    --------------------------------------------
      LOOP:  cpu time    2.6802: real time    2.6937

 eigenvalue-minimisations  :  5076
 total energy-change (2. order) :-0.7055623E+01  (-0.6968196E+01)
 number of electron      18.0000000 magnetization       2.0000000      2.0000000      2.0000000
 augmentation part       18.0000000 magnetization       2.0000000      2.0000000      2.0000000

 Free energy of the ion-electron system (eV)
  ---------------------------------------------------
  alpha Z        PSCENC =        50.17222034
  Ewald energy   TEWEN  =     -1044.83138452
  -Hartree energ DENC   =      -510.12304479
  -exchange      EXHF   =         0.00000000
  -V(xc)+E(xc)   XCENC  =       -19.42407828
  PAW double counting   =      1400.74953007    -1338.33597297
  entropy T*S    EENTRO =        -0.00000000
  eigenvalues    EBANDS =       -23.86997471
  atomic energy  EATOM  =      1514.29801353
  ---------------------------------------------------
  free energy    TOTEN  =        28.63530866 eV

  energy without entropy =       28.63530866  energy(sigma->0) =       28.63530866
  exchange ACFDT corr.  =         0.00000000  see jH, gK, PRB 81, 115126


--------------------------------------------------------------------------------------------------------




----------------------------------------- Iteration    1(   5)  ---------------------------------------


    TRIAL :  cpu time    2.7562: real time    2.7581
    CORREC:  cpu time    0.0000: real time    0.0012
    CHARGE:  cpu time    0.9881: real time    0.9868
    --------------------------------------------
      LOOP:  cpu time    3.7482: real time    3.7513

 eigenvalue-minimisations  :  5272
 total energy-change (2. order) :-0.2070625E+00  (-0.2068222E+00)
 number of electron      18.0000000 magnetization       0.0067422      0.0067320      0.0067469
 augmentation part        4.3786101 magnetization       0.0186468      0.0186532      0.0186501

 Free energy of the ion-electron system (eV)
  ---------------------------------------------------
  alpha Z        PSCENC =        50.17222034
  Ewald energy   TEWEN  =     -1044.83138452
  -Hartree energ DENC   =      -510.12304479
  -exchange      EXHF   =         0.00000000
  -V(xc)+E(xc)   XCENC  =       -19.42407828
  PAW double counting   =      1400.74953007    -1338.33597297
  entropy T*S    EENTRO =        -0.00000000
  eigenvalues    EBANDS =       -24.07703724
  atomic energy  EATOM  =      1514.29801353
  ---------------------------------------------------
  free energy    TOTEN  =        28.42824613 eV

  energy without entropy =       28.42824613  energy(sigma->0) =       28.42824613
  exchange ACFDT corr.  =         0.00000000  see jH, gK, PRB 81, 115126


--------------------------------------------------------------------------------------------------------




----------------------------------------- Iteration    1(   6)  ---------------------------------------


    POTLOK:  cpu time    0.0880: real time    0.0880
    SETDIJ:  cpu time    0.2560: real time    0.2557
