 running on   24 total cores
 distrk:  each k-point on   24 cores,    1 groups
 distr:  one band on   24 cores,    1 groups
 using from now: INCAR     
 vasp.5.4.1 24Jun15 (build Nov 25 2015 16:39:35) complex                        
  
 POSCAR found :  2 types and       2 ions
 scaLAPACK will be used

 ----------------------------------------------------------------------------- 
|                                                                             |
|           W    W    AA    RRRRR   N    N  II  N    N   GGGG   !!!           |
|           W    W   A  A   R    R  NN   N  II  NN   N  G    G  !!!           |
|           W    W  A    A  R    R  N N  N  II  N N  N  G       !!!           |
|           W WW W  AAAAAA  RRRRR   N  N N  II  N  N N  G  GGG   !            |
|           WW  WW  A    A  R   R   N   NN  II  N   NN  G    G                |
|           W    W  A    A  R    R  N    N  II  N    N   GGGG   !!!           |
|                                                                             |
|      For optimal performance we recommend to set                            |
|        NCORE= 4 - approx SQRT( number of cores)                             |
|      NCORE specifies how many cores store one orbital (NPAR=cpu/NCORE).     |
|      This setting can  greatly improve the performance of VASP for DFT.     |
|      The default, NPAR=number of cores might be grossly inefficient         |
|      on modern multi-core architectures or massively parallel machines.     |
|      Do your own testing !!!!                                               |
|      Unfortunately you need to use the default for GW and RPA calculations. |
|      (for HF NCORE is supported but not extensively tested yet)             |
|                                                                             |
 ----------------------------------------------------------------------------- 

 LDA part: xc-table for Pade appr. of Perdew
 POSCAR, INCAR and KPOINTS ok, starting setup
 FFT: planning ...
 WAVECAR not read
 WARNING: random wavefunctions but no delay for mixing, default for NELMDL
 entering main loop
       N       E                     dE             d eps       ncg     rms          ort
DAV:   1     0.656808029859E+03    0.65681E+03   -0.43604E+04  2128   0.216E+03
DAV:   2     0.132345302809E+03   -0.52446E+03   -0.50424E+03  2128   0.727E+02
DAV:   3     0.356909312037E+02   -0.96654E+02   -0.91119E+02  2128   0.213E+02
DAV:   4     0.286353086637E+02   -0.70556E+01   -0.69682E+01  2128   0.562E+01
DAV:   5     0.284282461271E+02   -0.20706E+00   -0.20682E+00  2128   0.749E+00
 gam= 0.000 g(H,U,f)=        NaN 0.109E+01       NaN ort(H,U,f) =       NaN 0.000E+00       NaN
{    5,    1}:  On entry to {    4,    0}:  On entry to {    1,    1}:  On entry to {    2,    1}:  On entry to 
{    3,    1}:  On entry to {    3,    0}:  On entry to {    2,    3}:  On entry to PZSTEIN parameter number    4 had an illegal value {    1,    3}:  On entry to {    5,    2}:  On entry to 




{    5,    3}:  On entry to PZSTEIN parameter number    4 had an illegal value PZSTEIN parameter number    4 had an illegal value PZSTEIN parameter number    4 had an illegal value 


PZSTEIN parameter number    4 had an illegal value 

{    2,    2}:  On entry to PZSTEIN parameter number    4 had an illegal value 


PZSTEIN parameter number    4 had an illegal value {    3,    2}:  On entry to PZSTEIN parameter number    4 had an illegal value {    0,    1}:  On entry to 

{    1,    2}:  On entry to {    0,    2}:  On entry to PZSTEIN parameter number    4 had an illegal value 


PZSTEIN parameter number    4 had an illegal value PZSTEIN parameter number    4 had an illegal value 

{    3,    3}:  On entry to {    4,    1}:  On entry to 
{    1,    0}:  On entry to 

PZSTEIN parameter number    4 had an illegal value PZSTEIN parameter number    4 had an illegal value PZSTEIN parameter number    4 had an illegal value 
{    5,    0}:  On entry to 


{    4,    2}:  On entry to PZSTEIN parameter number    4 had an illegal value 


PZSTEIN parameter number    4 had an illegal value 
PZSTEIN parameter number    4 had an illegal value 
{    2,    0}:  On entry to 

{    4,    3}:  On entry to PZSTEIN parameter number    4 had an illegal value PZSTEIN parameter number    4 had an illegal value 



PZSTEIN parameter number    4 had an illegal value 

PZSTEIN parameter number    4 had an illegal value 

{    0,    3}:  On entry to PZSTEIN parameter number    4 had an illegal value 

{    0,    0}:  On entry to PZSTEIN parameter number    4 had an illegal value 

PZSTEIN parameter number    4 had an illegal value 
{    4,    1}:  On entry to {    3,    1}:  On entry to {    4,    2}:  On entry to {    4,    0}:  On entry to {    3,    2}:  On entry to {    0,    3}:  On entry to 
{    4,    3}:  On entry to {    2,    1}:  On entry to {    5,    0}:  On entry to 
{    5,    1}:  On entry to {    1,    0}:  On entry to 

PZUNMTR parameter number    5 had an illegal value 
PZUNMTR parameter number    5 had an illegal value {    2,    0}:  On entry to 



PZUNMTR parameter number    5 had an illegal value 
PZUNMTR parameter number    5 had an illegal value 
{    0,    0}:  On entry to {    1,    1}:  On entry to 
{    5,    2}:  On entry to PZUNMTR parameter number    5 had an illegal value 

{    0,    2}:  On entry to PZUNMTR parameter number    5 had an illegal value 

PZUNMTR parameter number    5 had an illegal value {    2,    3}:  On entry to 
 GSD%LWWORK         796        1768         168          28
 GSD%LWWORK         796        1768         168          28

 ERROR in subspace rotation PSSYEVX: not enough eigenvalues found         309
 ERROR in subspace rotation PSSYEVX: not enough eigenvalues found         309
 GSD%LWWORK         796        1768         168          28
          28
 GSD%LWWORK         796        1768         168          28
 ERROR in subspace rotation PSSYEVX: not enough eigenvalues found         309
 ERROR in subspace rotation PSSYEVX: not enough eigenvalues found         309
          28
          28
{    0,    1}:  On entry to  GSD%LWWORK         796        1768         168          28

 GSD%LWWORK         796        1768         168          28
PZUNMTR parameter number    5 had an illegal value  ERROR in subspace rotation PSSYEVX: not enough eigenvalues found         309

          28
 ERROR in subspace rotation PSSYEVX: not enough eigenvalues found         309
{    3,    3}:  On entry to           28
{    5,    3}:  On entry to 


PZUNMTR parameter number    5 had an illegal value PZUNMTR parameter number    5 had an illegal value 

PZUNMTR parameter number    5 had an illegal value {    1,    3}:  On entry to 

 GSD%LWWORK         796        1768         168          28
PZUNMTR parameter number    5 had an illegal value  ERROR in subspace rotation PSSYEVX: not enough eigenvalues found         309

          28
{    2,    2}:  On entry to 

PZUNMTR parameter number    5 had an illegal value 
 GSD%LWWORK         796        1768         168          28
PZUNMTR parameter number    5 had an illegal value 

 ERROR in subspace rotation PSSYEVX: not enough eigenvalues found         309
 GSD%LWWORK         796        1768         168          28
          28
 ERROR in subspace rotation PSSYEVX: not enough eigenvalues found         309
 GSD%LWWORK         796        1768         168          28
          28
 GSD%LWWORK         796        1768         168          28
 ERROR in subspace rotation PSSYEVX: not enough eigenvalues found         309
 ERROR in subspace rotation PSSYEVX: not enough eigenvalues found         309
          28
{    1,    2}:  On entry to           28

PZUNMTR parameter number    5 had an illegal value  GSD%LWWORK         796        1768         168          28
 GSD%LWWORK         796        1768         168          28
 ERROR in subspace rotation PSSYEVX: not enough eigenvalues found         309
 ERROR in subspace rotation PSSYEVX: not enough eigenvalues found         309

          28
          28

PZUNMTR parameter number    5 had an illegal value PZUNMTR parameter number    5 had an illegal value 

{    3,    0}:  On entry to 
PZUNMTR parameter number    5 had an illegal value 
 GSD%LWWORK         796        1768         168          28
 ERROR in subspace rotation PSSYEVX: not enough eigenvalues found         309
          28
PZUNMTR parameter number    5 had an illegal value  GSD%LWWORK         796        1768         168          28
 GSD%LWWORK         796        1768         168          28
 ERROR in subspace rotation PSSYEVX: not enough eigenvalues found         309
 ERROR in subspace rotation PSSYEVX: not enough eigenvalues found         309

          28
          28
 GSD%LWWORK         796        1768         168          28
PZUNMTR parameter number    5 had an illegal value  ERROR in subspace rotation PSSYEVX: not enough eigenvalues found         309
          28



PZUNMTR parameter number    5 had an illegal value  GSD%LWWORK         796        1768         168          28

 ERROR in subspace rotation PSSYEVX: not enough eigenvalues found         309
PZUNMTR parameter number    5 had an illegal value           28
PZUNMTR parameter number    5 had an illegal value 

 GSD%LWWORK         796        1768         168          28
 GSD%LWWORK         796        1768         168          28
 ERROR in subspace rotation PSSYEVX: not enough eigenvalues found         309
          28
 ERROR in subspace rotation PSSYEVX: not enough eigenvalues found         309
          28
 GSD%LWWORK         796        1768         168          28
          28
 ERROR in subspace rotation PSSYEVX: not enough eigenvalues found         309
          28
PZUNMTR parameter number    5 had an illegal value  GSD%LWWORK         796        1768         168          28

 ERROR in subspace rotation PSSYEVX: not enough eigenvalues found         309
          28
 GSD%LWWORK         796        1768         168          28
 ERROR in subspace rotation PSSYEVX: not enough eigenvalues found         309
          28
 GSD%LWWORK         796        1768         168          28
 ERROR in subspace rotation PSSYEVX: not enough eigenvalues found         309
          28
Application 23532677 resources: utime ~27814s, stime ~184s, Rss ~208788, inblocks ~144176, outblocks ~193614
