       N       E                     dE             d eps       ncg     rms          ort
DAV:   1     0.259098009360E+04    0.25910E+04   -0.11066E+05  7168   0.188E+03
DAV:   2     0.178330676035E+03   -0.24126E+04   -0.24123E+04  7168   0.441E+02
DAV:   3     0.353621005791E+02   -0.14297E+03   -0.14247E+03  7168   0.825E+01
DAV:   4     0.331761205221E+02   -0.21860E+01   -0.21860E+01  7168   0.125E+01
DAV:   5     0.331571549678E+02   -0.18966E-01   -0.18962E-01  7168   0.137E+00
SDA:   6    -0.579300777599E+02   -0.91087E+02   -0.18962E-01  7168   0.619E+01 0.000E+00
CGA:   7    -0.590555651418E+02   -0.11255E+01   -0.11277E+01  7168   0.232E+01 0.498E-01
CGA:   8    -0.596572449206E+02   -0.60168E+00   -0.59539E+00  7168   0.365E+00 0.770E-01
CGA:   9    -0.598321073497E+02   -0.17486E+00   -0.17204E+00  7168   0.113E+00 0.117E-01
CGA:  10    -0.598618676996E+02   -0.29760E-01   -0.29749E-01  7168   0.472E-01 0.644E-04
CGA:  11    -0.598743405892E+02   -0.12473E-01   -0.12465E-01  7168   0.841E-02 0.117E-03
CGA:  12    -0.598774531323E+02   -0.31125E-02   -0.31183E-02  7168   0.227E-02-0.386E-04
CGA:  13    -0.598783139119E+02   -0.86078E-03   -0.86490E-03  7168   0.736E-03-0.266E-04
CGA:  14    -0.598785320233E+02   -0.21811E-03   -0.21747E-03  7168   0.272E-03 0.991E-05
CGA:  15    -0.598786070582E+02   -0.75035E-04   -0.75319E-04  7168   0.656E-04-0.800E-05
