    8    8    1    1
  0.2002677E+02  0.5435300E-09  0.5435300E-09  0.6646963E-09  0.5000000E-15
  1.000000000000000E-004
  CAR 
 Name                                    
     84     51     52
 
  0.0000000E+00  0.0000000E+00  0.0000000E+00  0.6944444E-02
    1      -63.917653
    2      -63.862603
    3      -63.862603
    4      -63.841688
    5      -63.841688
    6      -63.834262
    7      -17.410642
    8      -17.406933
    9      -17.406933
   10      -17.319349
   11      -17.313926
   12       -9.709115
   13       -8.141035
   14       -8.130179
   15       -8.130179
   16       -3.359650
   17       -2.493297
   18       -2.423914
   19       -2.421062
   20       -2.421062
   21       -2.323523
   22       -0.932178
   23       -0.290124
   24       -0.187019
   25        0.272166
   26        0.272166
   27        0.300786
   28        1.020559
   29        1.020559
   30        1.479642
   31        1.479645
   32        1.492527
   33        2.583589
   34        2.631934
   35        2.824309
   36        3.079245
   37        3.103434
   38        3.103439
   39        3.261609
   40        4.674545
   41        4.674548
   42        4.749717
   43        4.915729
   44        6.646784
   45        7.475402
   46        8.454584
   47        8.454584
   48        9.539667
   49        9.624310
   50        9.888697
   51        9.888697
   52       10.286580
 
  0.1666667E+00  0.0000000E+00  0.1387779E-16  0.2777778E-01
    1      -63.917652
    2      -63.862632
    3      -63.862561
    4      -63.841720
    5      -63.841649
    6      -63.834261
    7      -17.410765
    8      -17.407055
    9      -17.406922
   10      -17.319201
   11      -17.313857
   12       -9.615752
   13       -8.215766
   14       -8.173044
   15       -8.159089
   16       -3.314205
   17       -2.466637
   18       -2.449337
   19       -2.427612
   20       -2.413728
   21       -2.308361
   22       -0.980714
   23       -0.426389
   24       -0.185456
   25        0.122647
   26        0.441281
   27        0.592878
   28        0.929613
   29        1.024100
   30        1.389687
   31        1.452658
   32        1.585627
   33        2.626219
   34        2.714978
   35        2.847459
   36        2.969202
   37        3.050287
   38        3.224602
   39        3.340602
   40        4.032520
   41        4.451793
   42        4.634624
   43        5.668251
   44        7.058912
   45        7.691657
   46        8.200350
   47        8.300648
   48        9.297824
   49        9.766342
   50        9.890277
   51       10.018226
   52       10.277881
 
  0.3333333E+00  0.0000000E+00  0.0000000E+00  0.2777778E-01
    1      -63.917673
    2      -63.862733
    3      -63.862655
    4      -63.841821
    5      -63.841742
    6      -63.834282
    7      -17.411022
    8      -17.407297
    9      -17.406906
   10      -17.318912
   11      -17.313710
   12       -9.363839
   13       -8.467543
   14       -8.242385
   15       -8.200624
   16       -3.226213
   17       -2.487833
   18       -2.457540
   19       -2.408944
   20       -2.394286
   21       -2.271300
   22       -0.987876
   23       -0.507559
   24       -0.200087
   25        0.251388
   26        0.366978
   27        0.607098
   28        0.825808
   29        1.053199
   30        1.338767
   31        1.457455
   32        1.688153
   33        2.745965
   34        2.804571
   35        2.881753
   36        2.937997
   37        3.071357
   38        3.312604
   39        3.442346
   40        3.729055
   41        3.979902
   42        4.400260
   43        6.238035
   44        7.641273
   45        7.956394
   46        8.090145
   47        8.583258
   48        9.345907
   49        9.820119
   50        9.871548
   51       10.451194
   52       10.562689
 
  0.5000000E+00  0.0000000E+00  0.0000000E+00  0.2777778E-01
    1      -63.917706
    2      -63.862688
    3      -63.862623
    4      -63.841779
    5      -63.841711
    6      -63.834313
    7      -17.411140
    8      -17.407415
    9      -17.406890
   10      -17.318766
   11      -17.313630
   12       -9.136543
   13       -8.701177
   14       -8.273355
   15       -8.220635
   16       -3.184559
   17       -2.498518
   18       -2.467068
   19       -2.399464
   20       -2.377263
   21       -2.246945
   22       -0.927029
   23       -0.526383
   24       -0.169783
   25        0.094060
   26        0.408753
   27        0.489413
   28        0.945427
   29        1.105389
   30        1.253275
   31        1.474305
   32        1.686729
   33        2.769509
   34        2.800486
   35        2.893833
   36        3.007316
   37        3.105124
   38        3.429524
   39        3.548967
   40        3.615024
   41        3.683698
   42        4.228663
   43        6.442968
   44        7.816269
   45        7.966816
   46        8.876836
   47        8.929570
   48        9.242584
   49        9.686247
   50        9.990518
   51       10.271268
   52       10.747768
 
  0.1666667E+00  0.1666667E+00  0.2775558E-16  0.1388889E-01
    1      -63.917614
    2      -63.862641
    3      -63.862591
    4      -63.841728
    5      -63.841679
    6      -63.834223
    7      -17.410912
    8      -17.407033
    9      -17.407005
   10      -17.319051
   11      -17.313786
   12       -9.492713
   13       -8.299828
   14       -8.218835
   15       -8.212753
   16       -3.306001
   17       -2.472504
   18       -2.460904
   19       -2.410279
   20       -2.398771
   21       -2.280494
   22       -1.080236
   23       -0.560630
   24       -0.023353
   25        0.247983
   26        0.351925
   27        0.685762
   28        0.940295
   29        1.059601
   30        1.323537
   31        1.532221
   32        1.593958
   33        2.657512
   34        2.791249
   35        2.874803
   36        2.947885
   37        3.081779
   38        3.255141
   39        3.381197
   40        3.744936
   41        4.476158
   42        4.521970
   43        5.789551
   44        7.301351
   45        7.561391
   46        7.858883
   47        8.322169
   48        9.390363
   49        9.728385
   50        9.939644
   51       10.134982
   52       10.271418
 
  0.3333333E+00  0.1666667E+00  0.0000000E+00  0.2777778E-01
    1      -63.917683
    2      -63.862702
    3      -63.862626
    4      -63.841791
    5      -63.841714
    6      -63.834292
    7      -17.411188
    8      -17.407272
    9      -17.407007
   10      -17.318751
   11      -17.313653
   12       -9.239219
   13       -8.506532
   14       -8.318691
   15       -8.238441
   16       -3.265232
   17       -2.509859
   18       -2.462648
   19       -2.397001
   20       -2.370208
   21       -2.249965
   22       -1.102997
   23       -0.693308
   24       -0.153529
   25        0.180502
   26        0.512716
   27        0.744706
   28        0.977378
   29        1.023306
   30        1.347385
   31        1.562493
   32        1.642672
   33        2.713857
   34        2.813661
   35        2.906058
   36        2.965238
   37        3.144245
   38        3.399438
   39        3.446991
   40        3.676549
   41        4.101185
   42        4.357228
   43        6.034971
   44        7.470722
   45        7.752507
   46        8.075146
   47        8.606326
   48        9.608613
   49        9.902293
   50       10.095839
   51       10.362688
   52       10.565579
 
  0.5000000E+00  0.1666667E+00  0.0000000E+00  0.2777778E-01
    1      -63.917673
    2      -63.862698
    3      -63.862625
    4      -63.841789
    5      -63.841713
    6      -63.834280
    7      -17.411311
    8      -17.407427
    9      -17.407018
   10      -17.318599
   11      -17.313583
   12       -9.101720
   13       -8.646644
   14       -8.350410
   15       -8.218833
   16       -3.238365
   17       -2.499977
   18       -2.460308
   19       -2.398901
   20       -2.365599
   21       -2.270025
   22       -1.111889
   23       -0.753856
   24       -0.239665
   25        0.062773
   26        0.569422
   27        0.753274
   28        0.946390
   29        1.096963
   30        1.383734
   31        1.524946
   32        1.704714
   33        2.756042
   34        2.808395
   35        2.874070
   36        2.937252
   37        3.285442
   38        3.398982
   39        3.600169
   40        3.666621
   41        3.937331
   42        4.148988
   43        6.224148
   44        7.663187
   45        7.976318
   46        8.641057
   47        8.908904
   48        9.387278
   49        9.622692
   50        9.930555
   51       10.504038
   52       10.777004
 
 -0.3333333E+00  0.1666667E+00  0.0000000E+00  0.1388889E-01
    1      -63.917641
    2      -63.862704
    3      -63.862621
    4      -63.841792
    5      -63.841711
    6      -63.834248
    7      -17.411165
    8      -17.407330
    9      -17.407041
   10      -17.318741
   11      -17.313662
   12       -9.348747
   13       -8.430397
   14       -8.299294
   15       -8.171805
   16       -3.250318
   17       -2.469907
   18       -2.457245
   19       -2.426124
   20       -2.379861
   21       -2.305537
   22       -1.190120
   23       -0.704408
   24       -0.120737
   25        0.046313
   26        0.470573
   27        0.789792
   28        0.909833
   29        1.064086
   30        1.348507
   31        1.519851
   32        1.750481
   33        2.744174
   34        2.814307
   35        2.881325
   36        2.938852
   37        3.158806
   38        3.281650
   39        3.544349
   40        3.666515
   41        4.181478
   42        4.336181
   43        6.119079
   44        7.722377
   45        7.897572
   46        8.096059
   47        8.781003
   48        9.334838
   49        9.681263
   50       10.081862
   51       10.483770
   52       10.637304
 
 -0.1666667E+00  0.1666667E+00  0.0000000E+00  0.1388889E-01
    1      -63.917618
    2      -63.862640
    3      -63.862624
    4      -63.841728
    5      -63.841710
    6      -63.834227
    7      -17.410895
    8      -17.407120
    9      -17.407024
   10      -17.319043
   11      -17.313796
   12       -9.562447
   13       -8.262837
   14       -8.208851
   15       -8.140720
   16       -3.285081
   17       -2.483337
   18       -2.447085
   19       -2.433780
   20       -2.396963
   21       -2.316193
   22       -1.082606
   23       -0.576254
   24       -0.115099
   25        0.106730
   26        0.313367
   27        0.799927
   28        0.939605
   29        1.057663
   30        1.264784
   31        1.537824
   32        1.633493
   33        2.665954
   34        2.750783
   35        2.877945
   36        2.914770
   37        3.024150
   38        3.294692
   39        3.430610
   40        3.813504
   41        4.423398
   42        4.611881
   43        5.780014
   44        7.209008
   45        7.910548
   46        8.328044
   47        8.482299
   48        9.303839
   49        9.649139
   50        9.980103
   51       10.143035
   52       10.224666
 
  0.1666667E+00  0.3333333E+00  0.0000000E+00  0.2777778E-01
    1      -63.917683
    2      -63.862702
    3      -63.862626
    4      -63.841791
    5      -63.841714
    6      -63.834291
    7      -17.411188
    8      -17.407272
    9      -17.407007
   10      -17.318751
   11      -17.313653
   12       -9.239216
   13       -8.506609
   14       -8.318465
   15       -8.238594
   16       -3.265569
   17       -2.505175
   18       -2.474211
   19       -2.393407
   20       -2.369644
   21       -2.243204
   22       -1.104087
   23       -0.730701
   24       -0.092973
   25        0.230938
   26        0.472918
   27        0.647058
   28        0.947343
   29        1.124639
   30        1.346943
   31        1.538617
   32        1.654984
   33        2.736751
   34        2.802444
   35        2.902516
   36        2.961082
   37        3.217980
   38        3.277478
   39        3.493317
   40        3.661621
   41        4.111821
   42        4.363294
   43        6.028092
   44        7.483859
   45        7.737661
   46        8.066439
   47        8.713487
   48        9.388157
   49        9.977963
   50       10.094251
   51       10.414480
   52       10.574231
 
  0.3333333E+00  0.3333333E+00  0.0000000E+00  0.1388889E-01
    1      -63.917634
    2      -63.862687
    3      -63.862636
    4      -63.841778
    5      -63.841727
    6      -63.834241
    7      -17.411501
    8      -17.407368
    9      -17.407166
   10      -17.318429
   11      -17.313535
   12       -9.048543
   13       -8.518729
   14       -8.386193
   15       -8.360120
   16       -3.314292
   17       -2.521938
   18       -2.480767
   19       -2.369038
   20       -2.358898
   21       -2.245683
   22       -1.270542
   23       -0.892629
   24       -0.567127
   25        0.493602
   26        0.706411
   27        0.814034
   28        0.965599
   29        1.157806
   30        1.399729
   31        1.588033
   32        1.692723
   33        2.724266
   34        2.790189
   35        2.915359
   36        2.973530
   37        3.239849
   38        3.509675
   39        3.678927
   40        3.774983
   41        4.182342
   42        4.224414
   43        5.781387
   44        7.365437
   45        7.996865
   46        8.175926
   47        8.695789
   48        9.474441
   49        9.796797
   50       10.368937
   51       10.415910
   52       10.743106
 
  0.5000000E+00  0.3333333E+00 -0.5551115E-16  0.2777778E-01
    1      -63.917678
    2      -63.862702
    3      -63.862664
    4      -63.841791
    5      -63.841756
    6      -63.834284
    7      -17.411651
    8      -17.407541
    9      -17.407179
   10      -17.318270
   11      -17.313486
   12       -9.010232
   13       -8.541627
   14       -8.425837
   15       -8.311913
   16       -3.338860
   17       -2.495837
   18       -2.465668
   19       -2.374339
   20       -2.352950
   21       -2.314058
   22       -1.458035
   23       -0.935204
   24       -0.505314
   25        0.133609
   26        0.800587
   27        0.983382
   28        1.084374
   29        1.161032
   30        1.472728
   31        1.553400
   32        1.761248
   33        2.763456
   34        2.796363
   35        2.909216
   36        2.940561
   37        3.308551
   38        3.571862
   39        3.772649
   40        3.851988
   41        4.092902
   42        4.238752
   43        5.784795
   44        7.290811
   45        7.973040
   46        8.535066
   47        9.033452
   48        9.188211
   49        9.790092
   50       10.258444
   51       10.490023
   52       10.682999
 
 -0.3333333E+00  0.3333333E+00  0.0000000E+00  0.1388889E-01
    1      -63.917671
    2      -63.862688
    3      -63.862639
    4      -63.841777
    5      -63.841731
    6      -63.834277
    7      -17.411482
    8      -17.407479
    9      -17.407156
   10      -17.318422
   11      -17.313555
   12       -9.197102
   13       -8.482918
   14       -8.357168
   15       -8.217753
   16       -3.307337
   17       -2.496636
   18       -2.437635
   19       -2.411745
   20       -2.363421
   21       -2.325910
   22       -1.469667
   23       -0.809667
   24       -0.292040
   25       -0.104471
   26        0.775479
   27        0.934238
   28        1.084414
   29        1.149522
   30        1.384658
   31        1.592385
   32        1.754954
   33        2.762477
   34        2.820134
   35        2.846834
   36        2.968096
   37        3.351571
   38        3.429180
   39        3.532819
   40        3.717543
   41        4.092534
   42        4.442342
   43        5.964386
   44        7.593482
   45        7.776731
   46        8.361059
   47        8.706090
   48        9.432446
   49        9.872963
   50       10.225594
   51       10.281088
   52       10.640947
 
 -0.1666667E+00  0.3333333E+00  0.0000000E+00  0.1388889E-01
    1      -63.917641
    2      -63.862704
    3      -63.862622
    4      -63.841793
    5      -63.841710
    6      -63.834248
    7      -17.411165
    8      -17.407335
    9      -17.407037
   10      -17.318741
   11      -17.313662
   12       -9.348691
   13       -8.430571
   14       -8.299134
   15       -8.171920
   16       -3.241402
   17       -2.504698
   18       -2.449915
   19       -2.415672
   20       -2.384148
   21       -2.299826
   22       -1.199350
   23       -0.644448
   24       -0.218765
   25        0.077610
   26        0.491585
   27        0.829833
   28        0.931607
   29        1.049462
   30        1.296344
   31        1.586638
   32        1.679728
   33        2.719329
   34        2.814049
   35        2.869179
   36        3.001523
   37        3.104111
   38        3.335091
   39        3.482614
   40        3.721889
   41        4.187694
   42        4.320580
   43        6.132918
   44        7.768427
   45        7.867082
   46        8.071324
   47        8.680817
   48        9.417772
   49        9.719556
   50       10.256419
   51       10.334865
   52       10.634369
 
  0.1666667E+00  0.5000000E+00  0.0000000E+00  0.2777778E-01
    1      -63.917673
    2      -63.862698
    3      -63.862625
    4      -63.841789
    5      -63.841713
    6      -63.834280
    7      -17.411310
    8      -17.407430
    9      -17.407014
   10      -17.318599
   11      -17.313583
   12       -9.101564
   13       -8.646926
   14       -8.350287
   15       -8.218896
   16       -3.230553
   17       -2.519703
   18       -2.464554
   19       -2.392441
   20       -2.366303
   21       -2.261499
   22       -1.135571
   23       -0.718639
   24       -0.290024
   25        0.174265
   26        0.467444
   27        0.802001
   28        0.979598
   29        1.057551
   30        1.366698
   31        1.563561
   32        1.661685
   33        2.746757
   34        2.798122
   35        2.877368
   36        2.986540
   37        3.242993
   38        3.438165
   39        3.505263
   40        3.745343
   41        3.915388
   42        4.168673
   43        6.231393
   44        7.663914
   45        7.963652
   46        8.660277
   47        8.883404
   48        9.387794
   49        9.620778
   50        9.977529
   51       10.458409
   52       10.770215
 
  0.3333333E+00  0.5000000E+00 -0.5551115E-16  0.2777778E-01
    1      -63.917678
    2      -63.862702
    3      -63.862664
    4      -63.841791
    5      -63.841756
    6      -63.834284
    7      -17.411650
    8      -17.407545
    9      -17.407175
   10      -17.318271
   11      -17.313486
   12       -9.010009
   13       -8.542526
   14       -8.425068
   15       -8.312070
   16       -3.332498
   17       -2.527773
   18       -2.455077
   19       -2.368101
   20       -2.355615
   21       -2.302717
   22       -1.467803
   23       -0.929171
   24       -0.520401
   25        0.207382
   26        0.707923
   27        1.015943
   28        1.065850
   29        1.214609
   30        1.458096
   31        1.558901
   32        1.730062
   33        2.749519
   34        2.804257
   35        2.853588
   36        3.040684
   37        3.377458
   38        3.431371
   39        3.710659
   40        3.944663
   41        4.109054
   42        4.234686
   43        5.795107
   44        7.289181
   45        7.992456
   46        8.484020
   47        8.929524
   48        9.358087
   49        9.789742
   50       10.276914
   51       10.417512
   52       10.636984
 
  0.5000000E+00  0.5000000E+00  0.0000000E+00  0.1388889E-01
    1      -63.917630
    2      -63.862710
    3      -63.862537
    4      -63.841801
    5      -63.841628
    6      -63.834238
    7      -17.411814
    8      -17.407647
    9      -17.407200
   10      -17.318107
   11      -17.313429
   12       -8.948214
   13       -8.477206
   14       -8.429332
   15       -8.420529
   16       -3.387064
   17       -2.510492
   18       -2.434450
   19       -2.361193
   20       -2.355704
   21       -2.348973
   22       -1.631674
   23       -0.968845
   24       -0.558228
   25        0.335750
   26        0.466712
   27        1.083551
   28        1.138685
   29        1.345027
   30        1.489480
   31        1.567268
   32        1.761804
   33        2.769812
   34        2.817886
   35        2.906542
   36        3.021921
   37        3.390629
   38        3.488966
   39        3.921027
   40        4.045479
   41        4.238516
   42        4.319466
   43        5.453272
   44        6.917149
   45        7.796474
   46        8.812727
   47        8.984587
   48        9.607059
   49        9.762704
   50       10.344285
   51       10.492757
   52       10.606484
 
  0.0000000E+00  0.0000000E+00  0.2500000E+00  0.1388889E-01
    1      -63.917717
    2      -63.862562
    3      -63.862561
    4      -63.841651
    5      -63.841650
    6      -63.834326
    7      -17.410704
    8      -17.406801
    9      -17.406801
   10      -17.319375
   11      -17.313906
   12       -9.541778
   13       -8.412729
   14       -8.137858
   15       -8.137858
   16       -3.401911
   17       -2.473488
   18       -2.441436
   19       -2.441435
   20       -2.384559
   21       -2.225661
   22       -1.098863
   23       -0.314182
   24        0.170076
   25        0.434265
   26        0.434265
   27        0.622861
   28        1.032202
   29        1.032203
   30        1.292235
   31        1.494990
   32        1.494992
   33        2.492084
   34        2.761396
   35        2.893191
   36        2.921381
   37        3.253667
   38        3.283671
   39        3.283675
   40        3.986293
   41        4.309805
   42        4.309808
   43        5.929217
   44        6.831714
   45        7.468303
   46        7.468304
   47        7.620736
   48        8.559207
   49        9.058704
   50        9.385996
   51       10.285863
   52       10.285863
 
  0.1666667E+00  0.0000000E+00  0.2500000E+00  0.2777778E-01
    1      -63.917616
    2      -63.862627
    3      -63.862573
    4      -63.841714
    5      -63.841661
    6      -63.834226
    7      -17.410786
    8      -17.407009
    9      -17.406880
   10      -17.319208
   11      -17.313846
   12       -9.561214
   13       -8.274704
   14       -8.211132
   15       -8.156401
   16       -3.330696
   17       -2.468794
   18       -2.436988
   19       -2.426062
   20       -2.409126
   21       -2.281589
   22       -1.015816
   23       -0.395933
   24       -0.146195
   25        0.251670
   26        0.465044
   27        0.646833
   28        0.907475
   29        1.024847
   30        1.384060
   31        1.457276
   32        1.555682
   33        2.606042
   34        2.765798
   35        2.856666
   36        2.955710
   37        3.100634
   38        3.222756
   39        3.333203
   40        3.907265
   41        4.321953
   42        4.642235
   43        5.794605
   44        7.127282
   45        7.548671
   46        7.957030
   47        8.037267
   48        9.126691
   49        9.620439
   50        9.820764
   51        9.955785
   52       10.227911
 
  0.3333333E+00  0.0000000E+00  0.2500000E+00  0.2777778E-01
    1      -63.917608
    2      -63.862688
    3      -63.862632
    4      -63.841778
    5      -63.841717
    6      -63.834215
    7      -17.411006
    8      -17.407312
    9      -17.406922
   10      -17.318906
   11      -17.313710
   12       -9.409630
   13       -8.415960
   14       -8.272441
   15       -8.152011
   16       -3.212996
   17       -2.492680
   18       -2.455643
   19       -2.415376
   20       -2.397692
   21       -2.287325
   22       -1.007662
   23       -0.543785
   24       -0.128130
   25        0.121341
   26        0.387839
   27        0.575984
   28        0.831165
   29        1.019307
   30        1.358721
   31        1.453142
   32        1.726937
   33        2.743671
   34        2.814025
   35        2.867424
   36        2.924165
   37        3.063496
   38        3.299015
   39        3.458393
   40        3.780681
   41        4.079669
   42        4.332023
   43        6.255733
   44        7.775616
   45        7.973475
   46        8.036760
   47        8.606391
   48        9.369157
   49        9.835972
   50       10.117713
   51       10.490606
   52       10.546319
 
  0.5000000E+00  0.0000000E+00  0.2500000E+00  0.2777778E-01
    1      -63.917691
    2      -63.862704
    3      -63.862608
    4      -63.841796
    5      -63.841693
    6      -63.834295
    7      -17.411145
    8      -17.407414
    9      -17.406891
   10      -17.318767
   11      -17.313631
   12       -9.154339
   13       -8.578072
   14       -8.471205
   15       -8.128784
   16       -3.183117
   17       -2.544407
   18       -2.447991
   19       -2.398649
   20       -2.364690
   21       -2.216976
   22       -0.993048
   23       -0.429445
   24       -0.147315
   25        0.155981
   26        0.263208
   27        0.611252
   28        0.697824
   29        1.036429
   30        1.415283
   31        1.479882
   32        1.721487
   33        2.766599
   34        2.802597
   35        2.878589
   36        3.027756
   37        3.151919
   38        3.212244
   39        3.408246
   40        3.752727
   41        3.989422
   42        4.205954
   43        6.412622
   44        7.418691
   45        7.891668
   46        8.704277
   47        8.979818
   48        9.611436
   49        9.946130
   50       10.294399
   51       10.581891
   52       10.816974
 
 -0.3333333E+00  0.0000000E+00  0.2500000E+00  0.2777778E-01
    1      -63.917698
    2      -63.862743
    3      -63.862613
    4      -63.841834
    5      -63.841700
    6      -63.834305
    7      -17.411065
    8      -17.407205
    9      -17.406808
   10      -17.318930
   11      -17.313693
   12       -9.116350
   13       -8.619854
   14       -8.488639
   15       -8.139377
   16       -3.261636
   17       -2.547721
   18       -2.452931
   19       -2.426126
   20       -2.349377
   21       -2.126986
   22       -0.977162
   23       -0.304115
   24       -0.102013
   25        0.113849
   26        0.436945
   27        0.691049
   28        0.907936
   29        1.030046
   30        1.374310
   31        1.496885
   32        1.592189
   33        2.735852
   34        2.768204
   35        2.872745
   36        3.003409
   37        3.165382
   38        3.235691
   39        3.462071
   40        3.645447
   41        3.862637
   42        4.292836
   43        6.307471
   44        7.134367
   45        7.661155
   46        8.373257
   47        8.474243
   48        9.173202
   49        9.609813
   50        9.943769
   51       10.193528
   52       10.548070
 
 -0.1666667E+00  0.0000000E+00  0.2500000E+00  0.2777778E-01
    1      -63.917742
    2      -63.862633
    3      -63.862576
    4      -63.841723
    5      -63.841664
    6      -63.834350
    7      -17.410845
    8      -17.406897
    9      -17.406763
   10      -17.319228
   11      -17.313833
   12       -9.361467
   13       -8.553912
   14       -8.248596
   15       -8.144816
   16       -3.365845
   17       -2.508359
   18       -2.453138
   19       -2.447545
   20       -2.364035
   21       -2.146556
   22       -1.095770
   23       -0.278501
   24        0.127970
   25        0.398700
   26        0.498043
   27        0.699578
   28        0.934747
   29        1.042747
   30        1.389344
   31        1.454606
   32        1.523579
   33        2.590645
   34        2.772974
   35        2.867719
   36        2.922735
   37        3.204514
   38        3.306977
   39        3.482800
   40        3.708241
   41        3.969927
   42        4.338301
   43        6.121237
   44        7.142617
   45        7.163775
   46        7.356778
   47        7.983886
   48        8.617306
   49        9.130204
   50        9.411076
   51       10.480601
   52       10.577286
 
  0.1666667E+00  0.1666667E+00  0.2500000E+00  0.1388889E-01
    1      -63.917648
    2      -63.862634
    3      -63.862618
    4      -63.841721
    5      -63.841707
    6      -63.834257
    7      -17.410899
    8      -17.407095
    9      -17.407020
   10      -17.319044
   11      -17.313796
   12       -9.544759
   13       -8.268527
   14       -8.210467
   15       -8.164409
   16       -3.291190
   17       -2.469777
   18       -2.451343
   19       -2.435091
   20       -2.397826
   21       -2.308387
   22       -1.081396
   23       -0.574570
   24       -0.092005
   25        0.148789
   26        0.321707
   27        0.770485
   28        0.934263
   29        1.060706
   30        1.282799
   31        1.537165
   32        1.621814
   33        2.661641
   34        2.765137
   35        2.874948
   36        2.926562
   37        3.041597
   38        3.279342
   39        3.411865
   40        3.790500
   41        4.470880
   42        4.576328
   43        5.771080
   44        7.232695
   45        7.801470
   46        8.191490
   47        8.408193
   48        9.358290
   49        9.690975
   50        9.982439
   51       10.151295
   52       10.276563
 
  0.3333333E+00  0.1666667E+00  0.2500000E+00  0.1388889E-01
    1      -63.917626
    2      -63.862702
    3      -63.862621
    4      -63.841791
    5      -63.841709
    6      -63.834233
    7      -17.411161
    8      -17.407351
    9      -17.407033
   10      -17.318741
   11      -17.313663
   12       -9.363367
   13       -8.413538
   14       -8.311225
   15       -8.154027
   16       -3.236932
   17       -2.513038
   18       -2.442272
   19       -2.420259
   20       -2.384063
   21       -2.304204
   22       -1.218436
   23       -0.601321
   24       -0.275742
   25        0.053261
   26        0.511912
   27        0.877886
   28        0.908369
   29        1.042849
   30        1.281933
   31        1.586850
   32        1.689347
   33        2.723060
   34        2.814140
   35        2.849675