 vasp.5.3.5 31Mar14 (build Apr 15 2015 10:45:18) complex                        
  
 executed on             LinuxIFC date 2016.02.16  16:29:58
 running on   64 total cores
 distrk:  each k-point on   16 cores,    4 groups
 distr:  one band on NCORES_PER_BAND=   4 cores,    4 groups


--------------------------------------------------------------------------------------------------------


 INCAR:
 POTCAR:   PAW Cu_pv 19Apr2000                    
 POTCAR:   PAW Zn 03Mar1998                       
 POTCAR:   PAW Sn_d 09Feb1998                     
 POTCAR:   PAW S 21Jan2003                        

 ----------------------------------------------------------------------------- 
|                                                                             |
|           W    W    AA    RRRRR   N    N  II  N    N   GGGG   !!!           |
|           W    W   A  A   R    R  NN   N  II  NN   N  G    G  !!!           |
|           W    W  A    A  R    R  N N  N  II  N N  N  G       !!!           |
|           W WW W  AAAAAA  RRRRR   N  N N  II  N  N N  G  GGG   !            |
|           WW  WW  A    A  R   R   N   NN  II  N   NN  G    G                |
|           W    W  A    A  R    R  N    N  II  N    N   GGGG   !!!           |
|                                                                             |
|      You have enabled k-point parallelism (KPAR>1).                         |
|      This developmental code was originally  written by Paul Kent at ORNL,  |
|      and carefully double checked in Vienna.                                |
|      GW as well as linear response parallelism added by Martijn Marsman     |
|      and Georg Kresse.                                                      |
|      Carefully verify results versus KPAR=1.                                |
|      Report problems to Paul Kent and Vienna.                               |
|                                                                             |
 ----------------------------------------------------------------------------- 

 POTCAR:   PAW Cu_pv 19Apr2000                    
   VRHFIN =Cu: d10 p1                                                           
   LEXCH  = CA                                                                  
   EATOM  =  4124.1158 eV,  303.1140 Ry                                         
                                                                                
   TITEL  = PAW Cu_pv 19Apr2000                                                 
   LULTRA =        F    use ultrasoft PP ?                                      
   IUNSCR =        1    unscreen: 0-lin 1-nonlin 2-no                           
   RPACOR =    1.500    partial core radius                                     
   POMASS =   63.546; ZVAL   =   17.000    mass and valenz                      
   RCORE  =    2.000    outmost cutoff radius                                   
   RWIGS  =    2.000; RWIGS  =    1.058    wigner-seitz radius (au A)           
   ENMAX  =  368.406; ENMIN  =  276.305 eV                                      
   RCLOC  =    1.304    cutoff for local pot                                    
   LCOR   =        T    correct aug charges                                     
   LPAW   =        T    paw PP                                                  
   EAUG   =  758.233                                                            
   DEXC   =    -.002                                                            
   RMAX   =    2.402    core radius for proj-oper                               
   RAUG   =    1.300    factor for augmentation sphere                          
   RDEP   =    2.025    core radius for depl-charge                             
   QCUT   =   -5.204; QGAM   =   10.407    optimization parameters              
                                                                                
   Description                                                                  
     l     E      TYP  RCUT    TYP  RCUT                                        
     1   .000     23  1.700                                                     
     1  -.100     23  1.700                                                     
     2   .000     23  2.000                                                     
     2   .000     23  2.000                                                     
     0   .000     23  1.800                                                     
     0   .000     23  1.800                                                     
     3   .000      7   .000                                                     
  local pseudopotential read in
  partial core-charges read in
  atomic valenz-charges read in
  non local Contribution for L=           1  read in
    real space projection operators read in
  non local Contribution for L=           1  read in
    real space projection operators read in
  non local Contribution for L=           2  read in
    real space projection operators read in
  non local Contribution for L=           2  read in
    real space projection operators read in
  non local Contribution for L=           0  read in
    real space projection operators read in
  non local Contribution for L=           0  read in
    real space projection operators read in
    PAW grid and wavefunctions read in
 
   number of l-projection  operators is LMAX  =           6
   number of lm-projection operators is LMMAX =          18
 
 POTCAR:   PAW Zn 03Mar1998                       
   VRHFIN =Zn: d10 p2                                                           
   LEXCH  = CA                                                                  
   EATOM  =  1754.0560 eV,  128.9195 Ry                                         
                                                                                
   TITEL  = PAW Zn 03Mar1998                                                    
   LULTRA =        F    use ultrasoft PP ?                                      
   IUNSCR =        1    unscreen: 0-lin 1-nonlin 2-no                           
   RPACOR =    2.000    partial core radius                                     
   POMASS =   65.390; ZVAL   =   12.000    mass and valenz                      
   RCORE  =    2.300    outmost cutoff radius                                   
   RWIGS  =    2.400; RWIGS  =    1.270    wigner-seitz radius (au A)           
   ENMAX  =  276.847; ENMIN  =  207.636 eV                                      
   RCLOC  =    1.828    cutoff for local pot                                    
   LCOR   =        T    correct aug charges                                     
   LPAW   =        T    paw PP                                                  
   EAUG   =  575.892                                                            
   DEXC   =    -.003                                                            
   RMAX   =    2.771    core radius for proj-oper                               
   RAUG   =    1.300    factor for augmentation sphere                          
   RDEP   =    2.324    core radius for depl-charge                             
   QCUT   =   -4.511; QGAM   =    9.022    optimization parameters              
                                                                                
   Description                                                                  
     l     E      TYP  RCUT    TYP  RCUT                                        
     2   .000     23  2.300                                                     
     2   .000     23  2.300                                                     
     0   .000     23  2.300                                                     
     0   .000     23  2.300                                                     
     1  -.200     23  2.300                                                     
     1   .000     23  2.300                                                     
     3   .000      7   .000                                                     
  local pseudopotential read in
  partial core-charges read in
  atomic valenz-charges read in
  non local Contribution for L=           2  read in
    real space projection operators read in
  non local Contribution for L=           2  read in
    real space projection operators read in
  non local Contribution for L=           0  read in
    real space projection operators read in
  non local Contribution for L=           0  read in
    real space projection operators read in
  non local Contribution for L=           1  read in
    real space projection operators read in
  non local Contribution for L=           1  read in
    real space projection operators read in
    PAW grid and wavefunctions read in
 
   number of l-projection  operators is LMAX  =           6
   number of lm-projection operators is LMMAX =          18
 
 POTCAR:   PAW Sn_d 09Feb1998                     
   VRHFIN =Sn: s2p2                                                             
   LEXCH  = CA                                                                  
   EATOM  =  1896.7356 eV,  139.4061 Ry                                         
                                                                                
   TITEL  = PAW Sn_d 09Feb1998                                                  
   LULTRA =        F    use ultrasoft PP ?                                      
   IUNSCR =        1    unscreen: 0-lin 1-nonlin 2-no                           
   RPACOR =    2.300    partial core radius                                     
   POMASS =  118.710; ZVAL   =   14.000    mass and valenz                      
   RCORE  =    2.500    outmost cutoff radius                                   
   RWIGS  =    2.960; RWIGS  =    1.566    wigner-seitz radius (au A)           
   ENMAX  =  241.107; ENMIN  =  180.830 eV                                      
   ICORE  =        3    local potential                                         
   LCOR   =        T    correct aug charges                                     
   LPAW   =        T    paw PP                                                  
   EAUG   =  439.825                                                            
   DEXC   =    -.001                                                            
   RMAX   =    2.969    core radius for proj-oper                               
   RDEP   =    2.659    core radius for depl-charge                             
   QCUT   =   -4.210; QGAM   =    8.419    optimization parameters              
                                                                                
   Description                                                                  
     l     E      TYP  RCUT    TYP  RCUT                                        
     2   .000     23  2.500                                                     
     2  -.400     23  2.500                                                     
     0   .000     23  2.500                                                     
     0  1.000     23  2.500                                                     
     1   .000     23  2.500                                                     
     1   .000     23  2.500                                                     
     3  -.100      7  2.500                                                     
  local pseudopotential read in
  partial core-charges read in
  atomic valenz-charges read in
  non local Contribution for L=           2  read in
    real space projection operators read in
  non local Contribution for L=           2  read in
    real space projection operators read in
  non local Contribution for L=           0  read in
    real space projection operators read in
  non local Contribution for L=           0  read in
    real space projection operators read in
  non local Contribution for L=           1  read in
    real space projection operators read in
  non local Contribution for L=           1  read in
    real space projection operators read in
    PAW grid and wavefunctions read in
 
   number of l-projection  operators is LMAX  =           6
   number of lm-projection operators is LMMAX =          18
 
 POTCAR:   PAW S 21Jan2003                        
   VRHFIN =S : s2p4                                                             
   LEXCH  = CA                                                                  
   EATOM  =   277.3803 eV,   20.3869 Ry                                         
                                                                                
   TITEL  = PAW S 21Jan2003                                                     
   LULTRA =        F    use ultrasoft PP ?                                      
   IUNSCR =        1    unscreen: 0-lin 1-nonlin 2-no                           
   RPACOR =    1.500    partial core radius                                     
   POMASS =   32.066; ZVAL   =    6.000    mass and valenz                      
   RCORE  =    1.900    outmost cutoff radius                                   
   RWIGS  =    2.200; RWIGS  =    1.164    wigner-seitz radius (au A)           
   ENMAX  =  280.000; ENMIN  =  193.952 eV                                      
   ICORE  =        2    local potential                                         
   LCOR   =        T    correct aug charges                                     
   LPAW   =        T    paw PP                                                  
   EAUG   =  335.092                                                            
   DEXC   =     .000                                                            
   RMAX   =    2.867    core radius for proj-oper                               
   RAUG   =    1.300    factor for augmentation sphere                          
   RDEP   =    1.954    core radius for depl-charge                             
   QCUT   =   -4.360; QGAM   =    8.719    optimization parameters              
                                                                                
   Description                                                                  
     l     E      TYP  RCUT    TYP  RCUT                                        
     0   .000     23  1.900                                                     
     0   .000     23  1.900                                                     
     1   .000     23  1.900                                                     
     1   .000     23  1.900                                                     
     2   .000      7  1.900                                                     
  local pseudopotential read in
  partial core-charges read in
  atomic valenz-charges read in
  non local Contribution for L=           0  read in
    real space projection operators read in
  non local Contribution for L=           0  read in
    real space projection operators read in
  non local Contribution for L=           1  read in
    real space projection operators read in
  non local Contribution for L=           1  read in
    real space projection operators read in
    PAW grid and wavefunctions read in
 
   number of l-projection  operators is LMAX  =           4
   number of lm-projection operators is LMMAX =           8
 
 PAW Cu_pv 19Apr2000                    :
 energy of atom  1       EATOM=-4124.1158
 kinetic energy error for atom=    0.0655 (will be added to EATOM!!)
 PAW Zn 03Mar1998                       :
 energy of atom  2       EATOM=-1754.0560
 kinetic energy error for atom=    0.0030 (will be added to EATOM!!)
 PAW Sn_d 09Feb1998                     :
 energy of atom  3       EATOM=-1896.7356
 kinetic energy error for atom=    0.0033 (will be added to EATOM!!)
 PAW S 21Jan2003                        :
 energy of atom  4       EATOM= -277.3803
 kinetic energy error for atom=    0.0019 (will be added to EATOM!!)
 
 
 POSCAR: Cu2ZnSnS4 (LaFond 2014, 293 K)          
  positions in direct lattice
  No initial velocities read in
 exchange correlation table for  LEXCH =        2
   RHO(1)=    0.500       N(1)  =     2000
   RHO(2)=  100.500       N(2)  =     4000
 


--------------------------------------------------------------------------------------------------------


 ion  position               nearest neighbor table
   1  0.000  0.000  0.000-   5 2.32   6 2.32   7 2.32   8 2.32
   2  0.750  0.250  0.500-   8 2.32   6 2.32   7 2.32   5 2.32
   3  0.500  0.500  0.000-   8 2.35   6 2.35   7 2.35   5 2.35
   4  0.250  0.750  0.500-   8 2.42   6 2.42   7 2.42   5 2.42
   5  0.118  0.134  0.244-   1 2.32   2 2.32   3 2.35   4 2.42
   6  0.639  0.623  0.244-   1 2.32   2 2.32   3 2.35   4 2.42
   7  0.866  0.361  0.756-   1 2.32   2 2.32   3 2.35   4 2.42
   8  0.377  0.882  0.756-   1 2.32   2 2.32   3 2.35   4 2.42
 
  LATTYP: Found a body centered tetragonal cell.
 ALAT       =     5.4353000000
 C/A-ratio  =     1.9955400000
  
  Lattice vectors:
  
 A1 = (   2.7176500000,  -2.7176500000,   5.4231792810)
 A2 = (  -2.7176500000,   2.7176500000,   5.4231792810)
 A3 = (  -2.7176500000,  -2.7176500000,  -5.4231792810)


Analysis of symmetry for initial positions (statically):
=====================================================================
 Subroutine PRICEL returns:
 Original cell was already a primitive cell.
 

 Routine SETGRP: Setting up the symmetry group for a 
 body centered tetragonal supercell.


 Subroutine GETGRP returns: Found  4 space group operations
 (whereof  4 operations were pure point group operations)
 out of a pool of 16 trial point group operations.


The static configuration has the point symmetry S_4 .


Analysis of symmetry for dynamics (positions and initial velocities):
=====================================================================
 Subroutine PRICEL returns:
 Original cell was already a primitive cell.
 

 Routine SETGRP: Setting up the symmetry group for a 
 body centered tetragonal supercell.


 Subroutine GETGRP returns: Found  4 space group operations
 (whereof  4 operations were pure point group operations)
 out of a pool of 16 trial point group operations.


The dynamic configuration has the point symmetry S_4 .
 
 
 KPOINTS: Automatic mesh                          

Automatic generation of k-mesh.
Space group operators:
 irot       det(A)        alpha          n_x          n_y          n_z        tau_x        tau_y        tau_z
    1     1.000000     0.000000     1.000000     0.000000     0.000000     0.000000     0.000000     0.000000
    2    -1.000000    90.000000     0.000000     0.000000    -1.000000     0.000000     0.000000     0.000000
    3     1.000000   180.000000     0.000000     0.000000     1.000000     0.000000     0.000000     0.000000
    4    -1.000000    90.000000     0.000000     0.000000     1.000000     0.000000     0.000000     0.000000
 
 Subroutine IBZKPT returns following result:
 ===========================================
 
 Found     51 irreducible k-points:
 
 Following reciprocal coordinates:
            Coordinates               Weight
  0.000000  0.000000  0.000000      1.000000
  0.166667  0.000000  0.000000      4.000000
  0.333333  0.000000  0.000000      4.000000
  0.500000  0.000000  0.000000      4.000000
  0.166667  0.166667  0.000000      2.000000
  0.333333  0.166667  0.000000      4.000000
  0.500000  0.166667  0.000000      4.000000
 -0.333333  0.166667  0.000000      2.000000
 -0.166667  0.166667  0.000000      2.000000
  0.166667  0.333333  0.000000      4.000000
  0.333333  0.333333  0.000000      2.000000
  0.500000  0.333333 -0.000000      4.000000
 -0.333333  0.333333  0.000000      2.000000
 -0.166667  0.333333  0.000000      2.000000
  0.166667  0.500000  0.000000      4.000000
  0.333333  0.500000 -0.000000      4.000000
  0.500000  0.500000  0.000000      2.000000
  0.000000  0.000000  0.250000      2.000000
  0.166667  0.000000  0.250000      4.000000
  0.333333  0.000000  0.250000      4.000000
  0.500000  0.000000  0.250000      4.000000
 -0.333333  0.000000  0.250000      4.000000
 -0.166667  0.000000  0.250000      4.000000
  0.166667  0.166667  0.250000      2.000000
  0.333333  0.166667  0.250000      2.000000
  0.500000  0.166667  0.250000      4.000000
 -0.333333  0.166667  0.250000      2.000000
 -0.166667  0.166667  0.250000      4.000000
  0.166667  0.333333  0.250000      2.000000
  0.333333  0.333333  0.250000      2.000000
  0.500000  0.333333  0.250000      4.000000
 -0.333333  0.333333  0.250000      4.000000
 -0.166667  0.333333  0.250000      2.000000
  0.166667  0.500000  0.250000      4.000000
  0.333333  0.500000  0.250000      4.000000
  0.500000  0.500000  0.250000      2.000000
  0.166667 -0.333333  0.250000      2.000000
 -0.333333 -0.333333  0.250000      2.000000
 -0.166667 -0.333333  0.250000      2.000000
  0.333333 -0.166667  0.250000      2.000000
 -0.333333 -0.166667  0.250000      2.000000
 -0.166667 -0.166667  0.250000      2.000000
  0.000000  0.000000  0.500000      1.000000
  0.166667  0.000000  0.500000      4.000000
  0.333333  0.000000  0.500000      4.000000
  0.166667  0.166667  0.500000      2.000000
 -0.333333  0.166667  0.500000      2.000000
 -0.166667  0.166667  0.500000      2.000000
  0.333333  0.333333  0.500000      2.000000
 -0.333333  0.333333  0.500000      2.000000
 -0.166667  0.333333  0.500000      2.000000
 
 Following cartesian coordinates:
            Coordinates               Weight
  0.000000  0.000000  0.000000      1.000000
  0.166667  0.000000 -0.083520      4.000000
  0.333333  0.000000 -0.167039      4.000000
  0.500000  0.000000 -0.250559      4.000000
  0.166667  0.166667 -0.167039      2.000000
  0.333333  0.166667 -0.250559      4.000000
  0.500000  0.166667 -0.334078      4.000000
 -0.333333  0.166667  0.083520      2.000000
 -0.166667  0.166667  0.000000      2.000000
  0.166667  0.333333 -0.250559      4.000000
  0.333333  0.333333 -0.334078      2.000000
  0.500000  0.333333 -0.417598      4.000000
 -0.333333  0.333333  0.000000      2.000000
 -0.166667  0.333333 -0.083520      2.000000
  0.166667  0.500000 -0.334078      4.000000
  0.333333  0.500000 -0.417598      4.000000
  0.500000  0.500000 -0.501117      2.000000
  0.000000  0.000000  0.250559      2.000000
  0.166667  0.000000  0.167039      4.000000
  0.333333  0.000000  0.083520      4.000000
  0.500000  0.000000  0.000000      4.000000
 -0.333333  0.000000  0.417598      4.000000
 -0.166667  0.000000  0.334078      4.000000
  0.166667  0.166667  0.083520      2.000000
  0.333333  0.166667  0.000000      2.000000
  0.500000  0.166667 -0.083520      4.000000
 -0.333333  0.166667  0.334078      2.000000
 -0.166667  0.166667  0.250559      4.000000
  0.166667  0.333333  0.000000      2.000000
  0.333333  0.333333 -0.083520      2.000000
  0.500000  0.333333 -0.167039      4.000000
 -0.333333  0.333333  0.250559      4.000000
 -0.166667  0.333333  0.167039      2.000000
  0.166667  0.500000 -0.083520      4.000000
  0.333333  0.500000 -0.167039      4.000000
  0.500000  0.500000 -0.250559      2.000000
  0.166667 -0.333333  0.334078      2.000000
 -0.333333 -0.333333  0.584637      2.000000
 -0.166667 -0.333333  0.501117      2.000000
  0.333333 -0.166667  0.167039      2.000000
 -0.333333 -0.166667  0.501117      2.000000
 -0.166667 -0.166667  0.417598      2.000000
  0.000000  0.000000  0.501117      1.000000
  0.166667  0.000000  0.417598      4.000000
  0.333333  0.000000  0.334078      4.000000
  0.166667  0.166667  0.334078      2.000000
 -0.333333  0.166667  0.584637      2.000000
 -0.166667  0.166667  0.501117      2.000000
  0.333333  0.333333  0.167039      2.000000
 -0.333333  0.333333  0.501117      2.000000
 -0.166667  0.333333  0.417598      2.000000
 


--------------------------------------------------------------------------------------------------------




 Dimension of arrays:
   k-points           NKPTS =     51   k-points in BZ     NKDIM =     51   number of bands    NBANDS=     52
   number of dos      NEDOS =    301   number of ions     NIONS =      8
   non local maximal  LDIM  =      6   non local SUM 2l+1 LMDIM =     18
   total plane-waves  NPLWV =  76800
   max r-space proj   IRMAX =      1   max aug-charges    IRDMAX=  21604
   dimension x,y,z NGX =    40 NGY =   40 NGZ =   48
   dimension x,y,z NGXF=    80 NGYF=   80 NGZF=   96
   support grid    NGXF=    80 NGYF=   80 NGZF=   96
   ions per type =               2   1   1   4
 NGX,Y,Z   is equivalent  to a cutoff of  12.23, 12.23, 12.01 a.u.
 NGXF,Y,Z  is equivalent  to a cutoff of  24.47, 24.47, 24.01 a.u.


 I would recommend the setting:
   dimension x,y,z NGX =    40 NGY =   40 NGZ =   48
 SYSTEM =  Name                                    
 POSCAR =  Cu2ZnSnS4 (LaFond 2014, 293 K)          

 Startparameter for this run:
   NWRITE =      2    write-flag & timer
   PREC   = accura    normal or accurate (medium, high low for compatibility)
   ISTART =      0    job   : 0-new  1-cont  2-samecut
   ICHARG =      2    charge: 1-file 2-atom 10-const
   ISPIN  =      1    spin polarized calculation?
   LNONCOLLINEAR =      F non collinear calculations
   LSORBIT =      F    spin-orbit coupling
   INIWAV =      1    electr: 0-lowe 1-rand  2-diag
   LASPH  =      F    aspherical Exc in radial PAW
   METAGGA=      F    non-selfconsistent MetaGGA calc.

 Electronic Relaxation 1
   ENCUT  =  500.0 eV  36.75 Ry    6.06 a.u.   9.91  9.91 12.12*2*pi/ulx,y,z
   ENINI  =  500.0     initial cutoff
   ENAUG  =  758.2 eV  augmentation charge cutoff
   NELM   =     60;   NELMIN=  2; NELMDL=  0     # of ELM steps 
   EDIFF  = 0.1E-05   stopping-criterion for ELM
   LREAL  =      F    real-space projection
   NLSPLINE    = F    spline interpolate recip. space projectors
   LCOMPAT=      F    compatible to vasp.4.4
   GGA_COMPAT  = T    GGA compatible to vasp.4.4-vasp.4.6
   LMAXPAW     = -100 max onsite density
   LMAXMIX     =    2 max onsite mixed and CHGCAR
   VOSKOWN=      0    Vosko Wilk Nusair interpolation
   ROPT   =    0.00000   0.00000   0.00000   0.00000
 Ionic relaxation
   EDIFFG = -.5E-02   stopping-criterion for IOM
   NSW    =      0    number of steps for IOM
   NBLOCK =      1;   KBLOCK =      1    inner block; outer block 
   IBRION =     -1    ionic relax: 0-MD 1-quasi-New 2-CG
   NFREE  =      1    steps in history (QN), initial steepest desc. (CG)
   ISIF   =      3    stress and relaxation
   IWAVPR =     10    prediction:  0-non 1-charg 2-wave 3-comb
   ISYM   =      2    0-nonsym 1-usesym 2-fastsym
   LCORR  =      T    Harris-Foulkes like correction to forces

   POTIM  = 0.5000    time-step for ionic-motion
   TEIN   =    0.0    initial temperature
   TEBEG  =    0.0;   TEEND  =   0.0 temperature during run
   SMASS  =  -3.00    Nose mass-parameter (am)
   estimated Nose-frequenzy (Omega)   =  0.10E-29 period in steps =****** mass=  -0.675E-27a.u.
   SCALEE = 1.0000    scale energy and forces
   NPACO  =    256;   APACO  = 16.0  distance and # of slots for P.C.
   PSTRESS=    0.0 pullay stress

  Mass of Ions in am
   POMASS =  63.55 65.39118.71 32.07
  Ionic Valenz
   ZVAL   =  17.00 12.00 14.00  6.00
  Atomic Wigner-Seitz radii
   RWIGS  =  -1.00 -1.00 -1.00 -1.00
  virtual crystal weights 
   VCA    =   1.00  1.00  1.00  1.00
   NELECT =      84.0000    total number of electrons
   NUPDOWN=      -1.0000    fix difference up-down

 DOS related values:
   EMIN   =  10.00;   EMAX   =-10.00  energy-range for DOS
   EFERMI =   0.00
   ISMEAR =     0;   SIGMA  =   0.01  broadening in eV -4-tet -1-fermi 0-gaus

 Electronic relaxation 2 (details)
   IALGO  =     38    algorithm
   LDIAG  =      T    sub-space diagonalisation (order eigenvalues)
   LSUBROT=      F    optimize rotation matrix (better conditioning)
   TURBO    =      0    0=normal 1=particle mesh
   IRESTART =      0    0=no restart 2=restart with 2 vectors
   NREBOOT  =      0    no. of reboots
   NMIN     =      0    reboot dimension
   EREF     =   0.00    reference energy to select bands
   IMIX   =      4    mixing-type and parameters
     AMIX     =   0.40;   BMIX     =  1.00
     AMIX_MAG =   1.60;   BMIX_MAG =  1.00
     AMIN     =   0.01
     WC   =   100.;   INIMIX=   1;  MIXPRE=   1;  MAXMIX= -45

 Intra band minimization:
   WEIMIN = 0.0000     energy-eigenvalue tresh-hold
   EBREAK =  0.48E-08  absolut break condition
   DEPER  =   0.30     relativ break condition  

   TIME   =   0.40     timestep for ELM

  volume/ion in A,a.u.               =      20.03       135.15
  Fermi-wavevector in a.u.,A,eV,Ry     =   1.320082  2.494593 23.709739  1.742617
  Thomas-Fermi vector in A             =   2.449934
 
 Write flags
   LWAVE  =      T    write WAVECAR
   LCHARG =      T    write CHGCAR
   LVTOT  =      F    write LOCPOT, total local potential
   LVHAR  =      F    write LOCPOT, Hartree potential only
   LELF   =      F    write electronic localiz. function (ELF)
   LORBIT =     10    0 simple, 1 ext, 2 COOP (PROOUT)


 Dipole corrections
   LMONO  =      F    monopole corrections only (constant potential shift)
   LDIPOL =      F    correct potential (dipole corrections)
   IDIPOL =      0    1-x, 2-y, 3-z, 4-all directions 
   EPSILON=  1.0000000 bulk dielectric constant

 Core level calculations are selected ICORELEVEL =  1
 Exchange correlation treatment:
   GGA     =    --    GGA type
   LEXCH   =     2    internal setting for exchange type
   VOSKOWN=      0    Vosko Wilk Nusair interpolation
   LHFCALC =     F    Hartree Fock is set to
   LHFONE  =     F    Hartree Fock one center treatment
   AEXX    =    0.0000 exact exchange contribution

 Linear response parameters
   LEPSILON=     F    determine dielectric tensor
   LRPA    =     F    only Hartree local field effects (RPA)
   LNABLA  =     F    use nabla operator in PAW spheres
   LVEL    =     F    velocity operator in full k-point grid
   LINTERFAST=   F  fast interpolation
   KINTER  =     0    interpolate to denser k-point grid
   CSHIFT  =0.1000    complex shift for real part using Kramers Kronig
   OMEGAMAX=  -1.0    maximum frequency
   DEG_THRESHOLD= 0.2000000E-02 threshold for treating states as degnerate
   RTIME   =    0.100 relaxation time in fs

 Orbital magnetization related:
   ORBITALMAG=     F  switch on orbital magnetization
   LCHIMAG   =     F  perturbation theory with respect to B field
   DQ        =  0.001000  dq finite difference perturbation B field



--------------------------------------------------------------------------------------------------------


 Static calculation
 charge density and potential will be updated during run
 non-spin polarized calculation
 Variant of blocked Davidson
 Davidson routine will perform the subspace rotation
 perform sub-space diagonalisation
    after iterative eigenvector-optimisation
 modified Broyden-mixing scheme, WC =      100.0
 initial mixing is a Kerker type mixing with AMIX =  0.4000 and BMIX =      1.0000
 Hartree-type preconditioning will be used
 using additional bands           10
 reciprocal scheme for non local part
 use partial core corrections
 calculate Harris-corrections to forces 
   (improved forces if not selfconsistent)
 use of overlap-Matrix (Vanderbilt PP)
 Gauss-broadening in eV      SIGMA  =   0.01


--------------------------------------------------------------------------------------------------------


  energy-cutoff  :      500.00
  volume of cell :      160.21
      direct lattice vectors                 reciprocal lattice vectors
     5.435300000  0.000000000  0.000000000     0.183982485  0.000000000 -0.092196841
     0.000000000  5.435300000  0.000000000     0.000000000  0.183982485 -0.092196841
     2.717650000  2.717650000  5.423179281     0.000000000  0.000000000  0.184393683

  length of vectors
     5.435300000  5.435300000  6.646962958     0.205790700  0.205790700  0.184393683


 
 k-points in units of 2pi/SCALE and weight: Automatic mesh                          
   0.00000000  0.00000000  0.00000000       0.007
   0.16666667  0.00000000 -0.08351958       0.028
   0.33333333  0.00000000 -0.16703916       0.028
   0.50000000  0.00000000 -0.25055875       0.028
   0.16666667  0.16666667 -0.16703916       0.014
   0.33333333  0.16666667 -0.25055875       0.028
   0.50000000  0.16666667 -0.33407833       0.028
  -0.33333333  0.16666667  0.08351958       0.014
  -0.16666667  0.16666667  0.00000000       0.014
   0.16666667  0.33333333 -0.25055875       0.028
   0.33333333  0.33333333 -0.33407833       0.014
   0.50000000  0.33333333 -0.41759791       0.028
  -0.33333333  0.33333333  0.00000000       0.014
  -0.16666667  0.33333333 -0.08351958       0.014
   0.16666667  0.50000000 -0.33407833       0.028
   0.33333333  0.50000000 -0.41759791       0.028
   0.50000000  0.50000000 -0.50111749       0.014
   0.00000000  0.00000000  0.25055875       0.014
   0.16666667  0.00000000  0.16703916       0.028
   0.33333333  0.00000000  0.08351958       0.028
   0.50000000  0.00000000  0.00000000       0.028
  -0.33333333  0.00000000  0.41759791       0.028
  -0.16666667  0.00000000  0.33407833       0.028
   0.16666667  0.16666667  0.08351958       0.014
   0.33333333  0.16666667  0.00000000       0.014
   0.50000000  0.16666667 -0.08351958       0.028
  -0.33333333  0.16666667  0.33407833       0.014
  -0.16666667  0.16666667  0.25055875       0.028
   0.16666667  0.33333333  0.00000000       0.014
   0.33333333  0.33333333 -0.08351958       0.014
   0.50000000  0.33333333 -0.16703916       0.028
  -0.33333333  0.33333333  0.25055875       0.028
  -0.16666667  0.33333333  0.16703916       0.014
   0.16666667  0.50000000 -0.08351958       0.028
   0.33333333  0.50000000 -0.16703916       0.028
   0.50000000  0.50000000 -0.25055875       0.014
   0.16666667 -0.33333333  0.33407833       0.014
  -0.33333333 -0.33333333  0.58463707       0.014
  -0.16666667 -0.33333333  0.50111749       0.014
   0.33333333 -0.16666667  0.16703916       0.014
  -0.33333333 -0.16666667  0.50111749       0.014
  -0.16666667 -0.16666667  0.41759791       0.014
   0.00000000  0.00000000  0.50111749       0.007
   0.16666667  0.00000000  0.41759791       0.028
   0.33333333  0.00000000  0.33407833       0.028
   0.16666667  0.16666667  0.33407833       0.014
  -0.33333333  0.16666667  0.58463707       0.014
  -0.16666667  0.16666667  0.50111749       0.014
   0.33333333  0.33333333  0.16703916       0.014
  -0.33333333  0.33333333  0.50111749       0.014
  -0.16666667  0.33333333  0.41759791       0.014
 
 k-points in reciprocal lattice and weights: Automatic mesh                          
   0.00000000  0.00000000  0.00000000       0.007
   0.16666667  0.00000000  0.00000000       0.028
   0.33333333  0.00000000  0.00000000       0.028
   0.50000000  0.00000000  0.00000000       0.028
   0.16666667  0.16666667  0.00000000       0.014
   0.33333333  0.16666667  0.00000000       0.028
   0.50000000  0.16666667  0.00000000       0.028
  -0.33333333  0.16666667  0.00000000       0.014
  -0.16666667  0.16666667  0.00000000       0.014
   0.16666667  0.33333333  0.00000000       0.028
   0.33333333  0.33333333  0.00000000       0.014
   0.50000000  0.33333333 -0.00000000       0.028
  -0.33333333  0.33333333  0.00000000       0.014
  -0.16666667  0.33333333  0.00000000       0.014
   0.16666667  0.50000000  0.00000000       0.028
   0.33333333  0.50000000 -0.00000000       0.028
   0.50000000  0.50000000  0.00000000       0.014
   0.00000000  0.00000000  0.25000000       0.014
   0.16666667  0.00000000  0.25000000       0.028
   0.33333333  0.00000000  0.25000000       0.028
   0.50000000  0.00000000  0.25000000       0.028
  -0.33333333  0.00000000  0.25000000       0.028
  -0.16666667  0.00000000  0.25000000       0.028
   0.16666667  0.16666667  0.25000000       0.014
   0.33333333  0.16666667  0.25000000       0.014
   0.50000000  0.16666667  0.25000000       0.028
  -0.33333333  0.16666667  0.25000000       0.014
  -0.16666667  0.16666667  0.25000000       0.028
   0.16666667  0.33333333  0.25000000       0.014
   0.33333333  0.33333333  0.25000000       0.014
   0.50000000  0.33333333  0.25000000       0.028
  -0.33333333  0.33333333  0.25000000       0.028
  -0.16666667  0.33333333  0.25000000       0.014
   0.16666667  0.50000000  0.25000000       0.028
   0.33333333  0.50000000  0.25000000       0.028
   0.50000000  0.50000000  0.25000000       0.014
   0.16666667 -0.33333333  0.25000000       0.014
  -0.33333333 -0.33333333  0.25000000       0.014
  -0.16666667 -0.33333333  0.25000000       0.014
   0.33333333 -0.16666667  0.25000000       0.014
  -0.33333333 -0.16666667  0.25000000       0.014
  -0.16666667 -0.16666667  0.25000000       0.014
   0.00000000  0.00000000  0.50000000       0.007
   0.16666667  0.00000000  0.50000000       0.028
   0.33333333  0.00000000  0.50000000       0.028
   0.16666667  0.16666667  0.50000000       0.014
  -0.33333333  0.16666667  0.50000000       0.014
  -0.16666667  0.16666667  0.50000000       0.014
   0.33333333  0.33333333  0.50000000       0.014
  -0.33333333  0.33333333  0.50000000       0.014
  -0.16666667  0.33333333  0.50000000       0.014
 
 position of ions in fractional coordinates (direct lattice) 
   0.00000000  0.00000000  0.00000000
   0.75000000  0.25000000  0.50000000
   0.50000000  0.50000000  0.00000000
   0.25000000  0.75000000  0.50000000
   0.11777234  0.13390109  0.24359300
   0.63863466  0.62250591  0.24359300
   0.86609891  0.36136534  0.75640700
   0.37749409  0.88222766  0.75640700
 
 position of ions in cartesian coordinates  (Angst):
   0.00000000  0.00000000  0.00000000
   5.43530000  2.71765000  2.71158964
   2.71765000  2.71765000  0.00000000
   2.71765000  5.43530000  2.71158964
   1.30212853  1.38979311  1.32104849
   4.13317147  4.04550689  1.32104849
   6.76315689  4.01977853  4.10213079
   4.10744311  6.85082147  4.10213079
 


--------------------------------------------------------------------------------------------------------


 k-point  1 :   0.0000 0.0000 0.0000  plane waves:    4055
 k-point  2 :   0.1667 0.0000 0.0000  plane waves:    4054
 k-point  3 :   0.3333 0.0000 0.0000  plane waves:    4078
 k-point  4 :   0.5000 0.0000 0.0000  plane waves:    4072
 k-point  5 :   0.1667 0.1667 0.0000  plane waves:    4054
 k-point  6 :   0.3333 0.1667 0.0000  plane waves:    4071
 k-point  7 :   0.5000 0.1667 0.0000  plane waves:    4069
 k-point  8 :  -0.3333 0.1667 0.0000  plane waves:    4066
 k-point  9 :  -0.1667 0.1667 0.0000  plane waves:    4058
 k-point 10 :   0.1667 0.3333 0.0000  plane waves:    4071
 k-point 11 :   0.3333 0.3333 0.0000  plane waves:    4064
 k-point 12 :   0.5000 0.3333-0.0000  plane waves:    4074
 k-point 13 :  -0.3333 0.3333 0.0000  plane waves:    4068
 k-point 14 :  -0.1667 0.3333 0.0000  plane waves:    4066
 k-point 15 :   0.1667 0.5000 0.0000  plane waves:    4069
 k-point 16 :   0.3333 0.5000-0.0000  plane waves:    4074
 k-point 17 :   0.5000 0.5000 0.0000  plane waves:    4054
 k-point 18 :   0.0000 0.0000 0.2500  plane waves:    4056
 k-point 19 :   0.1667 0.0000 0.2500  plane waves:    4052
 k-point 20 :   0.3333 0.0000 0.2500  plane waves:    4063
 k-point 21 :   0.5000 0.0000 0.2500  plane waves:    4072
 k-point 22 :  -0.3333 0.0000 0.2500  plane waves:    4078
 k-point 23 :  -0.1667 0.0000 0.2500  plane waves:    4068
 k-point 24 :   0.1667 0.1667 0.2500  plane waves:    4060
 k-point 25 :   0.3333 0.1667 0.2500  plane waves:    4064
 k-point 26 :   0.5000 0.1667 0.2500  plane waves:    4070
 k-point 27 :  -0.3333 0.1667 0.2500  plane waves:    4071
 k-point 28 :  -0.1667 0.1667 0.2500  plane waves:    4057
 k-point 29 :   0.1667 0.3333 0.2500  plane waves:    4064
 k-point 30 :   0.3333 0.3333 0.2500  plane waves:    4061
 k-point 31 :   0.5000 0.3333 0.2500  plane waves:    4074
 k-point 32 :  -0.3333 0.3333 0.2500  plane waves:    4055
 k-point 33 :  -0.1667 0.3333 0.2500  plane waves:    4063
 k-point 34 :   0.1667 0.5000 0.2500  plane waves:    4070
 k-point 35 :   0.3333 0.5000 0.2500  plane waves:    4074
 k-point 36 :   0.5000 0.5000 0.2500  plane waves:    4080
 k-point 37 :   0.1667-0.3333 0.2500  plane waves:    4071
 k-point 38 :  -0.3333-0.3333 0.2500  plane waves:    4085
 k-point 39 :  -0.1667-0.3333 0.2500  plane waves:    4082
 k-point 40 :   0.3333-0.1667 0.2500  plane waves:    4063
 k-point 41 :  -0.3333-0.1667 0.2500  plane waves:    4082
 k-point 42 :  -0.1667-0.1667 0.2500  plane waves:    4064
 k-point 43 :   0.0000 0.0000 0.5000  plane waves:    4040
 k-point 44 :   0.1667 0.0000 0.5000  plane waves:    4060
 k-point 45 :   0.3333 0.0000 0.5000  plane waves:    4074
 k-point 46 :   0.1667 0.1667 0.5000  plane waves:    4069
 k-point 47 :  -0.3333 0.1667 0.5000  plane waves:    4077
 k-point 48 :  -0.1667 0.1667 0.5000  plane waves:    4058
 k-point 49 :   0.3333 0.3333 0.5000  plane waves:    4050
 k-point 50 :  -0.3333 0.3333 0.5000  plane waves:    4094
 k-point 51 :  -0.1667 0.3333 0.5000  plane waves:    4077

 maximum and minimum number of plane-waves per node :      1042      982

 maximum number of plane-waves:      4094
 maximum index in each direction: 
   IXMAX=   10   IYMAX=   10   IZMAX=   12
   IXMIN=  -10   IYMIN=  -10   IZMIN=  -12

 WARNING: aliasing errors must be expected set NGX to  42 to avoid them
 WARNING: aliasing errors must be expected set NGY to  42 to avoid them
 WARNING: aliasing errors must be expected set NGZ to  50 to avoid them
 aliasing errors are usually negligible using standard VASP settings
 and one can safely disregard these warnings

 parallel 3D FFT for wavefunctions:
    minimum data exchange during FFTs selected (reduces bandwidth)
 parallel 3D FFT for charge:
    minimum data exchange during FFTs selected (reduces bandwidth)


 total amount of memory used by VASP on root node    77363. kBytes
========================================================================

   base      :      30000. kBytes
   nonl-proj :      30566. kBytes
   fftplans  :       1896. kBytes
   grid      :       3584. kBytes
   one-center:         31. kBytes
   wavefun   :      11286. kBytes
 
     INWAV:  cpu time    0.00: real time    0.00
 Broyden mixing: mesh for mixing (old mesh)
   NGX = 19   NGY = 19   NGZ = 25
  (NGX  = 80   NGY  = 80   NGZ  = 96)
  gives a total of   9025 points

 initial charge density was supplied:
 charge density of overlapping atoms calculated
 number of electron      84.0000000 magnetization 
 keeping initial charge density in first step


--------------------------------------------------------------------------------------------------------


 Maximum index for augmentation-charges         1303 (set IRDMAX)


--------------------------------------------------------------------------------------------------------


 First call to EWALD:  gamma=   0.326
 Maximum number of real-space cells 3x 3x 3
 Maximum number of reciprocal cells 3x 3x 3

 FEWALD executed in parallel
    FEWALD:  cpu time    0.00: real time    0.00


----------------------------------------- Iteration    1(   1)  ---------------------------------------


    POTLOK:  cpu time    0.01: real time    0.01
    SETDIJ:  cpu time    0.00: real time    0.00
     EDDAV:  cpu time    0.93: real time    1.06
       DOS:  cpu time    0.00: real time    0.00
    --------------------------------------------
      LOOP:  cpu time    0.95: real time    1.08

 eigenvalue-minimisations  :  6276
 total energy-change (2. order) : 0.9613752E+03  (-0.4377638E+04)
 number of electron      84.0000000 magnetization 
 augmentation part       84.0000000 magnetization 

 Free energy of the ion-electron system (eV)
  ---------------------------------------------------
  alpha Z        PSCENC =       249.48649896
  Ewald energy   TEWEN  =     -7155.92568703
  -Hartree energ DENC   =     -5102.48157927
  -exchange      EXHF   =         0.00000000
  -V(xc)+E(xc)   XCENC  =       385.17304659
  PAW double counting   =      9550.31336401   -10071.22682388
  entropy T*S    EENTRO =        -0.00012943
  eigenvalues    EBANDS =        97.63679460
  atomic energy  EATOM  =     13008.39969644
  ---------------------------------------------------
  free energy    TOTEN  =       961.37518098 eV

  energy without entropy =      961.37531041  energy(sigma->0) =      961.37524570


--------------------------------------------------------------------------------------------------------




----------------------------------------- Iteration    1(   2)  ---------------------------------------


     EDDAV:  cpu time    0.88: real time    1.12
       DOS:  cpu time    0.00: real time    0.00
    --------------------------------------------
      LOOP:  cpu time    0.88: real time    1.12

 eigenvalue-minimisations  :  5336
 total energy-change (2. order) :-0.8640729E+03  (-0.8365743E+03)
 number of electron      84.0000000 magnetization 
 augmentation part       84.0000000 magnetization 

 Free energy of the ion-electron system (eV)
  ---------------------------------------------------
  alpha Z        PSCENC =       249.48649896
  Ewald energy   TEWEN  =     -7155.92568703
  -Hartree energ DENC   =     -5102.48157927
  -exchange      EXHF   =         0.00000000
  -V(xc)+E(xc)   XCENC  =       385.17304659
  PAW double counting   =      9550.31336401   -10071.22682388
  entropy T*S    EENTRO =        -0.00012483
  eigenvalues    EBANDS =      -766.43609684
  atomic energy  EATOM  =     13008.39969644
  ---------------------------------------------------
  free energy    TOTEN  =        97.30229414 eV

  energy without entropy =       97.30241897  energy(sigma->0) =       97.30235655


--------------------------------------------------------------------------------------------------------




----------------------------------------- Iteration    1(   3)  ---------------------------------------


     EDDAV:  cpu time    0.82: real time    0.82
       DOS:  cpu time    0.00: real time    0.00
    --------------------------------------------
      LOOP:  cpu time    0.82: real time    0.83

 eigenvalue-minimisations  :  5824
 total energy-change (2. order) :-0.1285118E+03  (-0.1251888E+03)
 number of electron      84.0000000 magnetization 
 augmentation part       84.0000000 magnetization 

 Free energy of the ion-electron system (eV)
  ---------------------------------------------------
  alpha Z        PSCENC =       249.48649896
  Ewald energy   TEWEN  =     -7155.92568703
  -Hartree energ DENC   =     -5102.48157927
  -exchange      EXHF   =         0.00000000
  -V(xc)+E(xc)   XCENC  =       385.17304659
  PAW double counting   =      9550.31336401   -10071.22682388
  entropy T*S    EENTRO =        -0.00000000
  eigenvalues    EBANDS =      -894.94805244
  atomic energy  EATOM  =     13008.39969644
  ---------------------------------------------------
  free energy    TOTEN  =       -31.20953663 eV

  energy without entropy =      -31.20953663  energy(sigma->0) =      -31.20953663


--------------------------------------------------------------------------------------------------------




----------------------------------------- Iteration    1(   4)  ---------------------------------------


     EDDAV:  cpu time    0.88: real time    0.88
       DOS:  cpu time    0.00: real time    0.00
    --------------------------------------------
      LOOP:  cpu time    0.88: real time    0.89

 eigenvalue-minimisations  :  6420
 total energy-change (2. order) :-0.8953098E+01  (-0.8816493E+01)
 number of electron      84.0000000 magnetization 
 augmentation part       84.0000000 magnetization 

 Free energy of the ion-electron system (eV)
  ---------------------------------------------------
  alpha Z        PSCENC =       249.48649896
  Ewald energy   TEWEN  =     -7155.92568703
  -Hartree energ DENC   =     -5102.48157927
  -exchange      EXHF   =         0.00000000
  -V(xc)+E(xc)   XCENC  =       385.17304659
  PAW double counting   =      9550.31336401   -10071.22682388
  entropy T*S    EENTRO =        -0.00000000
  eigenvalues    EBANDS =      -903.90115039
  atomic energy  EATOM  =     13008.39969644
  ---------------------------------------------------
  free energy    TOTEN  =       -40.16263457 eV

  energy without entropy =      -40.16263457  energy(sigma->0) =      -40.16263457


--------------------------------------------------------------------------------------------------------




----------------------------------------- Iteration    1(   5)  ---------------------------------------


     EDDAV:  cpu time    0.97: real time    0.97
       DOS:  cpu time    0.05: real time    0.05
    CHARGE:  cpu time    0.06: real time    0.06
    MIXING:  cpu time    0.00: real time    0.00
    --------------------------------------------
      LOOP:  cpu time    1.07: real time    1.07

 eigenvalue-minimisations  :  7152
 total energy-change (2. order) :-0.3324924E+00  (-0.3316962E+00)
 number of electron      83.9999902 magnetization 
 augmentation part       32.6695241 magnetization 

 Broyden mixing:
  rms(total) = 0.12012E+01    rms(broyden)= 0.12011E+01
  rms(prec ) = 0.22715E+01
  weight for this iteration     100.00

 Free energy of the ion-electron system (eV)
  ---------------------------------------------------
  alpha Z        PSCENC =       249.48649896
  Ewald energy   TEWEN  =     -7155.92568703
  -Hartree energ DENC   =     -5102.48157927
  -exchange      EXHF   =         0.00000000
  -V(xc)+E(xc)   XCENC  =       385.17304659
  PAW double counting   =      9550.31336401   -10071.22682388
  entropy T*S    EENTRO =        -0.00000000
  eigenvalues    EBANDS =      -904.23364279
  atomic energy  EATOM  =     13008.39969644
  ---------------------------------------------------
  free energy    TOTEN  =       -40.49512698 eV

  energy without entropy =      -40.49512698  energy(sigma->0) =      -40.49512698


--------------------------------------------------------------------------------------------------------




----------------------------------------- Iteration    1(   6)  ---------------------------------------


    POTLOK:  cpu time    0.01: real time    0.01
    SETDIJ:  cpu time    0.00: real time    0.00
     EDDAV:  cpu time    0.93: real time    0.93
       DOS:  cpu time    0.00: real time    0.00
    CHARGE:  cpu time    0.05: real time    0.06
    MIXING:  cpu time    0.00: real time    0.00
    --------------------------------------------
      LOOP:  cpu time    1.00: real time    1.00

 eigenvalue-minimisations  :  6912
 total energy-change (2. order) : 0.2795096E+00  (-0.3580409E+01)
 number of electron      83.9999894 magnetization 
 augmentation part       34.9169456 magnetization 

 Broyden mixing:
  rms(total) = 0.11640E+01    rms(broyden)= 0.11638E+01
  rms(prec ) = 0.19952E+01
  weight for this iteration     100.00

 eigenvalues of (default mixing * dielectric matrix)
  average eigenvalue GAMMA=   0.5053
  0.5053

 Free energy of the ion-electron system (eV)
  ---------------------------------------------------
  alpha Z        PSCENC =       249.48649896
  Ewald energy   TEWEN  =     -7155.92568703
  -Hartree energ DENC   =     -4966.66913886
  -exchange      EXHF   =         0.00000000
  -V(xc)+E(xc)   XCENC  =       381.54642248
  PAW double counting   =      9387.19126586    -9895.84839098
  entropy T*S    EENTRO =        -0.00000000
  eigenvalues    EBANDS =     -1048.39628428
  atomic energy  EATOM  =     13008.39969644
  ---------------------------------------------------
  free energy    TOTEN  =       -40.21561741 eV

  energy without entropy =      -40.21561741  energy(sigma->0) =      -40.21561741


--------------------------------------------------------------------------------------------------------




----------------------------------------- Iteration    1(   7)  ---------------------------------------


    POTLOK:  cpu time    0.01: real time    0.01
    SETDIJ:  cpu time    0.00: real time    0.00
     EDDAV:  cpu time    0.89: real time    0.89
       DOS:  cpu time    0.00: real time    0.00
    CHARGE:  cpu time    0.05: real time    0.06
    MIXING:  cpu time    0.00: real time    0.00
    --------------------------------------------
      LOOP:  cpu time    0.96: real time    0.96

 eigenvalue-minimisations  :  6412
 total energy-change (2. order) : 0.2266385E+01  (-0.9795966E+00)
 number of electron      83.9999896 magnetization 
 augmentation part       34.2434992 magnetization 

 Broyden mixing:
  rms(total) = 0.32673E+00    rms(broyden)= 0.32669E+00
  rms(prec ) = 0.59174E+00
  weight for this iteration     100.00

 eigenvalues of (default mixing * dielectric matrix)
  average eigenvalue GAMMA=   0.8160
  0.9139  0.7181

 Free energy of the ion-electron system (eV)
  ---------------------------------------------------
  alpha Z        PSCENC =       249.48649896
  Ewald energy   TEWEN  =     -7155.92568703
  -Hartree energ DENC   =     -5030.16896553
  -exchange      EXHF   =         0.00000000
  -V(xc)+E(xc)   XCENC  =       383.71918661
  PAW double counting   =      9508.19797859   -10028.86118463
  entropy T*S    EENTRO =        -0.00000000
  eigenvalues    EBANDS =      -972.79675629
  atomic energy  EATOM  =     13008.39969644
  ---------------------------------------------------
  free energy    TOTEN  =       -37.94923288 eV

  energy without entropy =      -37.94923288  energy(sigma->0) =      -37.94923288


--------------------------------------------------------------------------------------------------------




----------------------------------------- Iteration    1(   8)  ---------------------------------------


    POTLOK:  cpu time    0.01: real time    0.01
    SETDIJ:  cpu time    0.00: real time    0.00
     EDDAV:  cpu time    0.98: real time    0.98
       DOS:  cpu time    0.00: real time    0.00
    CHARGE:  cpu time    0.05: real time    0.06
    MIXING:  cpu time    0.00: real time    0.00
    --------------------------------------------
      LOOP:  cpu time    1.05: real time    1.05

 eigenvalue-minimisations  :  7272
 total energy-change (2. order) :-0.1006675E+00  (-0.3764151E+00)
 number of electron      83.9999898 magnetization 
 augmentation part       33.6955471 magnetization 

 Broyden mixing:
  rms(total) = 0.24550E+00    rms(broyden)= 0.24543E+00
  rms(prec ) = 0.43051E+00
  weight for this iteration     100.00

 eigenvalues of (default mixing * dielectric matrix)
  average eigenvalue GAMMA=   1.1969
  2.2035  0.6937  0.6937

 Free energy of the ion-electron system (eV)
  ---------------------------------------------------
  alpha Z        PSCENC =       249.48649896
  Ewald energy   TEWEN  =     -7155.92568703
  -Hartree energ DENC   =     -5050.68940632
  -exchange      EXHF   =         0.00000000
  -V(xc)+E(xc)   XCENC  =       384.38615109
  PAW double counting   =      9588.30890501   -10114.61998095
  entropy T*S    EENTRO =        -0.00007677
  eigenvalues    EBANDS =      -947.39600086
  atomic energy  EATOM  =     13008.39969644
  ---------------------------------------------------
  free energy    TOTEN  =       -38.04990042 eV

  energy without entropy =      -38.04982366  energy(sigma->0) =      -38.04986204


--------------------------------------------------------------------------------------------------------




----------------------------------------- Iteration    1(   9)  ---------------------------------------


    POTLOK:  cpu time    0.01: real time    0.01
    SETDIJ:  cpu time    0.00: real time    0.00
     EDDAV:  cpu time    0.88: real time    0.90
       DOS:  cpu time    0.00: real time    0.00
    CHARGE:  cpu time    0.06: real time    0.06
    MIXING:  cpu time    0.00: real time    0.00
    --------------------------------------------
      LOOP:  cpu time    0.95: real time    0.98

 eigenvalue-minimisations  :  6320
 total energy-change (2. order) : 0.6551784E-01  (-0.7310041E-01)
 number of electron      83.9999897 magnetization 
 augmentation part       33.9738062 magnetization 

 Broyden mixing:
  rms(total) = 0.78042E-01    rms(broyden)= 0.78009E-01
  rms(prec ) = 0.13312E+00
  weight for this iteration     100.00

 eigenvalues of (default mixing * dielectric matrix)
  average eigenvalue GAMMA=   1.2155
  2.3795  0.6796  0.6796  1.1234

 Free energy of the ion-electron system (eV)
  ---------------------------------------------------
  alpha Z        PSCENC =       249.48649896
  Ewald energy   TEWEN  =     -7155.92568703
  -Hartree energ DENC   =     -5030.16512090
  -exchange      EXHF   =         0.00000000
  -V(xc)+E(xc)   XCENC  =       383.87484631
  PAW double counting   =      9598.88635255   -10126.10875153
  entropy T*S    EENTRO =        -0.00000000
  eigenvalues    EBANDS =      -966.43221737
  atomic energy  EATOM  =     13008.39969644
  ---------------------------------------------------
  free energy    TOTEN  =       -37.98438258 eV

  energy without entropy =      -37.98438258  energy(sigma->0) =      -37.98438258


--------------------------------------------------------------------------------------------------------




----------------------------------------- Iteration    1(  10)  ---------------------------------------


    POTLOK:  cpu time    0.01: real time    0.01
    SETDIJ:  cpu time    0.00: real time    0.01
     EDDAV:  cpu time    0.90: real time    0.91
       DOS:  cpu time    0.00: real time    0.00
    CHARGE:  cpu time    0.06: real time    0.06
    MIXING:  cpu time    0.00: real time    0.00
    --------------------------------------------
      LOOP:  cpu time    0.98: real time    0.99

 eigenvalue-minimisations  :  6168
 total energy-change (2. order) : 0.6293429E-02  (-0.7202689E-02)
 number of electron      83.9999898 magnetization 
 augmentation part       33.9034535 magnetization 

 Broyden mixing:
  rms(total) = 0.11705E-01    rms(broyden)= 0.11697E-01
  rms(prec ) = 0.20887E-01
  weight for this iteration     100.00

 eigenvalues of (default mixing * dielectric matrix)
  average eigenvalue GAMMA=   1.1922
  2.3103  1.5327  0.6769  0.6769  0.7644

 Free energy of the ion-electron system (eV)
  ---------------------------------------------------
  alpha Z        PSCENC =       249.48649896
  Ewald energy   TEWEN  =     -7155.92568703
  -Hartree energ DENC   =     -5034.74415963
  -exchange      EXHF   =         0.00000000
  -V(xc)+E(xc)   XCENC  =       384.03137418
  PAW double counting   =      9616.39953311   -10145.30157350
  entropy T*S    EENTRO =        -0.00000000
  eigenvalues    EBANDS =      -960.32377167
  atomic energy  EATOM  =     13008.39969644
  ---------------------------------------------------
  free energy    TOTEN  =       -37.97808915 eV

  energy without entropy =      -37.97808915  energy(sigma->0) =      -37.97808915


--------------------------------------------------------------------------------------------------------




----------------------------------------- Iteration    1(  11)  ---------------------------------------


    POTLOK:  cpu time    0.01: real time    0.01
    SETDIJ:  cpu time    0.01: real time    0.01
     EDDAV:  cpu time    0.93: real time    0.93
       DOS:  cpu time    0.00: real time    0.00
    CHARGE:  cpu time    0.06: real time    0.06
    MIXING:  cpu time    0.00: real time    0.00
    --------------------------------------------
      LOOP:  cpu time    1.00: real time    1.00

 eigenvalue-minimisations  :  6756
 total energy-change (2. order) :-0.4759098E-03  (-0.7833853E-03)
 number of electron      83.9999898 magnetization 
 augmentation part       33.8919508 magnetization 

 Broyden mixing:
  rms(total) = 0.84741E-02    rms(broyden)= 0.84721E-02
  rms(prec ) = 0.13987E-01
  weight for this iteration     100.00

 eigenvalues of (default mixing * dielectric matrix)
  average eigenvalue GAMMA=   1.1606
  2.0718  2.0718  0.8800  0.6733  0.6733  0.5933

 Free energy of the ion-electron system (eV)
  ---------------------------------------------------
  alpha Z        PSCENC =       249.48649896
  Ewald energy   TEWEN  =     -7155.92568703
  -Hartree energ DENC   =     -5035.24189104
  -exchange      EXHF   =         0.00000000
  -V(xc)+E(xc)   XCENC  =       384.03215809
  PAW double counting   =      9618.71859765   -10147.78176835
  entropy T*S    EENTRO =        -0.00000000
  eigenvalues    EBANDS =      -959.66616977
  atomic energy  EATOM  =     13008.39969644
  ---------------------------------------------------
  free energy    TOTEN  =       -37.97856506 eV

  energy without entropy =      -37.97856506  energy(sigma->0) =      -37.97856506


--------------------------------------------------------------------------------------------------------




----------------------------------------- Iteration    1(  12)  ---------------------------------------


    POTLOK:  cpu time    0.01: real time    0.01
    SETDIJ:  cpu time    0.00: real time    0.00
     EDDAV:  cpu time    0.99: real time    0.99
       DOS:  cpu time    0.00: real time    0.00
    CHARGE:  cpu time    0.05: real time    0.06
    MIXING:  cpu time    0.00: real time    0.00
    --------------------------------------------
      LOOP:  cpu time    1.06: real time    1.06

 eigenvalue-minimisations  :  7304
 total energy-change (2. order) :-0.2057655E-04  (-0.9009490E-04)
 number of electron      83.9999898 magnetization 
 augmentation part       33.8938383 magnetization 

 Broyden mixing:
  rms(total) = 0.47727E-02    rms(broyden)= 0.47719E-02
  rms(prec ) = 0.81854E-02
  weight for this iteration     100.00

 eigenvalues of (default mixing * dielectric matrix)
  average eigenvalue GAMMA=   1.2758
  2.4912  2.4912  1.3520  0.6768  0.6768  0.7999  0.4429

 Free energy of the ion-electron system (eV)
  ---------------------------------------------------
  alpha Z        PSCENC =       249.48649896
  Ewald energy   TEWEN  =     -7155.92568703
  -Hartree energ DENC   =     -5035.16308121
  -exchange      EXHF   =         0.00000000
  -V(xc)+E(xc)   XCENC  =       384.02372254
  PAW double counting   =      9618.81800650   -10147.89482861
  entropy T*S    EENTRO =        -0.00000000
  eigenvalues    EBANDS =      -959.72291322
  atomic energy  EATOM  =     13008.39969644
  ---------------------------------------------------
  free energy    TOTEN  =       -37.97858564 eV

  energy without entropy =      -37.97858564  energy(sigma->0) =      -37.97858564


--------------------------------------------------------------------------------------------------------




----------------------------------------- Iteration    1(  13)  ---------------------------------------


    POTLOK:  cpu time    0.01: real time    0.01
    SETDIJ:  cpu time    0.00: real time    0.00
     EDDAV:  cpu time    0.96: real time    0.97
       DOS:  cpu time    0.00: real time    0.00
    CHARGE:  cpu time    0.05: real time    0.06
    MIXING:  cpu time    0.00: real time    0.00
    --------------------------------------------
      LOOP:  cpu time    1.04: real time    1.04

 eigenvalue-minimisations  :  7128
 total energy-change (2. order) : 0.9736552E-05  (-0.2128796E-04)
 number of electron      83.9999898 magnetization 
 augmentation part       33.8978360 magnetization 

 Broyden mixing:
  rms(total) = 0.14605E-02    rms(broyden)= 0.14596E-02
  rms(prec ) = 0.30231E-02
  weight for this iteration     100.00

 eigenvalues of (default mixing * dielectric matrix)
  average eigenvalue GAMMA=   1.2549
  2.3957  2.3957  1.3006  1.3006  0.6771  0.6771  0.8454  0.4466

 Free energy of the ion-electron system (eV)
  ---------------------------------------------------
  alpha Z        PSCENC =       249.48649896
  Ewald energy   TEWEN  =     -7155.92568703
  -Hartree energ DENC   =     -5034.96252799
  -exchange      EXHF   =         0.00000000
  -V(xc)+E(xc)   XCENC  =       384.01486690
  PAW double counting   =      9618.56780416   -10147.64151088
  entropy T*S    EENTRO =        -0.00000000
  eigenvalues    EBANDS =      -959.91771645
  atomic energy  EATOM  =     13008.39969644
  ---------------------------------------------------
  free energy    TOTEN  =       -37.97857590 eV

  energy without entropy =      -37.97857590  energy(sigma->0) =      -37.97857590


--------------------------------------------------------------------------------------------------------




----------------------------------------- Iteration    1(  14)  ---------------------------------------


    POTLOK:  cpu time    0.01: real time    0.01
    SETDIJ:  cpu time    0.00: real time    0.00
     EDDAV:  cpu time    0.95: real time    0.95
       DOS:  cpu time    0.00: real time    0.00
    CHARGE:  cpu time    0.06: real time    0.06
    MIXING:  cpu time    0.00: real time    0.00
    --------------------------------------------
      LOOP:  cpu time    1.03: real time    1.03

 eigenvalue-minimisations  :  7048
 total energy-change (2. order) : 0.2069281E-05  (-0.5214383E-05)
 number of electron      83.9999898 magnetization 
 augmentation part       33.8963698 magnetization 

 Broyden mixing:
  rms(total) = 0.58189E-03    rms(broyden)= 0.58162E-03
  rms(prec ) = 0.95918E-03
  weight for this iteration     100.00

 eigenvalues of (default mixing * dielectric matrix)
  average eigenvalue GAMMA=   1.2987
  2.4851  2.3105  1.6700  1.6700  0.6769  0.6769  0.8753  0.8753  0.4479

 Free energy of the ion-electron system (eV)
  ---------------------------------------------------
  alpha Z        PSCENC =       249.48649896
  Ewald energy   TEWEN  =     -7155.92568703
  -Hartree energ DENC   =     -5035.07679599
  -exchange      EXHF   =         0.00000000
  -V(xc)+E(xc)   XCENC  =       384.01913021
  PAW double counting   =      9618.87984826   -10147.98649560
  entropy T*S    EENTRO =        -0.00000000
  eigenvalues    EBANDS =      -959.77476907
  atomic energy  EATOM  =     13008.39969644
  ---------------------------------------------------
  free energy    TOTEN  =       -37.97857383 eV

  energy without entropy =      -37.97857383  energy(sigma->0) =      -37.97857383


--------------------------------------------------------------------------------------------------------




----------------------------------------- Iteration    1(  15)  ---------------------------------------


    POTLOK:  cpu time    0.01: real time    0.01
    SETDIJ:  cpu time    0.00: real time    0.00
     EDDAV:  cpu time    0.81: real time    0.81
       DOS:  cpu time    0.00: real time    0.00
    --------------------------------------------
      LOOP:  cpu time    0.86: real time    0.86

 eigenvalue-minimisations  :  5664
 total energy-change (2. order) :-0.6402151E-06  (-0.5423092E-06)
 number of electron      83.9999898 magnetization 
 augmentation part       33.8963698 magnetization 

 Free energy of the ion-electron system (eV)
  ---------------------------------------------------
  alpha Z        PSCENC =       249.48649896
  Ewald energy   TEWEN  =     -7155.92568703
  -Hartree energ DENC   =     -5035.08551581
  -exchange      EXHF   =         0.00000000
  -V(xc)+E(xc)   XCENC  =       384.01892499
  PAW double counting   =      9618.76715952   -10147.87307147
  entropy T*S    EENTRO =        -0.00000000
  eigenvalues    EBANDS =      -959.76658006
  atomic energy  EATOM  =     13008.39969644
  ---------------------------------------------------
  free energy    TOTEN  =       -37.97857447 eV

  energy without entropy =      -37.97857447  energy(sigma->0) =      -37.97857447


--------------------------------------------------------------------------------------------------------




 the core state eigenenergies are
   1-  1s  -8798.8778  2s  -1050.3839  2p   -907.5232  3s   -105.5698
   2-  1s  -8798.8942  2s  -1050.3965  2p   -907.5361  3s   -105.5838
   3-  1s  -9469.3677  2s  -1145.2259  2p   -993.7441  3s   -120.0714  3p    -74.8426
     
   4-  1s -28831.7639  2s  -4350.7218  2p  -3911.1079  3s   -832.3495  3p   -688.1008
       3d   -464.5501  4s   -124.5044  4p    -80.6605
   5-  1s  -2382.4687  2s   -199.9946  2p   -145.8595
   6-  1s  -2382.4687  2s   -199.9946  2p   -145.8595
   7-  1s  -2382.4687  2s   -199.9946  2p   -145.8595
   8-  1s  -2382.4687  2s   -199.9946  2p   -145.8595
 
 E-fermi :   4.7947     XC(G=0): -10.2353     alpha+bet :-10.1852


 k-point     1 :       0.0000    0.0000    0.0000
  band No.  band energies     occupation 
      1     -63.9177      2.00000
      2     -63.8626      2.00000
      3     -63.8626      2.00000
      4     -63.8417      2.00000
      5     -63.8417      2.00000
      6     -63.8343      2.00000
      7     -17.4106      2.00000
      8     -17.4069      2.00000
      9     -17.4069      2.00000
     10     -17.3193      2.00000
     11     -17.3139      2.00000
     12      -9.7091      2.00000
     13      -8.1410      2.00000
     14      -8.1302      2.00000
     15      -8.1302      2.00000
     16      -3.3596      2.00000
     17      -2.4933      2.00000
     18      -2.4239      2.00000
     19      -2.4211      2.00000
     20      -2.4211      2.00000
     21      -2.3235      2.00000
     22      -0.9322      2.00000
     23      -0.2901      2.00000
     24      -0.1870      2.00000
     25       0.2722      2.00000
     26       0.2722      2.00000
     27       0.3008      2.00000
     28       1.0206      2.00000
     29       1.0206      2.00000
     30       1.4796      2.00000
     31       1.4796      2.00000
     32       1.4925      2.00000
     33       2.5836      2.00000
     34       2.6319      2.00000
     35       2.8243      2.00000
     36       3.0792      2.00000
     37       3.1034      2.00000
     38       3.1034      2.00000
     39       3.2616      2.00000
     40       4.6745      2.00000
     41       4.6745      2.00000
     42       4.7497      2.00000
     43       4.9157      0.00000
     44       6.6468      0.00000
     45       7.4754      0.00000
     46       8.4546      0.00000
     47       8.4546      0.00000
     48       9.5397      0.00000
     49       9.6243      0.00000
     50       9.8887      0.00000
     51       9.8887      0.00000
     52      10.2866      0.00000

 k-point     2 :       0.1667    0.0000    0.0000
  band No.  band energies     occupation 
      1     -63.9177      2.00000
      2     -63.8626      2.00000
      3     -63.8626      2.00000
      4     -63.8417      2.00000
      5     -63.8416      2.00000
      6     -63.8343      2.00000
      7     -17.4108      2.00000
      8     -17.4071      2.00000
      9     -17.4069      2.00000
     10     -17.3192      2.00000
     11     -17.3139      2.00000
     12      -9.6158      2.00000
     13      -8.2158      2.00000
     14      -8.1730      2.00000
     15      -8.1591      2.00000
     16      -3.3142      2.00000
     17      -2.4666      2.00000
     18      -2.4493      2.00000
     19      -2.4276      2.00000
     20      -2.4137      2.00000
     21      -2.3084      2.00000
     22      -0.9807      2.00000
     23      -0.4264      2.00000
     24      -0.1855      2.00000
     25       0.1226      2.00000
     26       0.4413      2.00000
     27       0.5929      2.00000
     28       0.9296      2.00000
     29       1.0241      2.00000
     30       1.3897      2.00000
     31       1.4527      2.00000
     32       1.5856      2.00000
     33       2.6262      2.00000
     34       2.7150      2.00000
     35       2.8475      2.00000
     36       2.9692      2.00000
     37       3.0503      2.00000
     38       3.2246      2.00000
     39       3.3406      2.00000
     40       4.0325      2.00000
     41       4.4518      2.00000
     42       4.6346      2.00000
     43       5.6683      0.00000
     44       7.0589      0.00000
     45       7.6917      0.00000
     46       8.2004      0.00000
     47       8.3006      0.00000
     48       9.2978      0.00000
     49       9.7663      0.00000
     50       9.8903      0.00000
     51      10.0182      0.00000
     52      10.2779      0.00000

 k-point     3 :       0.3333    0.0000    0.0000
  band No.  band energies     occupation 
      1     -63.9177      2.00000
      2     -63.8627      2.00000
      3     -63.8627      2.00000
      4     -63.8418      2.00000
      5     -63.8417      2.00000
      6     -63.8343      2.00000
      7     -17.4110      2.00000
      8     -17.4073      2.00000
      9     -17.4069      2.00000
     10     -17.3189      2.00000
     11     -17.3137      2.00000
     12      -9.3638      2.00000
     13      -8.4675      2.00000
     14      -8.2424      2.00000
     15      -8.2006      2.00000
     16      -3.2262      2.00000
     17      -2.4878      2.00000
     18      -2.4575      2.00000
     19      -2.4089      2.00000
     20      -2.3943      2.00000
     21      -2.2713      2.00000
     22      -0.9879      2.00000
     23      -0.5076      2.00000
     24      -0.2001      2.00000
     25       0.2514      2.00000
     26       0.3670      2.00000
     27       0.6071      2.00000
     28       0.8258      2.00000
     29       1.0532      2.00000
     30       1.3388      2.00000
     31       1.4575      2.00000
     32       1.6882      2.00000
     33       2.7460      2.00000
     34       2.8046      2.00000
     35       2.8818      2.00000
     36       2.9380      2.00000
     37       3.0714      2.00000
     38       3.3126      2.00000
     39       3.4423      2.00000
     40       3.7291      2.00000
     41       3.9799      2.00000
     42       4.4003      2.00000
     43       6.2380      0.00000
     44       7.6413      0.00000
     45       7.9564      0.00000
     46       8.0901      0.00000
     47       8.5833      0.00000
     48       9.3459      0.00000
     49       9.8201      0.00000
     50       9.8715      0.00000
     51      10.4512      0.00000
     52      10.5627      0.00000

 k-point     4 :       0.5000    0.0000    0.0000
  band No.  band energies     occupation 
      1     -63.9177      2.00000
      2     -63.8627      2.00000
      3     -63.8626      2.00000
      4     -63.8418      2.00000
      5     -63.8417      2.00000
      6     -63.8343      2.00000
      7     -17.4111      2.00000
      8     -17.4074      2.00000
      9     -17.4069      2.00000
     10     -17.3188      2.00000
     11     -17.3136      2.00000
     12      -9.1365      2.00000
     13      -8.7012      2.00000
     14      -8.2734      2.00000
     15      -8.2206      2.00000
     16      -3.1846      2.00000
     17      -2.4985      2.00000
     18      -2.4671      2.00000
     19      -2.3995      2.00000
     20      -2.3773      2.00000
     21      -2.2469      2.00000
     22      -0.9270      2.00000
     23      -0.5264      2.00000
     24      -0.1698      2.00000
     25       0.0941      2.00000
     26       0.4088      2.00000
     27       0.4894      2.00000
     28       0.9454      2.00000
     29       1.1054      2.00000
     30       1.2533      2.00000
     31       1.4743      2.00000
     32       1.6867      2.00000
     33       2.7695      2.00000
     34       2.8005      2.00000
     35       2.8938      2.00000
     36       3.0073      2.00000
     37       3.1051      2.00000
     38       3.4295      2.00000
     39       3.5490      2.00000
     40       3.6150      2.00000
     41       3.6837      2.00000
     42       4.2287      2.00000
     43       6.4430      0.00000
     44       7.8163      0.00000
     45       7.9668      0.00000
     46       8.8768      0.00000
     47       8.9296      0.00000
     48       9.2426      0.00000
     49       9.6862      0.00000
     50       9.9905      0.00000
     51      10.2713      0.00000
     52      10.7478      0.00000

 k-point     5 :       0.1667    0.1667    0.0000
  band No.  band energies     occupation 
      1     -63.9176      2.00000
      2     -63.8626      2.00000
      3     -63.8626      2.00000
      4     -63.8417      2.00000
      5     -63.8417      2.00000
      6     -63.8342      2.00000
      7     -17.4109      2.00000
      8     -17.4070      2.00000
      9     -17.4070      2.00000
     10     -17.3191      2.00000
     11     -17.3138      2.00000
     12      -9.4927      2.00000
     13      -8.2998      2.00000
     14      -8.2188      2.00000
     15      -8.2128      2.00000
     16      -3.3060      2.00000
     17      -2.4725      2.00000
     18      -2.4609      2.00000
     19      -2.4103      2.00000
     20      -2.3988      2.00000
     21      -2.2805      2.00000
     22      -1.0802      2.00000
     23      -0.5606      2.00000
     24      -0.0234      2.00000
     25       0.2480      2.00000
     26       0.3519      2.00000
     27       0.6858      2.00000
     28       0.9403      2.00000
     29       1.0596      2.00000
     30       1.3235      2.00000
     31       1.5322      2.00000
     32       1.5940      2.00000
     33       2.6575      2.00000
     34       2.7912      2.00000
     35       2.8748      2.00000
     36       2.9479      2.00000
     37       3.0818      2.00000
     38       3.2551      2.00000
     39       3.3812      2.00000
     40       3.7449      2.00000
     41       4.4762      2.00000
     42       4.5220      2.00000
     43       5.7896      0.00000
     44       7.3014      0.00000
     45       7.5614      0.00000
     46       7.8589      0.00000
     47       8.3222      0.00000
     48       9.3904      0.00000
     49       9.7284      0.00000
     50       9.9396      0.00000
     51      10.1350      0.00000
     52      10.2714      0.00000

 k-point     6 :       0.3333    0.1667    0.0000
  band No.  band energies     occupation 
      1     -63.9177      2.00000
      2     -63.8627      2.00000
      3     -63.8626      2.00000
      4     -63.8418      2.00000
      5     -63.8417      2.00000
      6     -63.8343      2.00000
      7     -17.4112      2.00000
      8     -17.4073      2.00000
      9     -17.4070      2.00000
     10     -17.3188      2.00000
     11     -17.3137      2.00000
     12      -9.2392      2.00000
     13      -8.5065      2.00000
     14      -8.3187      2.00000
     15      -8.2384      2.00000
     16      -3.2652      2.00000
     17      -2.5099      2.00000
     18      -2.4626      2.00000
     19      -2.3970      2.00000
     20      -2.3702      2.00000
     21      -2.2500      2.00000
     22      -1.1030      2.00000
     23      -0.6933      2.00000
     24      -0.1535      2.00000
     25       0.1805      2.00000
     26       0.5127      2.00000
     27       0.7447      2.00000
     28       0.9774      2.00000
     29       1.0233      2.00000
     30       1.3474      2.00000
     31       1.5625      2.00000
     32       1.6427      2.00000
     33       2.7139      2.00000
     34       2.8137      2.00000
     35       2.9061      2.00000
     36       2.9652      2.00000
     37       3.1442      2.00000
     38       3.3994      2.00000
     39       3.4470      2.00000
     40       3.6765      2.00000
     41       4.1012      2.00000
     42       4.3572      2.00000
     43       6.0350      0.00000
     44       7.4707      0.00000
     45       7.7525      0.00000
     46       8.0751      0.00000
     47       8.6063      0.00000
     48       9.6086      0.00000
     49       9.9023      0.00000
     50      10.0958      0.00000
     51      10.3627      0.00000
     52      10.5656      0.00000

 k-point     7 :       0.5000    0.1667    0.0000
  band No.  band energies     occupation 
      1     -63.9177      2.00000
      2     -63.8627      2.00000
      3     -63.8626      2.00000
      4     -63.8418      2.00000
      5     -63.8417      2.00000
      6     -63.8343      2.00000
      7     -17.4113      2.00000
      8     -17.4074      2.00000
      9     -17.4070      2.00000
     10     -17.3186      2.00000
     11     -17.3136      2.00000
     12      -9.1017      2.00000
     13      -8.6466      2.00000
     14      -8.3504      2.00000
     15      -8.2188      2.00000
     16      -3.2384      2.00000
     17      -2.5000      2.00000
     18      -2.4603      2.00000
     19      -2.3989      2.00000
[...]
     25       0.3063      2.00000
     26       0.6021      2.00000
     27       0.7590      2.00000
     28       0.8929      2.00000
     29       1.0855      2.00000
     30       1.3623      2.00000
     31       1.5370      2.00000
     32       1.5830      2.00000
     33       2.7509      2.00000
     34       2.7661      2.00000
     35       2.8686      2.00000
     36       2.9910      2.00000
     37       3.2063      2.00000
     38       3.2869      2.00000
     39       3.5549      2.00000
     40       3.8153      2.00000
     41       3.8597      2.00000
     42       4.2495      2.00000
     43       6.1345      0.00000
     44       7.3539      0.00000
     45       7.7044      0.00000
     46       8.2398      0.00000
     47       8.4929      0.00000
     48       9.0998      0.00000
     49       9.6925      0.00000
     50      10.2006      0.00000
     51      10.4577      0.00000
     52      10.6914      0.00000

 k-point    48 :      -0.1667    0.1667    0.5000
  band No.  band energies     occupation 
      1     -63.9177      2.00000
      2     -63.8627      2.00000
      3     -63.8625      2.00000
      4     -63.8418      2.00000
      5     -63.8416      2.00000
      6     -63.8343      2.00000
      7     -17.4110      2.00000
      8     -17.4069      2.00000
      9     -17.4068      2.00000
     10     -17.3191      2.00000
     11     -17.3138      2.00000
     12      -9.1351      2.00000
     13      -8.7347      2.00000
     14      -8.2655      2.00000
     15      -8.2316      2.00000
     16      -3.3481      2.00000
     17      -2.5182      2.00000
     18      -2.5102      2.00000
     19      -2.4192      2.00000
     20      -2.3541      2.00000
     21      -2.0706      2.00000
     22      -1.0945      2.00000
     23      -0.2592      2.00000
     24      -0.1113      2.00000
     25       0.5234      2.00000
     26       0.5464      2.00000
     27       0.7314      2.00000
     28       0.9618      2.00000
     29       1.0531      2.00000
     30       1.3642      2.00000
     31       1.4727      2.00000
     32       1.5341      2.00000
     33       2.6966      2.00000
     34       2.7624      2.00000
     35       2.8272      2.00000
     36       2.8943      2.00000
     37       3.2636      2.00000
     38       3.3124      2.00000
     39       3.7453      2.00000
     40       3.7920      2.00000
     41       3.8559      2.00000
     42       3.8836      2.00000
     43       6.1878      0.00000
     44       7.0736      0.00000
     45       7.1786      0.00000
     46       7.7477      0.00000
     47       8.0121      0.00000
     48       8.6409      0.00000
     49       9.1841      0.00000
     50       9.6039      0.00000
     51      10.5755      0.00000
     52      10.9032      0.00000

 k-point    49 :       0.3333    0.3333    0.5000
  band No.  band energies     occupation 
      1     -63.9176      2.00000
      2     -63.8626      2.00000
      3     -63.8626      2.00000
      4     -63.8417      2.00000
      5     -63.8417      2.00000
      6     -63.8342      2.00000
      7     -17.4115      2.00000
      8     -17.4074      2.00000
      9     -17.4072      2.00000
     10     -17.3184      2.00000
     11     -17.3135      2.00000
     12      -9.1537      2.00000
     13      -8.4934      2.00000
     14      -8.3664      2.00000
     15      -8.2609      2.00000
     16      -3.3096      2.00000
     17      -2.5009      2.00000
     18      -2.4593      2.00000
     19      -2.3891      2.00000
     20      -2.3672      2.00000
     21      -2.2980      2.00000
     22      -1.3618      2.00000
     23      -0.9622      2.00000
     24      -0.3967      2.00000
     25       0.2280      2.00000
     26       0.6724      2.00000
     27       0.9058      2.00000
     28       1.0687      2.00000
     29       1.1408      2.00000
     30       1.4061      2.00000
     31       1.6026      2.00000
     32       1.7254      2.00000
     33       2.7229      2.00000
     34       2.8341      2.00000
     35       2.8802      2.00000
     36       2.9668      2.00000
     37       3.3078      2.00000
     38       3.4686      2.00000
     39       3.5791      2.00000
     40       3.7870      2.00000
     41       4.0472      2.00000
     42       4.3916      2.00000
     43       5.9038      0.00000
     44       7.5286      0.00000
     45       7.7857      0.00000
     46       8.0765      0.00000
     47       8.8641      0.00000
     48       9.4727      0.00000
     49       9.9387      0.00000
     50      10.2630      0.00000
     51      10.4987      0.00000
     52      10.6666      0.00000

 k-point    50 :      -0.3333    0.3333    0.5000
  band No.  band energies     occupation 
      1     -63.9178      2.00000
      2     -63.8628      2.00000
      3     -63.8627      2.00000
      4     -63.8419      2.00000
      5     -63.8418      2.00000
      6     -63.8344      2.00000
      7     -17.4115      2.00000
      8     -17.4074      2.00000
      9     -17.4071      2.00000
     10     -17.3184      2.00000
     11     -17.3135      2.00000
     12      -8.9793      2.00000
     13      -8.5400      2.00000
     14      -8.4226      2.00000
     15      -8.3914      2.00000
     16      -3.3165      2.00000
     17      -2.5262      2.00000
     18      -2.5007      2.00000
     19      -2.3694      2.00000
     20      -2.3461      2.00000
     21      -2.2131      2.00000
     22      -1.3046      2.00000
     23      -0.7786      2.00000
     24      -0.5120      2.00000
     25       0.3826      2.00000
     26       0.5907      2.00000
     27       0.8809      2.00000
     28       1.0499      2.00000
     29       1.1954      2.00000
     30       1.3730      2.00000
     31       1.5487      2.00000
     32       1.6792      2.00000
     33       2.7551      2.00000
     34       2.8053      2.00000
     35       2.8763      2.00000
     36       2.9155      2.00000
     37       3.3058      2.00000
     38       3.4310      2.00000
     39       3.8766      2.00000
     40       3.9419      2.00000
     41       4.0046      2.00000
     42       4.0567      2.00000
     43       5.8255      0.00000
     44       7.2637      0.00000
     45       8.3075      0.00000
     46       8.3674      0.00000
     47       8.4686      0.00000
     48       9.4472      0.00000
     49       9.5890      0.00000
     50      10.2877      0.00000
     51      10.4930      0.00000
     52      10.6349      0.00000

 k-point    51 :      -0.1667    0.3333    0.5000
  band No.  band energies     occupation 
      1     -63.9177      2.00000
      2     -63.8627      2.00000
      3     -63.8626      2.00000
      4     -63.8418      2.00000
      5     -63.8417      2.00000
      6     -63.8343      2.00000
      7     -17.4112      2.00000
      8     -17.4073      2.00000
      9     -17.4069      2.00000
     10     -17.3188      2.00000
     11     -17.3136      2.00000
     12      -9.0796      2.00000
     13      -8.5932      2.00000
     14      -8.4645      2.00000
     15      -8.2179      2.00000
     16      -3.2824      2.00000
     17      -2.5334      2.00000
     18      -2.4854      2.00000
     19      -2.3959      2.00000
     20      -2.3484      2.00000
     21      -2.1514      2.00000
     22      -1.0724      2.00000
     23      -0.5537      2.00000
     24      -0.2290      2.00000
     25       0.1118      2.00000
     26       0.6438      2.00000
     27       0.8601      2.00000
     28       0.9308      2.00000
     29       1.0079      2.00000
     30       1.3784      2.00000
     31       1.5150      2.00000
     32       1.6213      2.00000
     33       2.7480      2.00000
     34       2.7686      2.00000
     35       2.8501      2.00000
     36       2.9642      2.00000
     37       3.1999      2.00000
     38       3.3390      2.00000
     39       3.5957      2.00000
     40       3.7633      2.00000
     41       3.8732      2.00000
     42       4.2270      2.00000
     43       6.1322      0.00000
     44       7.3685      0.00000
     45       7.7025      0.00000
     46       8.2385      0.00000
     47       8.4096      0.00000
     48       9.3332      0.00000
     49       9.5298      0.00000
     50      10.1671      0.00000
     51      10.5720      0.00000
     52      10.7144      0.00000


--------------------------------------------------------------------------------------------------------


 soft charge-density along one line, spin component           1
         0         1         2         3         4         5         6         7         8         9
 total charge-density along one line
 
 pseudopotential strength for first ion, spin component:           1
-67.785  -0.000  -0.000  32.185   0.000   0.000   0.000  -0.003
 -0.000 -67.763  -0.000   0.000  32.170   0.000   0.026   0.000
 -0.000  -0.000 -67.785   0.000   0.000  32.185   0.000   0.026
 32.185   0.000   0.000  -9.261  -0.000  -0.000  -0.000   0.002
  0.000  32.170   0.000  -0.000  -9.252  -0.000  -0.015  -0.000
  0.000   0.000  32.185  -0.000  -0.000  -9.261  -0.000  -0.015
  0.000   0.026   0.000  -0.000  -0.015  -0.000  -7.454   0.000
 -0.003   0.000   0.026   0.002  -0.000  -0.015   0.000  -7.441
  0.000   0.000   0.000  -0.000  -0.000  -0.000  -0.000   0.000
  0.026   0.000   0.003  -0.015  -0.000  -0.002   0.000  -0.000
  0.000   0.003  -0.000  -0.000  -0.002   0.000   0.008   0.000
 -0.000  -0.007  -0.000   0.000   0.005   0.000  -0.484  -0.000
  0.001  -0.000  -0.007  -0.000   0.000   0.005  -0.000  -0.488
 -0.000  -0.000  -0.000   0.000   0.000   0.000   0.000  -0.000
 -0.007  -0.000  -0.001   0.005  -0.000   0.000  -0.000   0.000
 -0.000  -0.001   0.000   0.000   0.000  -0.000  -0.002  -0.000
 -0.000   0.000   0.000   0.000  -0.000  -0.000   0.000   0.000
  0.000  -0.000  -0.000  -0.000   0.000   0.000  -0.000  -0.000
 total augmentation occupancy for first ion, spin component:           1
  2.003  -0.000   0.000   0.030   0.000   0.000   0.000   0.003   0.000  -0.016  -0.000   0.000  -0.000   0.000   0.041   0.000
  0.000   2.003  -0.000   0.000   0.030   0.000  -0.015   0.000   0.000   0.000  -0.001   0.041   0.000   0.000   0.000  -0.001
 -0.000   0.000   2.003  -0.000   0.000   0.030  -0.000  -0.016  -0.000  -0.003   0.000   0.000   0.041   0.000   0.000   0.000
  0.030   0.000  -0.000   0.125   0.000  -0.000   0.000   0.007   0.000  -0.046   0.000   0.000  -0.001   0.000   0.107   0.000
  0.000   0.030   0.000   0.000   0.122   0.000  -0.044   0.000   0.000   0.000  -0.003   0.107   0.000   0.000   0.000  -0.001
  0.000   0.000   0.030   0.000   0.000   0.125  -0.000  -0.046  -0.000  -0.007   0.000   0.000   0.107   0.000   0.001   0.000
  0.000  -0.015  -0.000   0.000  -0.044  -0.000   1.930   0.000   0.000   0.000   0.015  -0.047   0.000   0.000   0.000  -0.015
  0.003   0.000  -0.016   0.007   0.000  -0.046   0.000   1.932   0.000  -0.000   0.000   0.000  -0.048   0.000  -0.000   0.000
  0.000   0.000   0.000   0.000   0.000   0.000   0.000   0.000   1.942   0.000   0.000   0.000   0.000  -0.052   0.000   0.000
 -0.016   0.000  -0.003  -0.046   0.000  -0.007   0.000   0.000   0.000   1.932   0.000   0.000   0.000  -0.000  -0.048   0.000
  0.000  -0.001   0.000   0.000  -0.003   0.000   0.015   0.000   0.000   0.000   1.930  -0.015   0.000   0.000   0.000  -0.045
  0.000   0.041   0.000   0.000   0.107   0.000  -0.047   0.000   0.000   0.000  -0.015   0.149  -0.000   0.000   0.000   0.003
 -0.000   0.000   0.041  -0.001   0.000   0.107   0.000  -0.048   0.000   0.000  -0.000  -0.000   0.146   0.000  -0.000   0.000
  0.000   0.000  -0.000   0.000   0.000  -0.000   0.000   0.000  -0.052   0.000   0.000   0.000   0.000   0.039   0.000   0.000
  0.041   0.000   0.000   0.107   0.000   0.001   0.000  -0.000  -0.000  -0.048   0.000   0.000   0.000   0.000   0.146   0.000
  0.000  -0.001   0.000   0.000  -0.001   0.000  -0.015   0.000   0.000   0.000  -0.045   0.003   0.000   0.000   0.000   0.037
  0.000   0.000   0.000   0.000   0.000   0.000   0.000   0.000  -0.003   0.000   0.000   0.000   0.000  -0.006   0.000   0.000
  0.000   0.000   0.000   0.000   0.000   0.000   0.000  -0.000  -0.022   0.000   0.000   0.000  -0.000   0.001   0.000   0.000


------------------------ aborting loop because EDIFF is reached ----------------------------------------


 


 total charge     
 
# of ion     s       p       d       tot
----------------------------------------
  1        0.241   6.176   8.963  15.380
  2        0.240   6.173   8.963  15.377
  3        0.541   0.476   9.797  10.814
  4        1.117   1.133  10.107  12.357
  5        1.327   2.362   0.000   3.689
  6        1.328   2.362   0.000   3.689
  7        1.328   2.362   0.000   3.689
  8        1.327   2.361   0.000   3.688
------------------------------------------------
tot        7.449  23.406  37.829  68.684
 
    CHARGE:  cpu time    0.05: real time    0.06
    FORLOC:  cpu time    0.00: real time    0.00
    FORNL :  cpu time    0.17: real time    0.18
    STRESS:  cpu time    0.66: real time    0.66
    FORCOR:  cpu time    0.01: real time    0.01
    FORHAR:  cpu time    0.01: real time    0.01
    MIXING:  cpu time    0.00: real time    0.00
    OFIELD:  cpu time    0.00: real time    0.00

  FORCE on cell =-STRESS in cart. coord.  units (eV):
  Direction    XX          YY          ZZ          XY          YZ          ZX
  --------------------------------------------------------------------------------------
  Alpha Z   249.48650   249.48650   249.48650
  Ewald   -2394.86127 -2394.86127 -2366.21278     0.00000     0.00000     0.00000
  Hartree  1668.06722  1668.06722  1698.83938     0.00000     0.00016     0.00014
  E(xc)    -483.81985  -483.81985  -483.81923    -0.00000    -0.00000    -0.00000
  Local    -671.36622  -671.36622  -730.94272     0.00001    -0.00023    -0.00020
  n-local   230.85084   231.01078   231.54586     0.04802    -0.04628     0.11110
  augment   484.27417   484.27417   483.80936     0.00023    -0.00242    -0.00242
  Kinetic   911.55975   913.87165   912.71344    -0.03245    -0.19457    -0.39719
  Fock        0.00000     0.00000     0.00000     0.00000     0.00000     0.00000
  -------------------------------------------------------------------------------------
  Total      -4.57295    -4.57295    -4.58021     0.00000     0.00000     0.00000
  in kB     -45.73050   -45.73050   -45.80306     0.00000     0.00000     0.00000
  external pressure =      -45.75 kB  Pullay stress =        0.00 kB


 VOLUME and BASIS-vectors are now :
 -----------------------------------------------------------------------------
  energy-cutoff  :      500.00
  volume of cell :      160.21
      direct lattice vectors                 reciprocal lattice vectors
     5.435300000  0.000000000  0.000000000     0.183982485  0.000000000 -0.092196841
     0.000000000  5.435300000  0.000000000     0.000000000  0.183982485 -0.092196841
     2.717650000  2.717650000  5.423179281     0.000000000  0.000000000  0.184393683

  length of vectors
     5.435300000  5.435300000  6.646962958     0.205790700  0.205790700  0.184393683


 FORCES acting on ions
    electron-ion (+dipol)            ewald-force                    non-local-force                 convergence-correction
 -----------------------------------------------------------------------------------------------
   -.332E-05 -.337E-06 0.811E-06   0.790E-11 -.246E-11 -.851E-11   -.217E-18 0.239E-17 0.000E+00   0.164E-06 -.432E-07 0.256E-07
   0.648E-06 0.342E-05 0.154E-05   -.763E-11 -.242E-11 0.874E-11   0.000E+00 0.000E+00 0.000E+00   0.239E-07 -.646E-07 -.310E-07
   0.210E-05 -.320E-05 -.921E-06   0.543E-11 -.263E-11 0.605E-11   0.217E-18 -.217E-18 0.000E+00   -.366E-07 0.105E-06 0.686E-07
   0.241E-05 -.180E-05 -.988E-06   -.550E-11 -.257E-11 -.620E-11   -.651E-18 -.759E-17 0.000E+00   -.319E-07 0.482E-07 0.194E-07
   -.634E+02 -.739E+01 0.597E+01   0.613E+02 0.840E+01 -.704E+01   0.169E+01 -.820E+00 0.860E+00   -.326E-02 -.867E-03 0.140E-02
   0.634E+02 0.739E+01 0.597E+01   -.613E+02 -.840E+01 -.704E+01   -.169E+01 0.820E+00 0.860E+00   0.326E-02 0.867E-03 0.140E-02
   0.739E+01 -.634E+02 -.597E+01   -.840E+01 0.613E+02 0.704E+01   0.820E+00 0.169E+01 -.860E+00   0.867E-03 -.326E-02 -.140E-02
   -.739E+01 0.634E+02 -.597E+01   0.840E+01 -.613E+02 0.704E+01   -.820E+00 -.169E+01 -.860E+00   -.867E-03 0.326E-02 -.140E-02
 -----------------------------------------------------------------------------------------------
   -.193E-04 -.196E-04 0.524E-05   0.178E-14 -.711E-14 -.133E-13   0.222E-15 0.000E+00 0.111E-15   0.101E-06 -.180E-08 -.510E-07
 
 
 POSITION                                       TOTAL-FORCE (eV/Angst)
 -----------------------------------------------------------------------------------
      0.00000      0.00000      0.00000         0.000000     -0.000000     -0.000000
      5.43530      2.71765      2.71159         0.000000     -0.000000     -0.000000
      2.71765      2.71765      0.00000         0.000000     -0.000000     -0.000000
      2.71765      5.43530      2.71159         0.000000     -0.000000     -0.000000
      1.30213      1.38979      1.32105        -0.388666      0.194561     -0.208437
      4.13317      4.04551      1.32105         0.388666     -0.194561     -0.208437
      6.76316      4.01978      4.10213        -0.194561     -0.388666      0.208437
      4.10744      6.85082      4.10213         0.194561      0.388666      0.208437
 -----------------------------------------------------------------------------------
    total drift:                               -0.000019     -0.000020      0.000005


--------------------------------------------------------------------------------------------------------



  FREE ENERGIE OF THE ION-ELECTRON SYSTEM (eV)
  ---------------------------------------------------
  free  energy   TOTEN  =       -37.97857447 eV

  energy  without entropy=      -37.97857447  energy(sigma->0) =      -37.97857447
 


--------------------------------------------------------------------------------------------------------


    POTLOK:  cpu time    0.02: real time    0.02


--------------------------------------------------------------------------------------------------------


 writing wavefunctions
     LOOP+:  cpu time   16.65: real time   17.96
    4ORBIT:  cpu time    0.00: real time    0.00
 


 total charge     
 
# of ion     s       p       d       tot
----------------------------------------
  1        0.241   6.176   8.963  15.380
  2        0.240   6.173   8.963  15.377
  3        0.541   0.476   9.797  10.814
  4        1.117   1.133  10.107  12.357
  5        1.327   2.362   0.000   3.689
  6        1.328   2.362   0.000   3.689
  7        1.328   2.362   0.000   3.689
  8        1.327   2.361   0.000   3.688
------------------------------------------------
tot        7.449  23.406  37.829  68.684
 

 total amount of memory used by VASP on root node    77363. kBytes
========================================================================

   base      :      30000. kBytes
   nonl-proj :      30566. kBytes
   fftplans  :       1896. kBytes
   grid      :       3584. kBytes
   one-center:         31. kBytes
   wavefun   :      11286. kBytes
 
  
  
 General timing and accounting informations for this job:
 ========================================================
  
                  Total CPU time used (sec):       19.239
                            User time (sec):       17.983
                          System time (sec):        1.256
                         Elapsed time (sec):       21.088
  
                   Maximum memory used (kb):      110108.
                   Average memory used (kb):           0.
  
                          Minor page faults:       411569
                          Major page faults:            0
                 Voluntary context switches:         3235
