Name                                    
   5.43100000000000     
     0.500000    0.500000    0.000000
     0.500000    0.000000   -0.500000
     0.000000    0.500000   -0.500000
   Si
     2
Direct
  0.000000  0.000000  0.000000
  0.250000  0.250000  0.250000
 
   56   56   56
 -.81160273799E+01 -.75344273154E+01 -.58522007124E+01 -.32488755871E+01 0.30859714507E-02
 0.35757253601E+01 0.71309581313E+01 0.10365519144E+02 0.13046626070E+02 0.15032279838E+02
 0.16274876612E+02 0.16811088513E+02 0.16743011998E+02 0.16215316543E+02 0.15391739671E+02
 0.14430234347E+02 0.13425295508E+02 0.12422717152E+02 0.11459694567E+02 0.10564415426E+02
 0.97554722625E+01 0.90426235130E+01 0.84287876469E+01 0.79127588143E+01 0.74919157548E+01
 0.71642284806E+01 0.69291441579E+01 0.67873645066E+01 0.67399446444E+01 0.67873645066E+01
 0.69291441579E+01 0.71642284806E+01 0.74919157548E+01 0.79127588143E+01 0.84287876469E+01
 0.90426235130E+01 0.97554722625E+01 0.10564415426E+02 0.11459694567E+02 0.12422717152E+02
 0.13425295508E+02 0.14430234347E+02 0.15391739671E+02 0.16215316543E+02 0.16743011998E+02
 0.16811088513E+02 0.16274876612E+02 0.15032279838E+02 0.13046626070E+02 0.10365519144E+02
 0.71309581313E+01 0.35757253601E+01 0.30859714507E-02 -.32488755871E+01 -.58522007124E+01
 -.75344273154E+01 -.75344273154E+01 -.63456449062E+01 -.40998918064E+01 -.10419584200E+01
 0.25057817276E+01 0.61899997895E+01 0.96757885869E+01 0.12689013013E+02 0.15043853061E+02
 0.16652447482E+02 0.17518605888E+02 0.17720672630E+02 0.17389036863E+02 0.16682396643E+02
 0.15765189318E+02 0.14768994123E+02 0.13752173712E+02 0.12755121920E+02 0.11810359357E+02
 0.10941412466E+02 0.10162787507E+02 0.94812525613E+01 0.88981754282E+01 0.84122889548E+01
 0.80221090137E+01 0.77273708392E+01 0.75292366369E+01 0.74295155750E+01 0.74295155750E+01
 0.75292366369E+01 0.77273708392E+01 0.80221090137E+01 0.84122889548E+01 0.88981754282E+01
 0.94812525613E+01 0.10162787507E+02 0.10941412466E+02 0.11810359357E+02 0.12755121920E+02
 0.13752173712E+02 0.14768994123E+02 0.15765189318E+02 0.16682396643E+02 0.17389036863E+02
 0.17720672630E+02 0.17518605888E+02 0.16652447482E+02 0.15043853061E+02 0.12689013013E+02
 0.96757885869E+01 0.61899997895E+01 0.25057817276E+01 -.10419584200E+01 -.40998918064E+01
 -.63456449062E+01 -.75344273154E+01 -.58522007124E+01 -.40998918064E+01 -.14020432176E+01
 0.19432369881E+01 0.55844472589E+01 0.91685221268E+01 0.12388745461E+02 0.15019490564E+02
 0.16932760840E+02 0.18096982153E+02 0.18562649908E+02 0.18440815826E+02 0.17879381363E+02
 0.17040235141E+02 0.16074287270E+02 0.15064799400E+02 0.14054356805E+02 0.13078362203E+02
 0.12164250975E+02 0.11330863563E+02 0.10588978402E+02 0.99430672428E+01 0.93938544267E+01
 0.89409394007E+01 0.85847057730E+01 0.83270170856E+01 0.81706915624E+01 0.81182481668E+01
 0.81706915624E+01 0.83270170856E+01 0.85847057730E+01 0.89409394007E+01 0.93938544267E+01
 0.99430672428E+01 0.10588978402E+02 0.11330863563E+02 0.12164250975E+02 0.13078362203E+02
 0.14054356805E+02 0.15064799400E+02 0.16074287270E+02 0.17040235141E+02 0.17879381363E+02
 0.18440815826E+02 0.18562649908E+02 0.18096982153E+02 0.16932760840E+02 0.15019490564E+02
 0.12388745461E+02 0.91685221268E+01 0.55844472589E+01 0.19432369881E+01 -.14020432176E+01
 -.40998918064E+01 -.58522007124E+01 -.64596409845E+01 -.32488755871E+01 -.10419584200E+01
 0.19432369881E+01 0.53756742512E+01 0.89005218996E+01 0.12190722733E+02 0.14988130432E+02
 0.17127305124E+02 0.18540514821E+02 0.19247451793E+02 0.19335643453E+02 0.18937252259E+02
 0.18206097615E+02 0.17296424324E+02 0.16317524832E+02 0.15316943143E+02 0.14331540447E+02
 0.13391382899E+02 0.12518808484E+02 0.11728327494E+02 0.11027715703E+02 0.10420160436E+02
 0.99068621382E+01 0.94892724219E+01 0.91702656451E+01 0.89539662657E+01 0.88445170316E+01
 0.88445170316E+01 0.89539662657E+01 0.91702656451E+01 0.94892724219E+01 0.99068621382E+01
 0.10420160436E+02 0.11027715703E+02 0.11728327494E+02 0.12518808484E+02 0.13391382899E+02
 0.14331540447E+02 0.15316943143E+02 0.16317524832E+02 0.17296424324E+02 0.18206097615E+02
 0.18937252259E+02 0.19335643453E+02 0.19247451793E+02 0.18540514821E+02 0.17127305124E+02
 0.14988130432E+02 0.12190722733E+02 0.89005218996E+01 0.53756742512E+01 0.19432369881E+01
 -.10419584200E+01 -.32488755871E+01 -.44218905876E+01 -.44218905876E+01 0.30859714507E-02
 0.25057817276E+01 0.55844472589E+01 0.89005218996E+01 0.12121769590E+02 0.14968143292E+02
 0.17242438430E+02 0.18842219529E+02 0.19754881985E+02 0.20041207094E+02 0.19813456053E+02
 0.19212630236E+02 0.18387496926E+02 0.17463511077E+02 0.16497816851E+02 0.15527532821E+02
 0.14584043377E+02 0.13692074863E+02 0.12869191276E+02 0.12126281010E+02 0.11469182068E+02
 0.10901070371E+02 0.10424853579E+02 0.10044745236E+02 0.97664921988E+01 0.95962838924E+01
 0.95389402853E+01 0.95962838924E+01 0.97664921988E+01 0.10044745236E+02 0.10424853579E+02
 0.10901070371E+02 0.11469182068E+02 0.12126281010E+02 0.12869191276E+02 0.13692074863E+02
 0.14584043377E+02 0.15527532821E+02 0.16497816851E+02 0.17463511077E+02 0.18387496926E+02
 0.19212630236E+02 0.19813456053E+02 0.20041207094E+02 0.19754881985E+02 0.18842219529E+02
 0.17242438430E+02 0.14968143292E+02 0.12121769590E+02 0.89005218996E+01 0.55844472589E+01
 0.25057817276E+01 0.30859714507E-02 -.16312953855E+01 -.21994160988E+01 -.16312953855E+01
 0.35757253601E+01 0.61899997895E+01 0.91685221268E+01 0.12190722733E+02 0.14968143292E+02
 0.17280639067E+02 0.18995233439E+02 0.20067484838E+02 0.20529475309E+02 0.20470271452E+02
 0.20014043678E+02 0.19299178390E+02 0.18454825270E+02 0.17549757832E+02 0.16620682207E+02
 0.15699125061E+02 0.14810996016E+02 0.13975943462E+02 0.13207396561E+02 0.12513676211E+02
 0.11900051780E+02 0.11371131430E+02 0.10932730942E+02 0.10592499722E+02 0.10359064720E+02
 0.10240083510E+02 0.10240083510E+02 0.10359064720E+02 0.10592499722E+02 0.10932730942E+02
 0.11371131430E+02 0.11900051780E+02 0.12513676211E+02 0.13207396561E+02 0.13975943462E+02
 0.14810996016E+02 0.15699125061E+02 0.16620682207E+02 0.17549757832E+02 0.18454825270E+02
 0.19299178390E+02 0.20014043678E+02 0.20470271452E+02 0.20529475309E+02 0.20067484838E+02
 0.18995233439E+02 0.17280639067E+02 0.14968143292E+02 0.12190722733E+02 0.91685221268E+01
 0.61899997895E+01 0.35757253601E+01 0.16303147301E+01 0.59218725669E+00 0.59218725669E+00
 0.16303147301E+01 0.71309581313E+01 0.96757885869E+01 0.12388745461E+02 0.14988130432E+02
 0.17242438430E+02 0.18995233439E+02 0.20173140962E+02 0.20779329971E+02 0.20877528714E+02
 0.20571887820E+02 0.19986652852E+02 0.19245925439E+02 0.18426561224E+02 0.17564925294E+02
 0.16691727875E+02 0.15832912885E+02 0.15009096584E+02 0.14235374724E+02 0.13522021269E+02
 0.12876186324E+02 0.12304173661E+02 0.11813495869E+02 0.11413865066E+02 0.11116635375E+02
 0.10932839766E+02 0.10870580081E+02 0.10932839766E+02 0.11116635375E+02 0.11413865066E+02
 0.11813495869E+02 0.12304173661E+02 0.12876186324E+02 0.13522021269E+02 0.14235374724E+02
 0.15009096584E+02 0.15832912885E+02 0.16691727875E+02 0.17564925294E+02 0.18426561224E+02
 0.19245925439E+02 0.19986652852E+02 0.20571887820E+02 0.20877528714E+02 0.20779329971E+02
 0.20173140962E+02 0.18995233439E+02 0.17242438430E+02 0.14988130432E+02 0.12388745461E+02
 0.96757885869E+01 0.71309581313E+01 0.50466131230E+01 0.36786529910E+01 0.32019593291E+01
 0.36786529910E+01 0.50466131230E+01 0.10365519144E+02 0.12689013013E+02 0.15019490564E+02
 0.17127305124E+02 0.18842219529E+02 0.20067484838E+02 0.20779329971E+02 0.21015563480E+02
 0.20858196602E+02 0.20414374722E+02 0.19797652266E+02 0.19086703144E+02 0.18317200878E+02
 0.17518285414E+02 0.16714935385E+02 0.15927612124E+02 0.15172024701E+02 0.14459569550E+02
 0.13798722092E+02 0.13197159020E+02 0.12663920590E+02 0.12210724289E+02 0.11851748341E+02
 0.11601767395E+02 0.11473210961E+02 0.11473210961E+02 0.11601767395E+02 0.11851748341E+02
 0.12210724289E+02 0.12663920590E+02 0.13197159020E+02 0.13798722092E+02 0.14459569550E+02
 0.15172024701E+02 0.15927612124E+02 0.16714935385E+02 0.17518285414E+02 0.18317200878E+02
 0.19086703144E+02 0.19797652266E+02 0.20414374722E+02 0.20858196602E+02 0.21015563480E+02
 0.20779329971E+02 0.20067484838E+02 0.18842219529E+02 0.17127305124E+02 0.15019490564E+02
 0.12689013013E+02 0.10365519144E+02 0.83089916590E+01 0.67697539194E+01 0.59455626040E+01
 0.59455626040E+01 0.67697539194E+01 0.83089916590E+01 0.13046626070E+02 0.15043853061E+02
 0.16932760840E+02 0.18540514821E+02 0.19754881985E+02 0.20529475309E+02 0.20877528714E+02
 0.20858196602E+02 0.20559566198E+02 0.20081172382E+02 0.19497091011E+02 0.18841049398E+02
 0.18139998177E+02 0.17417129104E+02 0.16691727875E+02 0.15979022349E+02 0.15290514722E+02
 0.14635165472E+02 0.14021377811E+02 0.13459231119E+02 0.12962089551E+02 0.12546762670E+02
 0.12231853623E+02 0.12034631434E+02 0.11967402080E+02 0.12034631434E+02 0.12231853623E+02
 0.12546762670E+02 0.12962089551E+02 0.13459231119E+02 0.14021377811E+02 0.14635165472E+02
 0.15290514722E+02 0.15979022349E+02 0.16691727875E+02 0.17417129104E+02 0.18139998177E+02
 0.18841049398E+02 0.19497091011E+02 0.20081172382E+02 0.20559566198E+02 0.20858196602E+02
 0.20877528714E+02 0.20529475309E+02 0.19754881985E+02 0.18540514821E+02 0.16932760840E+02
 0.15043853061E+02 0.13046626070E+02 0.11155764805E+02 0.95970208821E+01 0.85697754441E+01
 0.82110844276E+01 0.85697754441E+01 0.95970208821E+01 0.11155764805E+02 0.15032279838E+02
 0.16652447482E+02 0.18096982153E+02 0.19247451793E+02 0.20041207094E+02 0.20470271452E+02
 0.20571887820E+02 0.20414374722E+02 0.20081172382E+02 0.19636351425E+02 0.19109957848E+02
 0.18526196403E+02 0.17905813058E+02 0.17266063458E+02 0.16620682207E+02 0.15980215626E+02
 0.15353101036E+02 0.14747564510E+02 0.14173926578E+02 0.13646499895E+02 0.13184168968E+02
 0.12809068760E+02 0.12543360009E+02 0.12405263204E+02 0.12405263204E+02 0.12543360009E+02
 0.12809068760E+02 0.13184168968E+02 0.13646499895E+02 0.14173926578E+02 0.14747564510E+02
 0.15353101036E+02 0.15980215626E+02 0.16620682207E+02 0.17266063458E+02 0.17905813058E+02
 0.18526196403E+02 0.19109957848E+02 0.19636351425E+02 0.20081172382E+02 0.20414374722E+02
 0.20571887820E+02 0.20470271452E+02 0.20041207094E+02 0.19247451793E+02 0.18096982153E+02
 0.16652447482E+02 0.15032279838E+02 0.13400735442E+02 0.11946532249E+02 0.10853034474E+02
 0.10265943983E+02 0.10265943983E+02 0.10853034474E+02 0.11946532249E+02 0.13400735442E+02
 0.16274876612E+02 0.17518605888E+02 0.18562649908E+02 0.19335643453E+02 0.19813456053E+02
 0.20014043678E+02 0.19986652852E+02 0.19797652266E+02 0.19497091011E+02 0.19109957848E+02
 0.18657191936E+02 0.18156572959E+02 0.17622665679E+02 0.17066873316E+02 0.16497816851E+02
 0.15922383269E+02 0.15347588586E+02 0.14782972074E+02 0.14242790557E+02 0.13746978475E+02
 0.13319502130E+02 0.12987073863E+02 0.12775238437E+02 0.12702394229E+02 0.12775238437E+02
 0.12987073863E+02 0.13319502130E+02 0.13746978475E+02 0.14242790557E+02 0.14782972074E+02
 0.15347588586E+02 0.15922383269E+02 0.16497816851E+02 0.17066873316E+02 0.17622665679E+02
 0.18156572959E+02 0.18657191936E+02 0.19109957848E+02 0.19497091011E+02 0.19797652266E+02
 0.19986652852E+02 0.20014043678E+02 0.19813456053E+02 0.19335643453E+02 0.18562649908E+02
 0.17518605888E+02 0.16274876612E+02 0.14946786045E+02 0.13680577894E+02 0.12631723456E+02
 0.11938405421E+02 0.11695958818E+02 0.11938405421E+02 0.12631723456E+02 0.13680577894E+02
 0.14946786045E+02 0.16811088513E+02 0.17720672630E+02 0.18440815826E+02 0.18937252259E+02
 0.19212630236E+02 0.19299178390E+02 0.19245925439E+02 0.19086703144E+02 0.18841049398E+02
 0.18526196403E+02 0.18156572959E+02 0.17743594731E+02 0.17295724443E+02 0.16818888701E+02
 0.16317524832E+02 0.15796436390E+02 0.15263280886E+02 0.14731041276E+02 0.14218121482E+02
 0.13748820036E+02 0.13354544737E+02 0.13068254500E+02 0.12917342050E+02 0.12917342050E+02
 0.13068254500E+02 0.13354544737E+02 0.13748820036E+02 0.14218121482E+02 0.14731041276E+02
 0.15263280886E+02 0.15796436390E+02 0.16317524832E+02 0.16818888701E+02 0.17295724443E+02
 0.17743594731E+02 0.18156572959E+02 0.18526196403E+02 0.18841049398E+02 0.19086703144E+02
 0.19245925439E+02 0.19299178390E+02 0.19212630236E+02 0.18937252259E+02 0.18440815826E+02
 0.17720672630E+02 0.16811088513E+02 0.15784569452E+02 0.14745437033E+02 0.13815574626E+02
 0.13114441643E+02 0.12737407018E+02 0.12737407018E+02 0.13114441643E+02 0.13815574626E+02
 0.14745437033E+02 0.15784569452E+02 0.16743011998E+02 0.17389036863E+02 0.17879381363E+02
 0.18206097615E+02 0.18387496926E+02 0.18454825270E+02 0.18426561224E+02 0.18317200878E+02
 0.18139998177E+02 0.17905813058E+02 0.17622665679E+02 0.17295724443E+02 0.16927720357E+02
 0.16519984006E+02 0.16074287270E+02 0.15595400385E+02 0.15093492642E+02 0.14582979244E+02
 0.14087541889E+02 0.13641632392E+02 0.13284660839E+02 0.13053146087E+02 0.12972874800E+02
 0.13053146087E+02 0.13284660839E+02 0.13641632392E+02 0.14087541889E+02 0.14582979244E+02
 0.15093492642E+02 0.15595400385E+02 0.16074287270E+02 0.16519984006E+02 0.16927720357E+02
 0.17295724443E+02 0.17622665679E+02 0.17905813058E+02 0.18139998177E+02 0.18317200878E+02
 0.18426561224E+02 0.18454825270E+02 0.18387496926E+02 0.18206097615E+02 0.17879381363E+02
 0.17389036863E+02 0.16743011998E+02 0.15979683705E+02 0.15166256326E+02 0.14390647295E+02
 0.13747724401E+02 0.13322454291E+02 0.13173685713E+02 0.13322454291E+02 0.13747724401E+02
 0.14390647295E+02 0.15166256326E+02 0.15979683705E+02 0.16215316543E+02 0.16682396643E+02
 0.17040235141E+02 0.17296424324E+02 0.17463511077E+02 0.17549757832E+02 0.17564925294E+02
 0.17518285414E+02 0.17417129104E+02 0.17266063458E+02 0.17066873316E+02 0.16818888701E+02
 0.16519984006E+02 0.16168374738E+02 0.15765189318E+02 0.15316485498E+02 0.14831389389E+02
 0.14330861725E+02 0.13849961772E+02 0.13432562161E+02 0.13123271787E+02 0.12958434980E+02
 0.12958434980E+02 0.13123271787E+02 0.13432562161E+02 0.13849961772E+02 0.14330861725E+02
 0.14831389389E+02 0.15316485498E+02 0.15765189318E+02 0.16168374738E+02 0.16519984006E+02
 0.16818888701E+02 0.17066873316E+02 0.17266063458E+02 0.17417129104E+02 0.17518285414E+02
 0.17564925294E+02 0.17549757832E+02 0.17463511077E+02 0.17296424324E+02 0.17040235141E+02
 0.16682396643E+02 0.16215316543E+02 0.15652855198E+02 0.15032378376E+02 0.14411314873E+02
 0.13858718603E+02 0.13443251324E+02 0.13220136665E+02 0.13220136665E+02 0.13443251324E+02
 0.13858718603E+02 0.14411314873E+02 0.15032378376E+02 0.15652855198E+02 0.15391739671E+02
 0.15765189318E+02 0.16074287270E+02 0.16317524832E+02 0.16497816851E+02 0.16620682207E+02
 0.16691727875E+02 0.16714935385E+02 0.16691727875E+02 0.16620682207E+02 0.16497816851E+02
 0.16317524832E+02 0.16074287270E+02 0.15765189318E+02 0.15391739671E+02 0.14957078387E+02
 0.14477021894E+02 0.13984323185E+02 0.13524446798E+02 0.13147852569E+02 0.12900399705E+02
 0.12814090174E+02 0.12900399705E+02 0.13147852569E+02 0.13524446798E+02 0.13984323185E+02
 0.14477021894E+02 0.14957078387E+02 0.15391739671E+02 0.15765189318E+02 0.16074287270E+02
 0.16317524832E+02 0.16497816851E+02 0.16620682207E+02 0.16691727875E+02 0.16714935385E+02
 0.16691727875E+02 0.16620682207E+02 0.16497816851E+02 0.16317524832E+02 0.16074287270E+02
 0.15765189318E+02 0.15391739671E+02 0.14957078387E+02 0.14477021894E+02 0.13984323185E+02
 0.13524446798E+02 0.13147852569E+02 0.12900399705E+02 0.12814090174E+02 0.12900399705E+02
 0.13147852569E+02 0.13524446798E+02 0.13984323185E+02 0.14477021894E+02 0.14957078387E+02
 0.14430234347E+02 0.14768994123E+02 0.15064799400E+02 0.15316943143E+02 0.15527532821E+02
 0.15699125061E+02 0.15832912885E+02 0.15927612124E+02 0.15979022349E+02 0.15980215626E+02
 0.15922383269E+02 0.15796436390E+02 0.15595400385E+02 0.15316485498E+02 0.14957078387E+02
 0.14525729090E+02 0.14049885700E+02 0.13573181184E+02 0.13148669271E+02 0.12829310373E+02
 0.12657750467E+02 0.12657750467E+02 0.12829310373E+02 0.13148669271E+02 0.13573181184E+02
 0.14049885700E+02 0.14525729090E+02 0.14957078387E+02 0.15316485498E+02 0.15595400385E+02
 0.15796436390E+02 0.15922383269E+02 0.15980215626E+02 0.15979022349E+02 0.15927612124E+02
 0.15832912885E+02 0.15699125061E+02 0.15527532821E+02 0.15316943143E+02 0.15064799400E+02
 0.14768994123E+02 0.14430234347E+02 0.14054535708E+02 0.13654657643E+02 0.13248275226E+02
 0.12861668388E+02 0.12528235665E+02 0.12282137677E+02 0.12151263544E+02 0.12151263544E+02
 0.12282137677E+02 0.12528235665E+02 0.12861668388E+02 0.13248275226E+02 0.13654657643E+02
 0.14054535708E+02 0.13425295508E+02 0.13752173712E+02 0.14054356805E+02 0.14331540447E+02
 0.14584043377E+02 0.14810996016E+02 0.15009096584E+02 0.15172024701E+02 0.15290514722E+02
 0.15353101036E+02 0.15347588586E+02 0.15263280886E+02 0.15093492642E+02 0.14831389389E+02
 0.14477021894E+02 0.14049885700E+02 0.13588264472E+02 0.13143921241E+02 0.12773360003E+02
 0.12527378005E+02 0.12441188258E+02 0.12527378005E+02 0.12773360003E+02 0.13143921241E+02
 0.13588264472E+02 0.14049885700E+02 0.14477021894E+02 0.14831389389E+02 0.15093492642E+02
 0.15263280886E+02 0.15347588586E+02 0.15353101036E+02 0.15290514722E+02 0.15172024701E+02
 0.15009096584E+02 0.14810996016E+02 0.14584043377E+02 0.14331540447E+02 0.14054356805E+02
 0.13752173712E+02 0.13425295508E+02 0.13076753598E+02 0.12714219818E+02 0.12351131154E+02
 0.12006505790E+02 0.11702986583E+02 0.11463763124E+02 0.11310104872E+02 0.11257073578E+02
 0.11310104872E+02 0.11463763124E+02 0.11702986583E+02 0.12006505790E+02 0.12351131154E+02
 0.12714219818E+02 0.13076753598E+02 0.12422717152E+02 0.12755121920E+02 0.13078362203E+02
 0.13391382899E+02 0.13692074863E+02 0.13975943462E+02 0.14235374724E+02 0.14459569550E+02
 0.14635165472E+02 0.14747564510E+02 0.14782972074E+02 0.14731041276E+02 0.14582979244E+02
 0.14330861725E+02 0.13984323185E+02 0.13573181184E+02 0.13143921241E+02 0.12752339492E+02
 0.12453640633E+02 0.12292019756E+02 0.12292019756E+02 0.12453640633E+02 0.12752339492E+02
 0.13143921241E+02 0.13573181184E+02 0.13984323185E+02 0.14330861725E+02 0.14582979244E+02
 0.14731041276E+02 0.14782972074E+02 0.14747564510E+02 0.14635165472E+02 0.14459569550E+02
 0.14235374724E+02 0.13975943462E+02 0.13692074863E+02 0.13391382899E+02 0.13078362203E+02
 0.12755121920E+02 0.12422717152E+02 0.12082884005E+02 0.11739823821E+02 0.11401565353E+02
 0.11080444439E+02 0.10792417959E+02 0.10555234839E+02 0.10385818954E+02 0.10297457662E+02
 0.10297457662E+02 0.10385818954E+02 0.10555234839E+02 0.10792417959E+02 0.11080444439E+02
 0.11401565353E+02 0.11739823821E+02 0.12082884005E+02 0.11459694567E+02 0.11810359357E+02
 0.12164250975E+02 0.12518808484E+02 0.12869191276E+02 0.13207396561E+02 0.13522021269E+02
 0.13798722092E+02 0.14021377811E+02 0.14173926578E+02 0.14242790557E+02 0.14218121482E+02
 0.14087541889E+02 0.13849961772E+02 0.13524446798E+02 0.13148669271E+02 0.12773360003E+02
 0.12453640633E+02 0.12238884727E+02 0.12163235841E+02 0.12238884727E+02 0.12453640633E+02
 0.12773360003E+02 0.13148669271E+02 0.13524446798E+02 0.13849961772E+02 0.14087541889E+02
 0.14218121482E+02 0.14242790557E+02 0.14173926578E+02 0.14021377811E+02 0.13798722092E+02
 0.13522021269E+02 0.13207396561E+02 0.12869191276E+02 0.12518808484E+02 0.12164250975E+02
 0.11810359357E+02 0.11459694567E+02 0.11113916460E+02 0.10775383587E+02 0.10448592393E+02
 0.10141052206E+02 0.98632969059E+01 0.96279518690E+01 0.94480370422E+01 0.93349007895E+01
 0.92962747753E+01 0.93349007895E+01 0.94480370422E+01 0.96279518690E+01 0.98632969059E+01
 0.10141052206E+02 0.10448592393E+02 0.10775383587E+02 0.11113916460E+02 0.10564415426E+02
 0.10941412466E+02 0.11330863563E+02 0.11728327494E+02 0.12126281010E+02 0.12513676211E+02
 0.12876186324E+02 0.13197159020E+02 0.13459231119E+02 0.13646499895E+02 0.13746978475E+02
 0.13748820036E+02 0.13641632392E+02 0.13432562161E+02 0.13147852569E+02 0.12829310373E+02
 0.12527378005E+02 0.12292019756E+02 0.12163235841E+02 0.12163235841E+02 0.12292019756E+02
 0.12527378005E+02 0.12829310373E+02 0.13147852569E+02 0.13432562161E+02 0.13641632392E+02
 0.13748820036E+02 0.13746978475E+02 0.13646499895E+02 0.13459231119E+02 0.13197159020E+02
 0.12876186324E+02 0.12513676211E+02 0.12126281010E+02 0.11728327494E+02 0.11330863563E+02
 0.10941412466E+02 0.10564415426E+02 0.10202252174E+02 0.98566170593E+01 0.95299296143E+01
 0.92264209381E+01 0.89525978679E+01 0.87169447869E+01 0.85289316413E+01 0.83975835152E+01
 0.83299699397E+01 0.83299699397E+01 0.83975835152E+01 0.85289316413E+01 0.87169447869E+01
 0.89525978679E+01 0.92264209381E+01 0.95299296143E+01 0.98566170593E+01 0.10202252174E+02
 0.97554722625E+01 0.10162787507E+02 0.10588978402E+02 0.11027715703E+02 0.11469182068E+02
 0.11900051780E+02 0.12304173661E+02 0.12663920590E+02 0.12962089551E+02 0.13184168968E+02
 0.13319502130E+02 0.13354544737E+02 0.13284660839E+02 0.13123271787E+02 0.12900399705E+02
 0.12657750467E+02 0.12441188258E+02 0.12292019756E+02 0.12238884727E+02 0.12292019756E+02
 0.12441188258E+02 0.12657750467E+02 0.12900399705E+02 0.13123271787E+02 0.13284660839E+02
 0.13354544737E+02 0.13319502130E+02 0.13184168968E+02 0.12962089551E+02 0.12663920590E+02
 0.12304173661E+02 0.11900051780E+02 0.11469182068E+02 0.11027715703E+02 0.10588978402E+02
 0.10162787507E+02 0.97554722625E+01 0.93705333863E+01 0.90097648176E+01 0.86745614039E+01
 0.83670879259E+01 0.80910176939E+01 0.78516667818E+01 0.76555201016E+01 0.75093093593E+01
 0.74189048050E+01 0.73882987518E+01 0.74189048050E+01 0.75093093593E+01 0.76555201016E+01
 0.78516667818E+01 0.80910176939E+01 0.83670879259E+01 0.86745614039E+01 0.90097648176E+01
 0.93705333863E+01 0.90426235130E+01 0.94812525613E+01 0.99430672428E+01 0.10420160436E+02
 0.10901070371E+02 0.11371131430E+02 0.11813495869E+02 0.12210724289E+02 0.12546762670E+02
 0.12809068760E+02 0.12987073863E+02 0.13068254500E+02 0.13053146087E+02 0.12958434980E+02
 0.12814090174E+02 0.12657750467E+02 0.12527378005E+02 0.12453640633E+02 0.12453640633E+02
 0.12527378005E+02 0.12657750467E+02 0.12814090174E+02 0.12958434980E+02 0.13053146087E+02
 0.13068254500E+02 0.12987073863E+02 0.12809068760E+02 0.12546762670E+02 0.12210724289E+02
 0.11813495869E+02 0.11371131430E+02 0.10901070371E+02 0.10420160436E+02 0.99430672428E+01
 0.94812525613E+01 0.90426235130E+01 0.86318467899E+01 0.82512003370E+01 0.79017275162E+01
 0.75843981189E+01 0.73009924863E+01 0.70545145380E+01 0.68490821004E+01 0.66893895554E+01
 0.65799371974E+01 0.65242471132E+01 0.65242471132E+01 0.65799371974E+01 0.66893895554E+01
 0.68490821004E+01 0.70545145380E+01 0.73009924863E+01 0.75843981189E+01 0.79017275162E+01
 0.82512003370E+01 0.86318467899E+01 0.84287876469E+01 0.88981754282E+01 0.93938544267E+01
 0.99068621382E+01 0.10424853579E+02 0.10932730942E+02 0.11413865066E+02 0.11851748341E+02
 0.12231853623E+02 0.12543360009E+02 0.12775238437E+02 0.12917342050E+02 0.12972874800E+02
 0.12958434980E+02 0.12900399705E+02 0.12829310373E+02 0.12773360003E+02 0.12752339492E+02
 0.12773360003E+02 0.12829310373E+02 0.12900399705E+02 0.12958434980E+02 0.12972874800E+02
 0.12917342050E+02 0.12775238437E+02 0.12543360009E+02 0.12231853623E+02 0.11851748341E+02
 0.11413865066E+02 0.10932730942E+02 0.10424853579E+02 0.99068621382E+01 0.93938544267E+01
 0.88981754282E+01 0.84287876469E+01 0.79912883453E+01 0.75885012526E+01 0.72214521506E+01
 0.68904626559E+01 0.65960893281E+01 0.63397021251E+01 0.61236178343E+01 0.59508381974E+01
 0.58245405707E+01 0.57475010405E+01 0.57216000356E+01 0.57475010405E+01 0.58245405707E+01
 0.59508381974E+01 0.61236178343E+01 0.63397021251E+01 0.65960893281E+01 0.68904626559E+01
 0.72214521506E+01 0.75885012526E+01 0.79912883453E+01 0.79127588143E+01 0.84122889548E+01
 0.89409394007E+01 0.94892724219E+01 0.10044745236E+02 0.10592499722E+02 0.11116635375E+02
 0.11601767395E+02 0.12034631434E+02 0.12405263204E+02 0.12702394229E+02 0.12917342050E+02
 0.13053146087E+02 0.13123271787E+02 0.13147852569E+02 0.13148669271E+02 0.13143921241E+02
 0.13143921241E+02 0.13148669271E+02 0.13147852569E+02 0.13123271787E+02 0.13053146087E+02
 0.12917342050E+02 0.12702394229E+02 0.12405263204E+02 0.12034631434E+02 0.11601767395E+02
 0.11116635375E+02 0.10592499722E+02 0.10044745236E+02 0.94892724219E+01 0.89409394007E+01
 0.84122889548E+01 0.79127588143E+01 0.74484821191E+01 0.70226599176E+01 0.66363623228E+01
 0.62895262448E+01 0.59818923349E+01 0.57136703621E+01 0.54858258600E+01 0.53000048885E+01
 0.51582121401E+01 0.50623967496E+01 0.50140769404E+01 0.50140769404E+01 0.50623967496E+01
 0.51582121401E+01 0.53000048885E+01 0.54858258600E+01 0.57136703621E+01 0.59818923349E+01
 0.62895262448E+01 0.66363623228E+01 0.70226599176E+01 0.74484821191E+01 0.74919157548E+01
 0.80221090137E+01 0.85847057730E+01 0.91702656451E+01 0.97664921988E+01 0.10359064720E+02
 0.10932839766E+02 0.11473210961E+02 0.11967402080E+02 0.12405263204E+02 0.12775238437E+02
 0.13068254500E+02 0.13284660839E+02 0.13432562161E+02 0.13524446798E+02 0.13573181184E+02
 0.13588264472E+02 0.13573181184E+02 0.13524446798E+02 0.13432562161E+02 0.13284660839E+02
 0.13068254500E+02 0.12775238437E+02 0.12405263204E+02 0.11967402080E+02 0.11473210961E+02
 0.10932839766E+02 0.10359064720E+02 0.97664921988E+01 0.91702656451E+01 0.85847057730E+01
 0.80221090137E+01 0.74919157548E+01 0.70003897203E+01 0.65508356583E+01 0.61442570740E+01
 0.57802576778E+01 0.54579493007E+01 0.51766570327E+01 0.49362990974E+01 0.47374333157E+01
 0.45810610429E+01 0.44683267838E+01 0.44002365979E+01 0.43774619085E+01 0.44002365979E+01
 0.44683267838E+01 0.45810610429E+01 0.47374333157E+01 0.49362990974E+01 0.51766570327E+01
 0.54579493007E+01 0.57802576778E+01 0.61442570740E+01 0.65508356583E+01 0.70003897203E+01
 0.71642284806E+01 0.77273708392E+01 0.83270170856E+01 0.89539662657E+01 0.95962838924E+01
 0.10240083510E+02 0.10870580081E+02 0.11473210961E+02 0.12034631434E+02 0.12543360009E+02
 0.12987073863E+02 0.13354544737E+02 0.13641632392E+02 0.13849961772E+02 0.13984323185E+02
 0.14049885700E+02 0.14049885700E+02 0.13984323185E+02 0.13849961772E+02 0.13641632392E+02
 0.13354544737E+02 0.12987073863E+02 0.12543360009E+02 0.12034631434E+02 0.11473210961E+02
 0.10870580081E+02 0.10240083510E+02 0.95962838924E+01 0.89539662657E+01 0.83270170856E+01
 0.77273708392E+01 0.71642284806E+01 0.66437044915E+01 0.61689612890E+01 0.57407706135E+01
 0.53583398135E+01 0.50201885020E+01 0.47248729799E+01 0.44714265316E+01 0.42594876907E+01
 0.40891871435E+01 0.39609197865E+01 0.38751240108E+01 0.38321379789E+01 0.38321379789E+01
 0.38751240108E+01 0.39609197865E+01 0.40891871435E+01 0.42594876907E+01 0.44714265316E+01
 0.47248729799E+01 0.50201885020E+01 0.53583398135E+01 0.57407706135E+01 0.61689612890E+01
 0.66437044915E+01 0.69291441579E+01 0.75292366369E+01 0.81706915624E+01 0.88445170316E+01
 0.95389402853E+01 0.10240083510E+02 0.10932839766E+02 0.11601767395E+02 0.12231853623E+02
 0.12809068760E+02 0.13319502130E+02 0.13748820036E+02 0.14087541889E+02 0.14330861725E+02
 0.14477021894E+02 0.14525729090E+02 0.14477021894E+02 0.14330861725E+02 0.14087541889E+02
 0.13748820036E+02 0.13319502130E+02 0.12809068760E+02 0.12231853623E+02 0.11601767395E+02
 0.10932839766E+02 0.10240083510E+02 0.95389402853E+01 0.88445170316E+01 0.81706915624E+01
 0.75292366369E+01 0.69291441579E+01 0.63763056133E+01 0.58736250170E+01 0.54215322388E+01
 0.50187644329E+01 0.46632239165E+01 0.43527199342E+01 0.40854577185E+01 0.38602309966E+01
 0.36763699950E+01 0.35335600930E+01 0.34316541853E+01 0.33705581351E+01 0.33502020471E+01
 0.33705581351E+01 0.34316541853E+01 0.35335600930E+01 0.36763699950E+01 0.38602309966E+01
 0.40854577185E+01 0.43527199342E+01 0.46632239165E+01 0.50187644329E+01 0.54215322388E+01
 0.58736250170E+01 0.63763056133E+01 0.67873645066E+01 0.74295155750E+01 0.81182481668E+01
 0.88445170316E+01 0.95962838924E+01 0.10359064720E+02 0.11116635375E+02 0.11851748341E+02
 0.12546762670E+02 0.13184168968E+02 0.13746978475E+02 0.14218121482E+02 0.14582979244E+02
 0.14831389389E+02 0.14957078387E+02 0.14957078387E+02 0.14831389389E+02 0.14582979244E+02
 0.14218121482E+02 0.13746978475E+02 0.13184168968E+02 0.12546762670E+02 0.11851748341E+02
 0.11116635375E+02 0.10359064720E+02 0.95962838924E+01 0.88445170316E+01 0.81182481668E+01
 0.74295155750E+01 0.67873645066E+01 0.61976004698E+01 0.56629244828E+01 0.51834368708E+01
 0.47574015881E+01 0.43821010047E+01 0.40546008145E+01 0.37722877772E+01 0.35331239590E+01
 0.33356516829E+01 0.31788508090E+01 0.30619698656E+01 0.29844211648E+01 0.29457674086E+01
 0.29457674086E+01 0.29844211648E+01 0.30619698656E+01 0.31788508090E+01 0.33356516829E+01
 0.35331239590E+01 0.37722877772E+01 0.40546008145E+01 0.43821010047E+01 0.47574015881E+01
 0.51834368708E+01 0.56629244828E+01 0.61976004698E+01 0.67399446444E+01 0.74295155750E+01
 0.81706915624E+01 0.89539662657E+01 0.97664921988E+01 0.10592499722E+02 0.11413865066E+02
 0.12210724289E+02 0.12962089551E+02 0.13646499895E+02 0.14242790557E+02 0.14731041276E+02
 0.15093492642E+02 0.15316485498E+02 0.15391739671E+02 0.15316485498E+02 0.15093492642E+02
 0.14731041276E+02 0.14242790557E+02 0.13646499895E+02 0.12962089551E+02 0.12210724289E+02
 0.11413865066E+02 0.10592499722E+02 0.97664921988E+01 0.89539662657E+01 0.81706915624E+01
 0.74295155750E+01 0.67399446444E+01 0.61079899869E+01 0.55363534328E+01 0.50249487189E+01
 0.45716687573E+01 0.41732485814E+01 0.38260576004E+01 0.35266872243E+01 0.32722691951E+01
 0.30605426753E+01 0.28897558613E+01 0.27585169592E+01 0.26656913937E+01 0.26103889654E+01
 0.25920236250E+01 0.26103889654E+01 0.26656913937E+01 0.27585169592E+01 0.28897558613E+01
 0.30605426753E+01 0.32722691951E+01 0.35266872243E+01 0.38260576004E+01 0.41732485814E+01
 0.45716687573E+01 0.50249487189E+01 0.55363534328E+01 0.61079899869E+01 0.67873645066E+01
 0.75292366369E+01 0.83270170856E+01 0.91702656451E+01 0.10044745236E+02 0.10932730942E+02