   2   2   1   0
  0.2002393E+02  0.3840297E-09  0.3840297E-09  0.3840297E-09  0.5000000E-15
  1.000000000000000E-004
  CAR 
 Name                                    
     18.25859608     -9.03680287  301      5.54348940      1.00000000
     -9.037  0.0000E+00  0.0000E+00
     -8.946  0.0000E+00  0.0000E+00
     -8.855  0.0000E+00  0.0000E+00
     -8.764  0.0000E+00  0.0000E+00
     -8.673  0.0000E+00  0.0000E+00
     -8.582  0.0000E+00  0.0000E+00
     -8.491  0.0000E+00  0.0000E+00
     -8.400  0.0000E+00  0.0000E+00
     -8.309  0.0000E+00  0.0000E+00
     -8.218  0.0000E+00  0.0000E+00
     -8.127  0.0000E+00  0.0000E+00
     -8.036  0.0000E+00  0.0000E+00
     -7.945  0.0000E+00  0.0000E+00
     -7.854  0.1196E-16  0.1088E-17
     -7.763  0.1078E+00  0.9804E-02
     -7.672  0.0000E+00  0.9804E-02
     -7.581  0.0000E+00  0.9804E-02
     -7.490  0.0000E+00  0.9804E-02
     -7.399  0.2631E+00  0.3375E-01
     -7.308  0.1286E-11  0.8824E-01
     -7.217  0.6465E+00  0.1471E+00
     -7.126  0.0000E+00  0.1471E+00
     -7.035  0.0000E+00  0.1471E+00
     -6.944  0.0000E+00  0.1471E+00
     -6.853  0.0000E+00  0.1471E+00
     -6.762  0.2745E-02  0.1473E+00
     -6.671  0.1290E+01  0.2647E+00
     -6.580  0.0000E+00  0.2647E+00
     -6.489  0.0000E+00  0.2647E+00
     -6.398  0.1367E-09  0.2647E+00
     -6.307  0.2586E+01  0.5000E+00
     -6.216  0.8620E+00  0.5784E+00
     -6.125  0.0000E+00  0.5784E+00
     -6.034  0.0000E+00  0.5784E+00
     -5.943  0.0000E+00  0.5784E+00
     -5.852  0.0000E+00  0.5784E+00
     -5.761  0.0000E+00  0.5784E+00
     -5.670  0.5700E+00  0.6303E+00
     -5.579  0.0000E+00  0.6373E+00
     -5.488  0.8922E-06  0.6373E+00
     -5.397  0.2586E+01  0.8725E+00
     -5.306  0.4307E-15  0.8725E+00
     -5.215  0.2593E+01  0.1108E+01
     -5.124  0.4239E+00  0.1147E+01
     -5.033  0.1820E+00  0.1164E+01
     -4.942  0.0000E+00  0.1382E+01
     -4.852  0.0000E+00  0.1382E+01
     -4.761  0.0000E+00  0.1382E+01
     -4.670  0.0000E+00  0.1382E+01
     -4.579  0.0000E+00  0.1382E+01
     -4.488  0.0000E+00  0.1382E+01
     -4.397  0.1390E-01  0.1384E+01
     -4.306  0.2572E+01  0.1618E+01
     -4.215  0.2082E-14  0.1618E+01
     -4.124  0.3878E+01  0.1971E+01
     -4.033  0.0000E+00  0.1971E+01
     -3.942  0.0000E+00  0.1971E+01
     -3.851  0.0000E+00  0.1971E+01
     -3.760  0.0000E+00  0.1971E+01
     -3.669  0.0000E+00  0.1971E+01
     -3.578  0.0000E+00  0.1971E+01
     -3.487  0.0000E+00  0.1971E+01
     -3.396  0.0000E+00  0.1971E+01
     -3.305  0.0000E+00  0.1971E+01
     -3.214  0.2210E-08  0.1971E+01
     -3.123  0.6465E+00  0.2029E+01
     -3.032  0.0000E+00  0.2029E+01
     -2.941  0.0000E+00  0.2029E+01
     -2.850  0.0000E+00  0.2029E+01
     -2.759  0.0000E+00  0.2029E+01
     -2.668  0.0000E+00  0.2029E+01
     -2.577  0.0000E+00  0.2029E+01
     -2.486  0.0000E+00  0.2029E+01
     -2.395  0.0000E+00  0.2029E+01
     -2.304  0.0000E+00  0.2029E+01
     -2.213  0.3776E+00  0.2064E+01
     -2.122  0.6644E-08  0.2069E+01
     -2.031  0.2586E+01  0.2304E+01
     -1.940  0.1293E+01  0.2422E+01
     -1.849  0.1379E-06  0.2422E+01
     -1.758  0.4970E+01  0.2874E+01
     -1.667  0.0000E+00  0.2892E+01
     -1.576  0.0000E+00  0.2892E+01
     -1.485  0.0000E+00  0.2892E+01
     -1.394  0.0000E+00  0.2892E+01
     -1.303  0.0000E+00  0.2892E+01
     -1.212  0.0000E+00  0.2892E+01
     -1.121  0.2546E+01  0.3124E+01
     -1.030  0.0000E+00  0.3127E+01
     -0.939  0.0000E+00  0.3127E+01
     -0.848  0.0000E+00  0.3127E+01
     -0.757  0.5077E-03  0.3127E+01
     -0.666  0.2586E+01  0.3363E+01
     -0.575  0.0000E+00  0.3363E+01
     -0.484  0.0000E+00  0.3363E+01
     -0.393  0.7554E-02  0.3363E+01
     -0.302  0.8545E+00  0.3441E+01
     -0.211  0.0000E+00  0.3441E+01
     -0.120  0.0000E+00  0.3441E+01
     -0.029  0.1545E-01  0.3443E+01
      0.062  0.6311E+00  0.3500E+01
      0.153  0.0000E+00  0.3500E+01
      0.244  0.0000E+00  0.3500E+01
      0.335  0.0000E+00  0.3500E+01
      0.426  0.0000E+00  0.3500E+01
      0.517  0.0000E+00  0.3500E+01
      0.608  0.7984E-03  0.3500E+01
      0.699  0.3878E+01  0.3853E+01
      0.790  0.0000E+00  0.3853E+01
      0.881  0.0000E+00  0.3853E+01
      0.972  0.0000E+00  0.3853E+01
      1.062  0.0000E+00  0.3853E+01
      1.153  0.2586E+01  0.4088E+01
      1.244  0.0000E+00  0.4088E+01
      1.335  0.0000E+00  0.4088E+01
      1.426  0.6462E-01  0.4094E+01
      1.517  0.1239E+01  0.4207E+01
      1.608  0.3111E+01  0.4490E+01
      1.699  0.0000E+00  0.4676E+01
      1.790  0.0000E+00  0.4676E+01
      1.881  0.0000E+00  0.4676E+01
      1.972  0.0000E+00  0.4676E+01
      2.063  0.0000E+00  0.4676E+01
      2.154  0.5716E-09  0.4676E+01
      2.245  0.2586E+01  0.4912E+01
      2.336  0.5497E-01  0.4917E+01
      2.427  0.0000E+00  0.4971E+01
      2.518  0.5160E+01  0.5440E+01
      2.609  0.0000E+00  0.5441E+01
      2.700  0.2570E+01  0.5675E+01
      2.791  0.5627E-13  0.5676E+01
      2.882  0.1293E+01  0.5794E+01
      2.973  0.2155E+01  0.5990E+01
      3.064  0.2586E+01  0.6225E+01
      3.155  0.3202E-02  0.6226E+01
      3.246  0.1290E+01  0.6343E+01
      3.337  0.6313E+00  0.6401E+01
      3.428  0.2586E+01  0.6637E+01
      3.519  0.1547E-04  0.6637E+01
      3.610  0.5046E+01  0.7096E+01
      3.701  0.0000E+00  0.7108E+01
      3.792  0.0000E+00  0.7108E+01
      3.883  0.0000E+00  0.7108E+01
      3.974  0.0000E+00  0.7108E+01
      4.065  0.1058E+00  0.7117E+01
      4.156  0.2483E+01  0.7343E+01
      4.247  0.2151E+01  0.7539E+01
      4.338  0.0000E+00  0.7539E+01
      4.429  0.1723E+01  0.7696E+01
      4.520  0.0000E+00  0.7696E+01
      4.611  0.0000E+00  0.7696E+01
      4.702  0.0000E+00  0.7696E+01
      4.793  0.0000E+00  0.7696E+01
      4.884  0.6894E+00  0.7759E+01
      4.975  0.1126E-10  0.7814E+01
      5.066  0.1724E+01  0.7971E+01
      5.157  0.0000E+00  0.7971E+01
      5.248  0.0000E+00  0.7971E+01
      5.339  0.0000E+00  0.7971E+01
      5.430  0.0000E+00  0.7971E+01
      5.521  0.3231E+00  0.8000E+01
      5.612  0.0000E+00  0.8000E+01
      5.703  0.0000E+00  0.8000E+01
      5.794  0.0000E+00  0.8000E+01
      5.885  0.0000E+00  0.8000E+01
      5.976  0.0000E+00  0.8000E+01
      6.067  0.0000E+00  0.8000E+01
      6.158  0.0000E+00  0.8000E+01
      6.249  0.0000E+00  0.8000E+01
      6.340  0.0000E+00  0.8000E+01
      6.431  0.0000E+00  0.8000E+01
      6.522  0.0000E+00  0.8000E+01
      6.613  0.0000E+00  0.8000E+01
      6.704  0.0000E+00  0.8000E+01
      6.795  0.6137E+00  0.8056E+01
      6.886  0.0000E+00  0.8118E+01
      6.976  0.0000E+00  0.8118E+01
      7.067  0.0000E+00  0.8118E+01
      7.158  0.2808E+00  0.8143E+01
      7.249  0.0000E+00  0.8353E+01
      7.340  0.0000E+00  0.8353E+01
      7.431  0.0000E+00  0.8353E+01
      7.522  0.0000E+00  0.8353E+01
      7.613  0.0000E+00  0.8353E+01
      7.704  0.5853E-01  0.8358E+01
      7.795  0.1666E+01  0.8510E+01
      7.886  0.6465E+00  0.8569E+01
      7.977  0.5455E+00  0.8618E+01
      8.068  0.2475E-12  0.8647E+01
      8.159  0.2938E+01  0.8914E+01
      8.250  0.2584E+01  0.9176E+01
      8.341  0.0000E+00  0.9176E+01
      8.432  0.0000E+00  0.9176E+01
      8.523  0.0000E+00  0.9176E+01
      8.614  0.8544E+00  0.9254E+01
      8.705  0.2550E+01  0.9487E+01
      8.796  0.1669E-01  0.9492E+01
      8.887  0.3066E+00  0.9520E+01
      8.978  0.2586E+01  0.9755E+01
      9.069  0.8586E+00  0.9833E+01
      9.160  0.0000E+00  0.9990E+01
      9.251  0.0000E+00  0.9990E+01
      9.342  0.6808E-02  0.9991E+01
      9.433  0.1286E+01  0.1011E+02
      9.524  0.1724E+01  0.1026E+02
      9.615  0.2610E+01  0.1050E+02
      9.706  0.8382E+00  0.1058E+02
      9.797  0.2770E-01  0.1058E+02
      9.888  0.4384E+01  0.1098E+02
      9.979  0.3856E+01  0.1133E+02
     10.070  0.6562E-02  0.1133E+02
     10.161  0.1286E+01  0.1145E+02
     10.252  0.0000E+00  0.1145E+02
     10.343  0.0000E+00  0.1145E+02
     10.434  0.5491E+01  0.1195E+02
     10.525  0.0000E+00  0.1216E+02
     10.616  0.3059E+01  0.1244E+02
     10.707  0.1288E+01  0.1274E+02
     10.798  0.1866E-14  0.1280E+02
     10.889  0.2586E+01  0.1304E+02
     10.980  0.1788E-02  0.1304E+02
     11.071  0.2584E+01  0.1327E+02
     11.162  0.0000E+00  0.1327E+02
     11.253  0.0000E+00  0.1327E+02
     11.344  0.0000E+00  0.1327E+02
     11.435  0.0000E+00  0.1327E+02
     11.526  0.2586E+01  0.1351E+02
     11.617  0.0000E+00  0.1351E+02
     11.708  0.0000E+00  0.1351E+02
     11.799  0.0000E+00  0.1351E+02
     11.890  0.1981E-13  0.1351E+02
     11.981  0.8620E+00  0.1359E+02
     12.072  0.2401E-08  0.1359E+02
     12.163  0.1314E+01  0.1371E+02
     12.254  0.1272E+01  0.1382E+02
     12.345  0.0000E+00  0.1382E+02
     12.436  0.0000E+00  0.1382E+02
     12.527  0.3964E-01  0.1383E+02
     12.618  0.2546E+01  0.1406E+02
     12.709  0.0000E+00  0.1406E+02
     12.800  0.0000E+00  0.1406E+02
     12.891  0.5958E-04  0.1406E+02
     12.981  0.2586E+01  0.1429E+02
     13.072  0.2443E+01  0.1452E+02
     13.163  0.0000E+00  0.1465E+02
     13.254  0.0000E+00  0.1465E+02
     13.345  0.0000E+00  0.1465E+02
     13.436  0.0000E+00  0.1465E+02
     13.527  0.0000E+00  0.1465E+02
     13.618  0.1374E-02  0.1465E+02
     13.709  0.3878E+01  0.1500E+02
     13.800  0.6334E-09  0.1500E+02
     13.891  0.3873E+01  0.1535E+02
     13.982  0.0000E+00  0.1535E+02
     14.073  0.2591E+01  0.1559E+02
     14.164  0.3010E+01  0.1586E+02
     14.255  0.0000E+00  0.1586E+02
     14.346  0.2884E+00  0.1589E+02
     14.437  0.0000E+00  0.1594E+02
     14.528  0.0000E+00  0.1594E+02
     14.619  0.0000E+00  0.1594E+02
     14.710  0.0000E+00  0.1594E+02
     14.801  0.0000E+00  0.1594E+02
     14.892  0.0000E+00  0.1594E+02
     14.983  0.0000E+00  0.1594E+02
     15.074  0.0000E+00  0.1594E+02
     15.165  0.0000E+00  0.1594E+02
     15.256  0.0000E+00  0.1594E+02
     15.347  0.0000E+00  0.1594E+02
     15.438  0.0000E+00  0.1594E+02
     15.529  0.0000E+00  0.1594E+02
     15.620  0.0000E+00  0.1594E+02
     15.711  0.0000E+00  0.1594E+02
     15.802  0.0000E+00  0.1594E+02
     15.893  0.0000E+00  0.1594E+02
     15.984  0.0000E+00  0.1594E+02
     16.075  0.0000E+00  0.1594E+02
     16.166  0.0000E+00  0.1594E+02
     16.257  0.0000E+00  0.1594E+02
     16.348  0.0000E+00  0.1594E+02
     16.439  0.0000E+00  0.1594E+02
     16.530  0.0000E+00  0.1594E+02
     16.621  0.0000E+00  0.1594E+02
     16.712  0.0000E+00  0.1594E+02
     16.803  0.0000E+00  0.1594E+02
     16.894  0.0000E+00  0.1594E+02
     16.985  0.4433E+00  0.1598E+02
     17.076  0.0000E+00  0.1600E+02
     17.167  0.0000E+00  0.1600E+02
     17.258  0.0000E+00  0.1600E+02
     17.349  0.0000E+00  0.1600E+02
     17.440  0.0000E+00  0.1600E+02
     17.531  0.0000E+00  0.1600E+02
     17.622  0.0000E+00  0.1600E+02
     17.713  0.0000E+00  0.1600E+02
     17.804  0.0000E+00  0.1600E+02
     17.895  0.0000E+00  0.1600E+02
     17.986  0.0000E+00  0.1600E+02
     18.077  0.0000E+00  0.1600E+02
     18.168  0.0000E+00  0.1600E+02
     18.259  0.0000E+00  0.1600E+02
     18.25859608     -9.03680287  301      5.54348940      1.00000000
     -9.037  0.0000E+00  0.0000E+00  0.0000E+00
     -8.946  0.0000E+00  0.0000E+00  0.0000E+00
     -8.855  0.0000E+00  0.0000E+00  0.0000E+00
     -8.764  0.0000E+00  0.0000E+00  0.0000E+00
     -8.673  0.0000E+00  0.0000E+00  0.0000E+00
     -8.582  0.0000E+00  0.0000E+00  0.0000E+00
     -8.491  0.0000E+00  0.0000E+00  0.0000E+00
     -8.400  0.0000E+00  0.0000E+00  0.0000E+00
     -8.309  0.0000E+00  0.0000E+00  0.0000E+00
     -8.218  0.0000E+00  0.0000E+00  0.0000E+00
     -8.127  0.0000E+00  0.0000E+00  0.0000E+00
     -8.036  0.0000E+00  0.0000E+00  0.0000E+00
     -7.945  0.0000E+00  0.0000E+00  0.0000E+00
     -7.854  0.2626E-17  0.1506E-31  0.0000E+00
     -7.763  0.2365E-01  0.1356E-15  0.0000E+00
     -7.672  0.0000E+00  0.0000E+00  0.0000E+00
     -7.581  0.0000E+00  0.0000E+00  0.0000E+00
     -7.490  0.0000E+00  0.0000E+00  0.0000E+00
     -7.399  0.5727E-01  0.1039E-02  0.0000E+00
     -7.308  0.2787E-12  0.7004E-14  0.0000E+00
     -7.217  0.1401E+00  0.3520E-02  0.0000E+00
     -7.126  0.0000E+00  0.0000E+00  0.0000E+00
     -7.035  0.0000E+00  0.0000E+00  0.0000E+00
     -6.944  0.0000E+00  0.0000E+00  0.0000E+00
     -6.853  0.0000E+00  0.0000E+00  0.0000E+00
     -6.762  0.5906E-03  0.2763E-04  0.0000E+00
     -6.671  0.2776E+00  0.1299E-01  0.0000E+00
     -6.580  0.0000E+00  0.0000E+00  0.0000E+00
     -6.489  0.0000E+00  0.0000E+00  0.0000E+00
     -6.398  0.2921E-10  0.1884E-11  0.0000E+00
     -6.307  0.5525E+00  0.3565E-01  0.0000E+00
     -6.216  0.1864E+00  0.1124E-01  0.0000E+00
     -6.125  0.0000E+00  0.0000E+00  0.0000E+00
     -6.034  0.0000E+00  0.0000E+00  0.0000E+00
     -5.943  0.0000E+00  0.0000E+00  0.0000E+00
     -5.852  0.0000E+00  0.0000E+00  0.0000E+00
     -5.761  0.0000E+00  0.0000E+00  0.0000E+00
     -5.670  0.1191E+00  0.1217E-01  0.0000E+00
     -5.579  0.0000E+00  0.0000E+00  0.0000E+00
     -5.488  0.1935E-06  0.1697E-07  0.0000E+00
     -5.397  0.5609E+00  0.4919E-01  0.0000E+00
     -5.306  0.9115E-16  0.1004E-16  0.0000E+00
     -5.215  0.5489E+00  0.6037E-01  0.0000E+00
     -5.124  0.9757E-01  0.6061E-02  0.0000E+00
     -5.033  0.4038E-01  0.3638E-02  0.0000E+00
     -4.942  0.0000E+00  0.0000E+00  0.0000E+00
     -4.852  0.0000E+00  0.0000E+00  0.0000E+00
     -4.761  0.0000E+00  0.0000E+00  0.0000E+00
     -4.670  0.0000E+00  0.0000E+00  0.0000E+00
     -4.579  0.0000E+00  0.0000E+00  0.0000E+00
     -4.488  0.0000E+00  0.0000E+00  0.0000E+00
     -4.397  0.2884E-02  0.4479E-03  0.0000E+00
     -4.306  0.5337E+00  0.8289E-01  0.0000E+00
     -4.215  0.4546E-15  0.6047E-16  0.0000E+00
     -4.124  0.8505E+00  0.1111E+00  0.0000E+00
     -4.033  0.0000E+00  0.0000E+00  0.0000E+00
     -3.942  0.0000E+00  0.0000E+00  0.0000E+00
     -3.851  0.0000E+00  0.0000E+00  0.0000E+00
     -3.760  0.0000E+00  0.0000E+00  0.0000E+00
     -3.669  0.0000E+00  0.0000E+00  0.0000E+00
     -3.578  0.0000E+00  0.0000E+00  0.0000E+00
     -3.487  0.0000E+00  0.0000E+00  0.0000E+00
     -3.396  0.0000E+00  0.0000E+00  0.0000E+00
     -3.305  0.0000E+00  0.0000E+00  0.0000E+00
     -3.214  0.4346E-09  0.1036E-09  0.0000E+00
     -3.123  0.1271E+00  0.3030E-01  0.0000E+00
     -3.032  0.0000E+00  0.0000E+00  0.0000E+00
     -2.941  0.0000E+00  0.0000E+00  0.0000E+00
     -2.850  0.0000E+00  0.0000E+00  0.0000E+00
     -2.759  0.0000E+00  0.0000E+00  0.0000E+00
     -2.668  0.0000E+00  0.0000E+00  0.0000E+00
     -2.577  0.0000E+00  0.0000E+00  0.0000E+00
     -2.486  0.0000E+00  0.0000E+00  0.0000E+00
     -2.395  0.0000E+00  0.0000E+00  0.0000E+00
     -2.304  0.0000E+00  0.0000E+00  0.0000E+00
     -2.213  0.3761E-01  0.3631E-01  0.0000E+00
     -2.122  0.1112E-08  0.4580E-09  0.0000E+00
     -2.031  0.4329E+00  0.1783E+00  0.0000E+00
     -1.940  0.2298E+00  0.8421E-01  0.0000E+00
     -1.849  0.1692E-07  0.1234E-07  0.0000E+00
     -1.758  0.7628E+00  0.3817E+00  0.0000E+00
     -1.667  0.0000E+00  0.0000E+00  0.0000E+00
     -1.576  0.0000E+00  0.0000E+00  0.0000E+00
     -1.485  0.0000E+00  0.0000E+00  0.0000E+00
     -1.394  0.0000E+00  0.0000E+00  0.0000E+00
     -1.303  0.0000E+00  0.0000E+00  0.0000E+00
     -1.212  0.0000E+00  0.0000E+00  0.0000E+00
     -1.121  0.3227E+00  0.2362E+00  0.0000E+00
     -1.030  0.0000E+00  0.0000E+00  0.0000E+00
     -0.939  0.0000E+00  0.0000E+00  0.0000E+00
     -0.848  0.0000E+00  0.0000E+00  0.0000E+00
     -0.757  0.8630E-04  0.4025E-04  0.0000E+00
     -0.666  0.4395E+00  0.2050E+00  0.0000E+00
     -0.575  0.0000E+00  0.0000E+00  0.0000E+00
     -0.484  0.0000E+00  0.0000E+00  0.0000E+00
     -0.393  0.7960E-03  0.8044E-03  0.0000E+00
     -0.302  0.9004E-01  0.9099E-01  0.0000E+00
     -0.211  0.0000E+00  0.0000E+00  0.0000E+00
     -0.120  0.0000E+00  0.0000E+00  0.0000E+00
     -0.029  0.2690E-02  0.1271E-02  0.0000E+00
      0.062  0.1099E+00  0.5192E-01  0.0000E+00
      0.153  0.0000E+00  0.0000E+00  0.0000E+00
      0.244  0.0000E+00  0.0000E+00  0.0000E+00
      0.335  0.0000E+00  0.0000E+00  0.0000E+00
      0.426  0.0000E+00  0.0000E+00  0.0000E+00
      0.517  0.0000E+00  0.0000E+00  0.0000E+00
      0.608  0.1005E-03  0.8594E-04  0.0000E+00
      0.699  0.3301E+00  0.4788E+00  0.0000E+00
      0.790  0.0000E+00  0.0000E+00  0.0000E+00
      0.881  0.0000E+00  0.0000E+00  0.0000E+00
      0.972  0.0000E+00  0.0000E+00  0.0000E+00
      1.062  0.0000E+00  0.0000E+00  0.0000E+00
      1.153  0.4878E-01  0.3989E+00  0.0000E+00
      1.244  0.0000E+00  0.0000E+00  0.0000E+00
      1.335  0.0000E+00  0.0000E+00  0.0000E+00
      1.426  0.7754E-02  0.7587E-02  0.0000E+00
      1.517  0.1475E+00  0.1461E+00  0.0000E+00
      1.608  0.1939E-01  0.5195E+00  0.0000E+00
      1.699  0.0000E+00  0.0000E+00  0.0000E+00
      1.790  0.0000E+00  0.0000E+00  0.0000E+00
      1.881  0.0000E+00  0.0000E+00  0.0000E+00
      1.972  0.0000E+00  0.0000E+00  0.0000E+00
      2.063  0.0000E+00  0.0000E+00  0.0000E+00
      2.154  0.1834E-10  0.9184E-10  0.0000E+00
      2.245  0.8296E-01  0.4155E+00  0.0000E+00
      2.336  0.3577E-16  0.1094E-01  0.0000E+00
      2.427  0.0000E+00  0.0000E+00  0.0000E+00
      2.518  0.1033E+00  0.8890E+00  0.0000E+00
      2.609  0.0000E+00  0.0000E+00  0.0000E+00
      2.700  0.1230E-13  0.5157E+00  0.0000E+00
      2.791  0.1685E-27  0.1122E-13  0.0000E+00
      2.882  0.2575E-07  0.2579E+00  0.0000E+00
      2.973  0.7680E-01  0.3525E+00  0.0000E+00
      3.064  0.1106E-01  0.4875E+00  0.0000E+00
      3.155  0.7127E-17  0.6574E-03  0.0000E+00
      3.246  0.2871E-14  0.2648E+00  0.0000E+00
      3.337  0.7310E-01  0.8544E-01  0.0000E+00
      3.428  0.7889E-01  0.4531E+00  0.0000E+00
      3.519  0.5066E-18  0.3227E-05  0.0000E+00
      3.610  0.5932E-12  0.1040E+01  0.0000E+00
      3.701  0.0000E+00  0.0000E+00  0.0000E+00
      3.792  0.0000E+00  0.0000E+00  0.0000E+00
      3.883  0.0000E+00  0.0000E+00  0.0000E+00
      3.974  0.0000E+00  0.0000E+00  0.0000E+00
      4.065  0.4257E-13  0.2278E-01  0.0000E+00
      4.156  0.9974E-12  0.5344E+00  0.0000E+00
      4.247  0.6447E-13  0.4517E+00  0.0000E+00
      4.338  0.0000E+00  0.0000E+00  0.0000E+00
      4.429  0.1916E-13  0.3749E+00  0.0000E+00
      4.520  0.0000E+00  0.0000E+00  0.0000E+00
      4.611  0.0000E+00  0.0000E+00  0.0000E+00
      4.702  0.0000E+00  0.0000E+00  0.0000E+00
      4.793  0.0000E+00  0.0000E+00  0.0000E+00
      4.884  0.2403E-13  0.1529E+00  0.0000E+00
      4.975  0.4195E-25  0.2421E-11  0.0000E+00
      5.066  0.6422E-14  0.3707E+00  0.0000E+00
      5.157  0.0000E+00  0.0000E+00  0.0000E+00
      5.248  0.0000E+00  0.0000E+00  0.0000E+00
      5.339  0.0000E+00  0.0000E+00  0.0000E+00
      5.430  0.0000E+00  0.0000E+00  0.0000E+00
      5.521  0.1321E-13  0.7023E-01  0.0000E+00
      5.612  0.0000E+00  0.0000E+00  0.0000E+00
      5.703  0.0000E+00  0.0000E+00  0.0000E+00
      5.794  0.0000E+00  0.0000E+00  0.0000E+00
      5.885  0.0000E+00  0.0000E+00  0.0000E+00
      5.976  0.0000E+00  0.0000E+00  0.0000E+00
      6.067  0.0000E+00  0.0000E+00  0.0000E+00
      6.158  0.0000E+00  0.0000E+00  0.0000E+00
      6.249  0.0000E+00  0.0000E+00  0.0000E+00
      6.340  0.0000E+00  0.0000E+00  0.0000E+00
      6.431  0.0000E+00  0.0000E+00  0.0000E+00
      6.522  0.0000E+00  0.0000E+00  0.0000E+00
      6.613  0.0000E+00  0.0000E+00  0.0000E+00
      6.704  0.0000E+00  0.0000E+00  0.0000E+00
      6.795  0.3217E-01  0.2285E-01  0.0000E+00
      6.886  0.0000E+00  0.0000E+00  0.0000E+00
      6.976  0.0000E+00  0.0000E+00  0.0000E+00
      7.067  0.0000E+00  0.0000E+00  0.0000E+00
      7.158  0.1433E-01  0.1165E-01  0.0000E+00
      7.249  0.0000E+00  0.0000E+00  0.0000E+00
      7.340  0.0000E+00  0.0000E+00  0.0000E+00
      7.431  0.0000E+00  0.0000E+00  0.0000E+00
      7.522  0.0000E+00  0.0000E+00  0.0000E+00
      7.613  0.0000E+00  0.0000E+00  0.0000E+00
      7.704  0.3175E-02  0.2546E-02  0.0000E+00
      7.795  0.1483E+00  0.6128E-01  0.0000E+00
      7.886  0.1981E-01  0.6495E-01  0.0000E+00
      7.977  0.9494E-01  0.1655E-01  0.0000E+00
      8.068  0.1053E-13  0.2078E-13  0.0000E+00
      8.159  0.1254E+00  0.2271E+00  0.0000E+00
      8.250  0.1662E+00  0.1450E+00  0.0000E+00
      8.341  0.0000E+00  0.0000E+00  0.0000E+00
      8.432  0.0000E+00  0.0000E+00  0.0000E+00
      8.523  0.0000E+00  0.0000E+00  0.0000E+00
      8.614  0.1041E+00  0.6336E-01  0.0000E+00
      8.705  0.2077E+00  0.1547E+00  0.0000E+00
      8.796  0.1516E-13  0.2511E-02  0.0000E+00
      8.887  0.2365E-06  0.4611E-01  0.0000E+00
      8.978  0.8911E-01  0.1732E+00  0.0000E+00
      9.069  0.2634E-01  0.8305E-01  0.0000E+00
      9.160  0.0000E+00  0.0000E+00  0.0000E+00
      9.251  0.0000E+00  0.0000E+00  0.0000E+00
      9.342  0.6430E-03  0.6150E-03  0.0000E+00
      9.433  0.1215E+00  0.1162E+00  0.0000E+00
      9.524  0.6543E-12  0.2617E+00  0.0000E+00
      9.615  0.2063E-01  0.2084E+00  0.0000E+00
      9.706  0.1309E-12  0.7671E-01  0.0000E+00
      9.797  0.2104E-03  0.3028E-02  0.0000E+00
      9.888  0.2004E+00  0.4040E+00  0.0000E+00
      9.979  0.3822E-01  0.3325E+00  0.0000E+00
     10.070  0.2139E-03  0.7575E-03  0.0000E+00
     10.161  0.4194E-01  0.1485E+00  0.0000E+00
     10.252  0.0000E+00  0.0000E+00  0.0000E+00
     10.343  0.0000E+00  0.0000E+00  0.0000E+00
     10.434  0.3058E+00  0.4558E+00  0.0000E+00
     10.525  0.0000E+00  0.0000E+00  0.0000E+00
     10.616  0.3870E-01  0.3349E+00  0.0000E+00
     10.707  0.7361E-01  0.1426E+00  0.0000E+00
     10.798  0.6905E-16  0.1935E-15  0.0000E+00
     10.889  0.9568E-01  0.2682E+00  0.0000E+00
     10.980  0.4496E-15  0.1847E-03  0.0000E+00
     11.071  0.6499E-12  0.2669E+00  0.0000E+00
     11.162  0.0000E+00  0.0000E+00  0.0000E+00
     11.253  0.0000E+00  0.0000E+00  0.0000E+00
     11.344  0.0000E+00  0.0000E+00  0.0000E+00
     11.435  0.0000E+00  0.0000E+00  0.0000E+00
     11.526  0.1121E-09  0.3524E+00  0.0000E+00
     11.617  0.0000E+00  0.0000E+00  0.0000E+00
     11.708  0.0000E+00  0.0000E+00  0.0000E+00
     11.799  0.0000E+00  0.0000E+00  0.0000E+00
     11.890  0.3679E-14  0.2179E-14  0.0000E+00
     11.981  0.1601E+00  0.9480E-01  0.0000E+00
     12.072  0.1804E-09  0.2139E-09  0.0000E+00
     12.163  0.9725E-01  0.1167E+00  0.0000E+00
     12.254  0.5284E-02  0.8982E-01  0.0000E+00
     12.345  0.0000E+00  0.0000E+00  0.0000E+00
     12.436  0.0000E+00  0.0000E+00  0.0000E+00
     12.527  0.7513E-03  0.3080E-02  0.0000E+00
     12.618  0.4826E-01  0.1979E+00  0.0000E+00
     12.709  0.0000E+00  0.0000E+00  0.0000E+00
     12.800  0.0000E+00  0.0000E+00  0.0000E+00
     12.891  0.1391E-05  0.6024E-05  0.0000E+00
     12.981  0.6036E-01  0.2615E+00  0.0000E+00
     13.072  0.4103E-01  0.3284E+00  0.0000E+00
     13.163  0.0000E+00  0.0000E+00  0.0000E+00
     13.254  0.0000E+00  0.0000E+00  0.0000E+00
     13.345  0.0000E+00  0.0000E+00  0.0000E+00
     13.436  0.0000E+00  0.0000E+00  0.0000E+00
     13.527  0.0000E+00  0.0000E+00  0.0000E+00
     13.618  0.7278E-05  0.1976E-03  0.0000E+00
     13.709  0.8819E-01  0.5272E+00  0.0000E+00
     13.800  0.2054E-10  0.6698E-10  0.0000E+00
     13.891  0.8387E-01  0.4828E+00  0.0000E+00
     13.982  0.0000E+00  0.0000E+00  0.0000E+00
     14.073  0.3321E-03  0.3121E+00  0.0000E+00
     14.164  0.1161E+00  0.3741E+00  0.0000E+00
     14.255  0.0000E+00  0.0000E+00  0.0000E+00
     14.346  0.2944E-02  0.2958E-01  0.0000E+00
     14.437  0.0000E+00  0.0000E+00  0.0000E+00
     14.528  0.0000E+00  0.0000E+00  0.0000E+00
     14.619  0.0000E+00  0.0000E+00  0.0000E+00
     14.710  0.0000E+00  0.0000E+00  0.0000E+00
     14.801  0.0000E+00  0.0000E+00  0.0000E+00
     14.892  0.0000E+00  0.0000E+00  0.0000E+00
     14.983  0.0000E+00  0.0000E+00  0.0000E+00
     15.074  0.0000E+00  0.0000E+00  0.0000E+00
     15.165  0.0000E+00  0.0000E+00  0.0000E+00
     15.256  0.0000E+00  0.0000E+00  0.0000E+00
     15.347  0.0000E+00  0.0000E+00  0.0000E+00
     15.438  0.0000E+00  0.0000E+00  0.0000E+00
     15.529  0.0000E+00  0.0000E+00  0.0000E+00
     15.620  0.0000E+00  0.0000E+00  0.0000E+00
     15.711  0.0000E+00  0.0000E+00  0.0000E+00
     15.802  0.0000E+00  0.0000E+00  0.0000E+00
     15.893  0.0000E+00  0.0000E+00  0.0000E+00
     15.984  0.0000E+00  0.0000E+00  0.0000E+00
     16.075  0.0000E+00  0.0000E+00  0.0000E+00
     16.166  0.0000E+00  0.0000E+00  0.0000E+00
     16.257  0.0000E+00  0.0000E+00  0.0000E+00
     16.348  0.0000E+00  0.0000E+00  0.0000E+00
     16.439  0.0000E+00  0.0000E+00  0.0000E+00
     16.530  0.0000E+00  0.0000E+00  0.0000E+00
     16.621  0.0000E+00  0.0000E+00  0.0000E+00
     16.712  0.0000E+00  0.0000E+00  0.0000E+00
     16.803  0.0000E+00  0.0000E+00  0.0000E+00
     16.894  0.0000E+00  0.0000E+00  0.0000E+00
     16.985  0.8470E-06  0.1045E+00  0.0000E+00
     17.076  0.0000E+00  0.0000E+00  0.0000E+00
     17.167  0.0000E+00  0.0000E+00  0.0000E+00
     17.258  0.0000E+00  0.0000E+00  0.0000E+00
     17.349  0.0000E+00  0.0000E+00  0.0000E+00
     17.440  0.0000E+00  0.0000E+00  0.0000E+00
     17.531  0.0000E+00  0.0000E+00  0.0000E+00
     17.622  0.0000E+00  0.0000E+00  0.0000E+00
     17.713  0.0000E+00  0.0000E+00  0.0000E+00
     17.804  0.0000E+00  0.0000E+00  0.0000E+00
     17.895  0.0000E+00  0.0000E+00  0.0000E+00
     17.986  0.0000E+00  0.0000E+00  0.0000E+00
     18.077  0.0000E+00  0.0000E+00  0.0000E+00
     18.168  0.0000E+00  0.0000E+00  0.0000E+00
     18.259  0.0000E+00  0.0000E+00  0.0000E+00
     18.25859608     -9.03680287  301      5.54348940      1.00000000
     -9.037  0.0000E+00  0.0000E+00  0.0000E+00
     -8.946  0.0000E+00  0.0000E+00  0.0000E+00
     -8.855  0.0000E+00  0.0000E+00  0.0000E+00
     -8.764  0.0000E+00  0.0000E+00  0.0000E+00
     -8.673  0.0000E+00  0.0000E+00  0.0000E+00
     -8.582  0.0000E+00  0.0000E+00  0.0000E+00
     -8.491  0.0000E+00  0.0000E+00  0.0000E+00
     -8.400  0.0000E+00  0.0000E+00  0.0000E+00
     -8.309  0.0000E+00  0.0000E+00  0.0000E+00
     -8.218  0.0000E+00  0.0000E+00  0.0000E+00
     -8.127  0.0000E+00  0.0000E+00  0.0000E+00
     -8.036  0.0000E+00  0.0000E+00  0.0000E+00
     -7.945  0.0000E+00  0.0000E+00  0.0000E+00
     -7.854  0.2626E-17  0.2438E-31  0.0000E+00
     -7.763  0.2365E-01  0.2196E-15  0.0000E+00
     -7.672  0.0000E+00  0.0000E+00  0.0000E+00
     -7.581  0.0000E+00  0.0000E+00  0.0000E+00
     -7.490  0.0000E+00  0.0000E+00  0.0000E+00
     -7.399  0.5727E-01  0.1039E-02  0.0000E+00
     -7.308  0.2787E-12  0.7004E-14  0.0000E+00
     -7.217  0.1401E+00  0.3520E-02  0.0000E+00
     -7.126  0.0000E+00  0.0000E+00  0.0000E+00
     -7.035  0.0000E+00  0.0000E+00  0.0000E+00
     -6.944  0.0000E+00  0.0000E+00  0.0000E+00
     -6.853  0.0000E+00  0.0000E+00  0.0000E+00
     -6.762  0.5906E-03  0.2763E-04  0.0000E+00
     -6.671  0.2776E+00  0.1299E-01  0.0000E+00
     -6.580  0.0000E+00  0.0000E+00  0.0000E+00
     -6.489  0.0000E+00  0.0000E+00  0.0000E+00
     -6.398  0.2921E-10  0.1884E-11  0.0000E+00
     -6.307  0.5525E+00  0.3565E-01  0.0000E+00
     -6.216  0.1864E+00  0.1124E-01  0.0000E+00
     -6.125  0.0000E+00  0.0000E+00  0.0000E+00
     -6.034  0.0000E+00  0.0000E+00  0.0000E+00
     -5.943  0.0000E+00  0.0000E+00  0.0000E+00
     -5.852  0.0000E+00  0.0000E+00  0.0000E+00
     -5.761  0.0000E+00  0.0000E+00  0.0000E+00
     -5.670  0.1191E+00  0.1217E-01  0.0000E+00
     -5.579  0.0000E+00  0.0000E+00  0.0000E+00
     -5.488  0.1935E-06  0.1697E-07  0.0000E+00
     -5.397  0.5609E+00  0.4919E-01  0.0000E+00
     -5.306  0.9115E-16  0.1004E-16  0.0000E+00
     -5.215  0.5489E+00  0.6037E-01  0.0000E+00
     -5.124  0.9757E-01  0.6061E-02  0.0000E+00
     -5.033  0.4038E-01  0.3638E-02  0.0000E+00
     -4.942  0.0000E+00  0.0000E+00  0.0000E+00
     -4.852  0.0000E+00  0.0000E+00  0.0000E+00
     -4.761  0.0000E+00  0.0000E+00  0.0000E+00
     -4.670  0.0000E+00  0.0000E+00  0.0000E+00
     -4.579  0.0000E+00  0.0000E+00  0.0000E+00
     -4.488  0.0000E+00  0.0000E+00  0.0000E+00
     -4.397  0.2884E-02  0.4479E-03  0.0000E+00
     -4.306  0.5337E+00  0.8289E-01  0.0000E+00
     -4.215  0.4546E-15  0.6047E-16  0.0000E+00
     -4.124  0.8505E+00  0.1111E+00  0.0000E+00
     -4.033  0.0000E+00  0.0000E+00  0.0000E+00
     -3.942  0.0000E+00  0.0000E+00  0.0000E+00
     -3.851  0.0000E+00  0.0000E+00  0.0000E+00
     -3.760  0.0000E+00  0.0000E+00  0.0000E+00
     -3.669  0.0000E+00  0.0000E+00  0.0000E+00
     -3.578  0.0000E+00  0.0000E+00  0.0000E+00
     -3.487  0.0000E+00  0.0000E+00  0.0000E+00
     -3.396  0.0000E+00  0.0000E+00  0.0000E+00
     -3.305  0.0000E+00  0.0000E+00  0.0000E+00
     -3.214  0.4344E-09  0.1036E-09  0.0000E+00
     -3.123  0.1271E+00  0.3030E-01  0.0000E+00
     -3.032  0.0000E+00  0.0000E+00  0.0000E+00
     -2.941  0.0000E+00  0.0000E+00  0.0000E+00
     -2.850  0.0000E+00  0.0000E+00  0.0000E+00
     -2.759  0.0000E+00  0.0000E+00  0.0000E+00
     -2.668  0.0000E+00  0.0000E+00  0.0000E+00
     -2.577  0.0000E+00  0.0000E+00  0.0000E+00
     -2.486  0.0000E+00  0.0000E+00  0.0000E+00
     -2.395  0.0000E+00  0.0000E+00  0.0000E+00
     -2.304  0.0000E+00  0.0000E+00  0.0000E+00
     -2.213  0.3761E-01  0.3631E-01  0.0000E+00
     -2.122  0.1112E-08  0.4580E-09  0.0000E+00
     -2.031  0.4329E+00  0.1783E+00  0.0000E+00
     -1.940  0.2298E+00  0.8421E-01  0.0000E+00
     -1.849  0.1692E-07  0.1234E-07  0.0000E+00
     -1.758  0.7629E+00  0.3817E+00  0.0000E+00
     -1.667  0.0000E+00  0.0000E+00  0.0000E+00
     -1.576  0.0000E+00  0.0000E+00  0.0000E+00
     -1.485  0.0000E+00  0.0000E+00  0.0000E+00
     -1.394  0.0000E+00  0.0000E+00  0.0000E+00
     -1.303  0.0000E+00  0.0000E+00  0.0000E+00
     -1.212  0.0000E+00  0.0000E+00  0.0000E+00
     -1.121  0.3227E+00  0.2362E+00  0.0000E+00
     -1.030  0.0000E+00  0.0000E+00  0.0000E+00
     -0.939  0.0000E+00  0.0000E+00  0.0000E+00