 vasp.5.4.1 24Jun15 (build Nov 25 2015 16:01:35) complex                        
  
 executed on         CrayXC-Intel date 2016.06.03  06:49:34
 running on   96 total cores
 distrk:  each k-point on   24 cores,    4 groups
 distr:  one band on NCORES_PER_BAND=   6 cores,    4 groups


--------------------------------------------------------------------------------------------------------


 INCAR:
 POTCAR:    PAW_PBE Si 05Jan2001                  

 ----------------------------------------------------------------------------- 
|                                                                             |
|           W    W    AA    RRRRR   N    N  II  N    N   GGGG   !!!           |
|           W    W   A  A   R    R  NN   N  II  NN   N  G    G  !!!           |
|           W    W  A    A  R    R  N N  N  II  N N  N  G       !!!           |
|           W WW W  AAAAAA  RRRRR   N  N N  II  N  N N  G  GGG   !            |
|           WW  WW  A    A  R   R   N   NN  II  N   NN  G    G                |
|           W    W  A    A  R    R  N    N  II  N    N   GGGG   !!!           |
|                                                                             |
|      You have enabled k-point parallelism (KPAR>1).                         |
|      This developmental code was originally  written by Paul Kent at ORNL,  |
|      and carefully double checked in Vienna.                                |
|      GW as well as linear response parallelism added by Martijn Marsman     |
|      and Georg Kresse.                                                      |
|      Carefully verify results versus KPAR=1.                                |
|      Report problems to Paul Kent and Vienna.                               |
|                                                                             |
 ----------------------------------------------------------------------------- 


 ----------------------------------------------------------------------------- 
|                                                                             |
|           W    W    AA    RRRRR   N    N  II  N    N   GGGG   !!!           |
|           W    W   A  A   R    R  NN   N  II  NN   N  G    G  !!!           |
|           W    W  A    A  R    R  N N  N  II  N N  N  G       !!!           |
|           W WW W  AAAAAA  RRRRR   N  N N  II  N  N N  G  GGG   !            |
|           WW  WW  A    A  R   R   N   NN  II  N   NN  G    G                |
|           W    W  A    A  R    R  N    N  II  N    N   GGGG   !!!           |
|                                                                             |
|      You have selected ISYM=2 for HF type calculation. This will symmetrize |
|      the charge density but not the exchange potential.                     |
|      I suggest to use ISYM=3 instead. This uses symmetry to obtain          |
|      the orbitals at all k-points in the Brillouine zone, but does not      |
|      apply symmetry to the Hartree potential directly.                      |
|      The resultant charge might have lower symmetry than the crystal,       |
|      but at least, Hartree and exchange are fully compatible.               |
|                                                                             |
 ----------------------------------------------------------------------------- 

 POTCAR:    PAW_PBE Si 05Jan2001                  
   VRHFIN =Si: s2p2                                                             
   LEXCH  = PE                                                                  
   EATOM  =   103.0669 eV,    7.5752 Ry                                         
                                                                                
   TITEL  = PAW_PBE Si 05Jan2001                                                
   LULTRA =        F    use ultrasoft PP ?                                      
   IUNSCR =        1    unscreen: 0-lin 1-nonlin 2-no                           
   RPACOR =    1.500    partial core radius                                     
   POMASS =   28.085; ZVAL   =    4.000    mass and valenz                      
   RCORE  =    1.900    outmost cutoff radius                                   
   RWIGS  =    2.480; RWIGS  =    1.312    wigner-seitz radius (au A)           
   ENMAX  =  245.345; ENMIN  =  184.009 eV                                      
   ICORE  =        2    local potential                                         
   LCOR   =        T    correct aug charges                                     
   LPAW   =        T    paw PP                                                  
   EAUG   =  322.069                                                            
   DEXC   =    0.000                                                            
   RMAX   =    1.950    core radius for proj-oper                               
   RAUG   =    1.300    factor for augmentation sphere                          
   RDEP   =    1.993    radius for radial grids                                 
   RDEPT  =    1.837    core radius for aug-charge                              
                                                                                
   Atomic configuration                                                         
    6 entries                                                                   
     n  l   j            E        occ.                                          
     1  0  0.50     -1785.8828   2.0000                                         
     2  0  0.50      -139.4969   2.0000                                         
     2  1  1.50       -95.5546   6.0000                                         
     3  0  0.50       -10.8127   2.0000                                         
     3  1  0.50        -4.0811   2.0000                                         
     3  2  1.50        -4.0817   0.0000                                         
   Description                                                                  
     l       E           TYP  RCUT    TYP  RCUT                                 
     0    -10.8127223     23  1.900                                             
     0     -7.6451159     23  1.900                                             
     1     -4.0811372     23  1.900                                             
     1      2.4879257     23  1.900                                             
     2     -4.0817478      7  1.900                                             
  local pseudopotential read in
  partial core-charges read in
  partial kinetic energy density read in
  atomic valenz-charges read in
  non local Contribution for L=           0  read in
    real space projection operators read in
  non local Contribution for L=           0  read in
    real space projection operators read in
  non local Contribution for L=           1  read in
    real space projection operators read in
  non local Contribution for L=           1  read in
    real space projection operators read in
    PAW grid and wavefunctions read in
 
   number of l-projection  operators is LMAX  =           4
   number of lm-projection operators is LMMAX =           8
 
  PAW_PBE Si 05Jan2001                  :
 energy of atom  1       EATOM= -103.0669
 kinetic energy error for atom=    0.0006 (will be added to EATOM!!)
 
 
 POSCAR: Si (Madelung Handbook, 295.7K)          
  positions in direct lattice
  velocities in cartesian coordinates
 exchange correlation table for  LEXCH =        8
   RHO(1)=    0.500       N(1)  =     2000
   RHO(2)=  100.500       N(2)  =     4000
 


--------------------------------------------------------------------------------------------------------


 ion  position               nearest neighbor table
   1  0.000  0.000  0.000-   2 2.35   2 2.35   2 2.35   2 2.35
   2  0.250  0.250  0.250-   1 2.35   1 2.35   1 2.35   1 2.35
 
  LATTYP: Found a face centered cubic cell.
 ALAT       =     5.4310000000
  
  Lattice vectors:
  
 A1 = (   2.7155000000,   2.7155000000,   0.0000000000)
 A2 = (   2.7155000000,   0.0000000000,  -2.7155000000)
 A3 = (   0.0000000000,   2.7155000000,  -2.7155000000)


Analysis of symmetry for initial positions (statically):
=====================================================================
 Subroutine PRICEL returns:
 Original cell was already a primitive cell.
 

 Routine SETGRP: Setting up the symmetry group for a 
 face centered cubic supercell.


 Subroutine GETGRP returns: Found 48 space group operations
 (whereof 24 operations were pure point group operations)
 out of a pool of 48 trial point group operations.


The static configuration has the point symmetry T_d .
 The point group associated with its full space group is O_h .


Analysis of symmetry for dynamics (positions and initial velocities):
=====================================================================
 Subroutine PRICEL returns:
 Original cell was already a primitive cell.
 

 Routine SETGRP: Setting up the symmetry group for a 
 face centered cubic supercell.


 Subroutine GETGRP returns: Found 48 space group operations
 (whereof 24 operations were pure point group operations)
 out of a pool of 48 trial point group operations.


The dynamic configuration has the point symmetry T_d .
 The point group associated with its full space group is O_h .


 Subroutine INISYM returns: Found 48 space group operations
 (whereof 24 operations are pure point group operations),
 and found     1 'primitive' translations

 
 
 KPOINTS: Automatically generated mesh: SCF=15, 0.
  k-points in reciprocal lattice
Space group operators:
 irot       det(A)        alpha          n_x          n_y          n_z        tau_x        tau_y        tau_z
    1     1.000000     0.000001     1.000000     0.000000     0.000000     0.000000     0.000000     0.000000
    2     1.000000   120.000000    -0.577350    -0.577350     0.577350     0.000000     0.000000     0.000000
    3     1.000000   120.000000     0.577350     0.577350    -0.577350     0.000000     0.000000     0.000000
    4    -1.000000    90.000000    -1.000000     0.000000     0.000000     0.000000     0.000000     0.000000
    5    -1.000000   180.000000     0.707107     0.707107     0.000000     0.000000     0.000000     0.000000
    6    -1.000000    90.000000     0.000000     1.000000     0.000000     0.000000     0.000000     0.000000
    7     1.000000   180.000000     1.000000     0.000000     0.000000     0.000000     0.000000     0.000000
    8     1.000000   120.000000     0.577350     0.577350     0.577350     0.000000     0.000000     0.000000
    9     1.000000   120.000000    -0.577350     0.577350     0.577350     0.000000     0.000000     0.000000
   10    -1.000000    90.000000     1.000000     0.000000     0.000000     0.000000     0.000000     0.000000
   11    -1.000000    90.000000     0.000000     0.000000     1.000000     0.000000     0.000000     0.000000
   12    -1.000000   180.000000     0.707107     0.000000    -0.707107     0.000000     0.000000     0.000000
   13     1.000000   120.000000     0.577350    -0.577350    -0.577350     0.000000     0.000000     0.000000
   14     1.000000   120.000000     0.577350    -0.577350     0.577350     0.000000     0.000000     0.000000
   15     1.000000   180.000000     0.000000     0.000000     1.000000     0.000000     0.000000     0.000000
   16    -1.000000    90.000000     0.000000    -1.000000     0.000000     0.000000     0.000000     0.000000
   17    -1.000000   180.000000     0.000000    -0.707107     0.707107     0.000000     0.000000     0.000000
   18    -1.000000    90.000000     0.000000     0.000000    -1.000000     0.000000     0.000000     0.000000
   19     1.000000   120.000000    -0.577350    -0.577350    -0.577350     0.000000     0.000000     0.000000
   20     1.000000   180.000000     0.000000     1.000000     0.000000     0.000000     0.000000     0.000000
   21     1.000000   120.000000    -0.577350     0.577350    -0.577350     0.000000     0.000000     0.000000
   22    -1.000000   180.000000     0.707107    -0.707107     0.000000     0.000000     0.000000     0.000000
   23    -1.000000   180.000000     0.000000     0.707107     0.707107     0.000000     0.000000     0.000000
   24    -1.000000   180.000000     0.707107     0.000000     0.707107     0.000000     0.000000     0.000000
   25    -1.000000     0.000001     1.000000     0.000000     0.000000     0.250000     0.250000     0.250000
   26    -1.000000   120.000000    -0.577350    -0.577350     0.577350     0.250000     0.250000     0.250000
   27    -1.000000   120.000000     0.577350     0.577350    -0.577350     0.250000     0.250000     0.250000
   28     1.000000    90.000000    -1.000000     0.000000     0.000000     0.250000     0.250000     0.250000
   29     1.000000   180.000000     0.707107     0.707107     0.000000     0.250000     0.250000     0.250000
   30     1.000000    90.000000     0.000000     1.000000     0.000000     0.250000     0.250000     0.250000
   31    -1.000000   180.000000     1.000000     0.000000     0.000000     0.250000     0.250000     0.250000
   32    -1.000000   120.000000     0.577350     0.577350     0.577350     0.250000     0.250000     0.250000
   33    -1.000000   120.000000    -0.577350     0.577350     0.577350     0.250000     0.250000     0.250000
   34     1.000000    90.000000     1.000000     0.000000     0.000000     0.250000     0.250000     0.250000
   35     1.000000    90.000000     0.000000     0.000000     1.000000     0.250000     0.250000     0.250000
   36     1.000000   180.000000     0.707107     0.000000    -0.707107     0.250000     0.250000     0.250000
   37    -1.000000   120.000000     0.577350    -0.577350    -0.577350     0.250000     0.250000     0.250000
   38    -1.000000   120.000000     0.577350    -0.577350     0.577350     0.250000     0.250000     0.250000
   39    -1.000000   180.000000     0.000000     0.000000     1.000000     0.250000     0.250000     0.250000
   40     1.000000    90.000000     0.000000    -1.000000     0.000000     0.250000     0.250000     0.250000
   41     1.000000   180.000000     0.000000    -0.707107     0.707107     0.250000     0.250000     0.250000
   42     1.000000    90.000000     0.000000     0.000000    -1.000000     0.250000     0.250000     0.250000
   43    -1.000000   120.000000    -0.577350    -0.577350    -0.577350     0.250000     0.250000     0.250000
   44    -1.000000   180.000000     0.000000     1.000000     0.000000     0.250000     0.250000     0.250000
   45    -1.000000   120.000000    -0.577350     0.577350    -0.577350     0.250000     0.250000     0.250000
   46     1.000000   180.000000     0.707107    -0.707107     0.000000     0.250000     0.250000     0.250000
   47     1.000000   180.000000     0.000000     0.707107     0.707107     0.250000     0.250000     0.250000
   48     1.000000   180.000000     0.707107     0.000000     0.707107     0.250000     0.250000     0.250000

 ----------------------------------------------------------------------------- 
|                                                                             |
|           W    W    AA    RRRRR   N    N  II  N    N   GGGG   !!!           |
|           W    W   A  A   R    R  NN   N  II  NN   N  G    G  !!!           |
|           W    W  A    A  R    R  N N  N  II  N N  N  G       !!!           |
|           W WW W  AAAAAA  RRRRR   N  N N  II  N  N N  G  GGG   !            |
|           WW  WW  A    A  R   R   N   NN  II  N   NN  G    G                |
|           W    W  A    A  R    R  N    N  II  N    N   GGGG   !!!           |
|                                                                             |
|      Your generating k-point grid is not commensurate to the symmetry       |
|      of the lattice.  This can cause   slow convergence with respect        |
|      to k-points for HF type calculations                                   |
|      suggested SOLUTIONS:                                                   |
|       ) if not already the case, use automatic k-point generation           |
|       ) shift your grid to Gamma (G) (e.g. required for hex or fcc lattice) |
|                                                                             |
 ----------------------------------------------------------------------------- 

 
 Subroutine IBZKPT_HF returns following result:
 ==============================================
 
 Found   1391 k-points in 1st BZ
 the following   1391 k-points will be used (e.g. in the exchange kernel)
 Following reciprocal coordinates:   # in IRBZ
  0.000000  0.000000  0.000000    0.00490196   1 t-inv F
  0.166667  0.000000  0.000000    0.00490196   2 t-inv F
  0.333333  0.000000  0.000000    0.00490196   3 t-inv F
  0.500000  0.000000  0.000000    0.00490196   4 t-inv F
  0.166667  0.166667  0.000000    0.00490196   5 t-inv F
  0.333333  0.166667  0.000000    0.00490196   6 t-inv F
  0.500000  0.166667  0.000000    0.00490196   7 t-inv F
 -0.333333  0.166667  0.000000    0.00490196   8 t-inv F
 -0.166667  0.166667  0.000000    0.00490196   9 t-inv F
  0.333333  0.333333  0.000000    0.00490196  10 t-inv F
  0.500000  0.333333  0.000000    0.00490196  11 t-inv F
 -0.333333  0.333333  0.000000    0.00490196  12 t-inv F
  0.500000  0.500000  0.000000    0.00490196  13 t-inv F
  0.500000  0.333333  0.166667    0.00490196  14 t-inv F
 -0.333333  0.333333  0.166667    0.00490196  15 t-inv F
  0.000000  0.000000  0.000000    0.00000000  16 t-inv F
  0.001761  0.000000  0.001761    0.00000000  17 t-inv F
  0.003521  0.000000  0.003521    0.00000000  18 t-inv F
  0.005282  0.000000  0.005282    0.00000000  19 t-inv F
  0.007042  0.000000  0.007042    0.00000000  20 t-inv F
  0.008803  0.000000  0.008803    0.00000000  21 t-inv F
  0.010563  0.000000  0.010563    0.00000000  22 t-inv F
  0.012324  0.000000  0.012324    0.00000000  23 t-inv F
  0.014085  0.000000  0.014085    0.00000000  24 t-inv F
  0.015845  0.000000  0.015845    0.00000000  25 t-inv F
  0.017606  0.000000  0.017606    0.00000000  26 t-inv F
  0.019366  0.000000  0.019366    0.00000000  27 t-inv F
  0.021127  0.000000  0.021127    0.00000000  28 t-inv F
  0.022887  0.000000  0.022887    0.00000000  29 t-inv F
  0.024648  0.000000  0.024648    0.00000000  30 t-inv F
  0.026408  0.000000  0.026408    0.00000000  31 t-inv F
  0.028169  0.000000  0.028169    0.00000000  32 t-inv F
  0.029930  0.000000  0.029930    0.00000000  33 t-inv F
  0.031690  0.000000  0.031690    0.00000000  34 t-inv F
  0.033451  0.000000  0.033451    0.00000000  35 t-inv F
  0.035211  0.000000  0.035211    0.00000000  36 t-inv F
  0.036972  0.000000  0.036972    0.00000000  37 t-inv F
  0.038732  0.000000  0.038732    0.00000000  38 t-inv F
  0.040493  0.000000  0.040493    0.00000000  39 t-inv F
  0.042254  0.000000  0.042254    0.00000000  40 t-inv F
  0.044014  0.000000  0.044014    0.00000000  41 t-inv F
  0.045775  0.000000  0.045775    0.00000000  42 t-inv F
  0.047535  0.000000  0.047535    0.00000000  43 t-inv F
  0.049296  0.000000  0.049296    0.00000000  44 t-inv F
  0.051056  0.000000  0.051056    0.00000000  45 t-inv F
  0.052817  0.000000  0.052817    0.00000000  46 t-inv F
  0.054577  0.000000  0.054577    0.00000000  47 t-inv F
  0.056338  0.000000  0.056338    0.00000000  48 t-inv F
  0.058099  0.000000  0.058099    0.00000000  49 t-inv F
  0.059859  0.000000  0.059859    0.00000000  50 t-inv F
  0.061620  0.000000  0.061620    0.00000000  51 t-inv F
  0.063380  0.000000  0.063380    0.00000000  52 t-inv F
  0.065141  0.000000  0.065141    0.00000000  53 t-inv F
  0.066901  0.000000  0.066901    0.00000000  54 t-inv F
  0.068662  0.000000  0.068662    0.00000000  55 t-inv F
  0.070423  0.000000  0.070423    0.00000000  56 t-inv F
  0.072183  0.000000  0.072183    0.00000000  57 t-inv F
  0.073944  0.000000  0.073944    0.00000000  58 t-inv F
  0.075704  0.000000  0.075704    0.00000000  59 t-inv F
  0.077465  0.000000  0.077465    0.00000000  60 t-inv F
  0.079225  0.000000  0.079225    0.00000000  61 t-inv F
  0.080986  0.000000  0.080986    0.00000000  62 t-inv F
  0.082746  0.000000  0.082746    0.00000000  63 t-inv F
  0.084507  0.000000  0.084507    0.00000000  64 t-inv F
  0.086268  0.000000  0.086268    0.00000000  65 t-inv F
  0.088028  0.000000  0.088028    0.00000000  66 t-inv F
  0.089789  0.000000  0.089789    0.00000000  67 t-inv F
  0.091549  0.000000  0.091549    0.00000000  68 t-inv F
  0.093310  0.000000  0.093310    0.00000000  69 t-inv F
  0.095070  0.000000  0.095070    0.00000000  70 t-inv F
  0.096831  0.000000  0.096831    0.00000000  71 t-inv F
  0.098592  0.000000  0.098592    0.00000000  72 t-inv F
  0.100352  0.000000  0.100352    0.00000000  73 t-inv F
  0.102113  0.000000  0.102113    0.00000000  74 t-inv F
  0.103873  0.000000  0.103873    0.00000000  75 t-inv F
  0.105634  0.000000  0.105634    0.00000000  76 t-inv F
  0.107394  0.000000  0.107394    0.00000000  77 t-inv F
  0.109155  0.000000  0.109155    0.00000000  78 t-inv F
  0.110916  0.000000  0.110916    0.00000000  79 t-inv F
  0.112676  0.000000  0.112676    0.00000000  80 t-inv F
  0.114437  0.000000  0.114437    0.00000000  81 t-inv F
  0.116197  0.000000  0.116197    0.00000000  82 t-inv F
  0.117958  0.000000  0.117958    0.00000000  83 t-inv F
  0.119718  0.000000  0.119718    0.00000000  84 t-inv F
  0.121479  0.000000  0.121479    0.00000000  85 t-inv F
  0.123239  0.000000  0.123239    0.00000000  86 t-inv F
  0.125000  0.000000  0.125000    0.00000000  87 t-inv F
  0.126761  0.000000  0.126761    0.00000000  88 t-inv F
  0.128521  0.000000  0.128521    0.00000000  89 t-inv F
  0.130282  0.000000  0.130282    0.00000000  90 t-inv F
  0.132042  0.000000  0.132042    0.00000000  91 t-inv F
  0.133803  0.000000  0.133803    0.00000000  92 t-inv F
  0.135563  0.000000  0.135563    0.00000000  93 t-inv F
  0.137324  0.000000  0.137324    0.00000000  94 t-inv F
  0.139085  0.000000  0.139085    0.00000000  95 t-inv F
  0.140845  0.000000  0.140845    0.00000000  96 t-inv F
  0.142606  0.000000  0.142606    0.00000000  97 t-inv F
  0.144366  0.000000  0.144366    0.00000000  98 t-inv F
  0.146127  0.000000  0.146127    0.00000000  99 t-inv F
  0.147887  0.000000  0.147887    0.00000000 100 t-inv F
  0.149648  0.000000  0.149648    0.00000000 101 t-inv F
  0.151408  0.000000  0.151408    0.00000000 102 t-inv F
  0.153169  0.000000  0.153169    0.00000000 103 t-inv F
  0.154930  0.000000  0.154930    0.00000000 104 t-inv F
  0.156690  0.000000  0.156690    0.00000000 105 t-inv F
  0.158451  0.000000  0.158451    0.00000000 106 t-inv F
  0.160211  0.000000  0.160211    0.00000000 107 t-inv F
  0.161972  0.000000  0.161972    0.00000000 108 t-inv F
  0.163732  0.000000  0.163732    0.00000000 109 t-inv F
  0.165493  0.000000  0.165493    0.00000000 110 t-inv F
  0.167254  0.000000  0.167254    0.00000000 111 t-inv F
  0.169014  0.000000  0.169014    0.00000000 112 t-inv F
  0.170775  0.000000  0.170775    0.00000000 113 t-inv F
  0.172535  0.000000  0.172535    0.00000000 114 t-inv F
  0.174296  0.000000  0.174296    0.00000000 115 t-inv F
  0.176056  0.000000  0.176056    0.00000000 116 t-inv F
  0.177817  0.000000  0.177817    0.00000000 117 t-inv F
  0.179577  0.000000  0.179577    0.00000000 118 t-inv F
  0.181338  0.000000  0.181338    0.00000000 119 t-inv F
  0.183099  0.000000  0.183099    0.00000000 120 t-inv F
  0.184859  0.000000  0.184859    0.00000000 121 t-inv F
  0.186620  0.000000  0.186620    0.00000000 122 t-inv F
  0.188380  0.000000  0.188380    0.00000000 123 t-inv F
  0.190141  0.000000  0.190141    0.00000000 124 t-inv F
  0.191901  0.000000  0.191901    0.00000000 125 t-inv F
  0.193662  0.000000  0.193662    0.00000000 126 t-inv F
  0.195423  0.000000  0.195423    0.00000000 127 t-inv F
  0.197183  0.000000  0.197183    0.00000000 128 t-inv F
  0.198944  0.000000  0.198944    0.00000000 129 t-inv F
  0.200704  0.000000  0.200704    0.00000000 130 t-inv F
  0.202465  0.000000  0.202465    0.00000000 131 t-inv F
  0.204225  0.000000  0.204225    0.00000000 132 t-inv F
  0.205986  0.000000  0.205986    0.00000000 133 t-inv F
  0.207746  0.000000  0.207746    0.00000000 134 t-inv F
  0.209507  0.000000  0.209507    0.00000000 135 t-inv F
  0.211268  0.000000  0.211268    0.00000000 136 t-inv F
  0.213028  0.000000  0.213028    0.00000000 137 t-inv F
  0.214789  0.000000  0.214789    0.00000000 138 t-inv F
  0.216549  0.000000  0.216549    0.00000000 139 t-inv F
  0.218310  0.000000  0.218310    0.00000000 140 t-inv F
  0.220070  0.000000  0.220070    0.00000000 141 t-inv F
  0.221831  0.000000  0.221831    0.00000000 142 t-inv F
  0.223592  0.000000  0.223592    0.00000000 143 t-inv F
  0.225352  0.000000  0.225352    0.00000000 144 t-inv F
  0.227113  0.000000  0.227113    0.00000000 145 t-inv F
  0.228873  0.000000  0.228873    0.00000000 146 t-inv F
  0.230634  0.000000  0.230634    0.00000000 147 t-inv F
  0.232394  0.000000  0.232394    0.00000000 148 t-inv F
  0.234155  0.000000  0.234155    0.00000000 149 t-inv F
  0.235916  0.000000  0.235916    0.00000000 150 t-inv F
  0.237676  0.000000  0.237676    0.00000000 151 t-inv F
  0.239437  0.000000  0.239437    0.00000000 152 t-inv F
  0.241197  0.000000  0.241197    0.00000000 153 t-inv F
  0.242958  0.000000  0.242958    0.00000000 154 t-inv F
  0.244718  0.000000  0.244718    0.00000000 155 t-inv F
  0.246479  0.000000  0.246479    0.00000000 156 t-inv F
  0.248239  0.000000  0.248239    0.00000000 157 t-inv F
  0.250000  0.000000  0.250000    0.00000000 158 t-inv F
  0.251761  0.000000  0.251761    0.00000000 159 t-inv F
  0.253521  0.000000  0.253521    0.00000000 160 t-inv F
  0.255282  0.000000  0.255282    0.00000000 161 t-inv F
  0.257042  0.000000  0.257042    0.00000000 162 t-inv F
  0.258803  0.000000  0.258803    0.00000000 163 t-inv F
  0.260563  0.000000  0.260563    0.00000000 164 t-inv F
  0.262324  0.000000  0.262324    0.00000000 165 t-inv F
  0.264085  0.000000  0.264085    0.00000000 166 t-inv F
  0.265845  0.000000  0.265845    0.00000000 167 t-inv F
  0.267606  0.000000  0.267606    0.00000000 168 t-inv F
  0.269366  0.000000  0.269366    0.00000000 169 t-inv F
  0.271127  0.000000  0.271127    0.00000000 170 t-inv F
  0.272887  0.000000  0.272887    0.00000000 171 t-inv F
  0.274648  0.000000  0.274648    0.00000000 172 t-inv F
  0.276408  0.000000  0.276408    0.00000000 173 t-inv F
  0.278169  0.000000  0.278169    0.00000000 174 t-inv F
  0.279930  0.000000  0.279930    0.00000000 175 t-inv F
  0.281690  0.000000  0.281690    0.00000000 176 t-inv F
  0.283451  0.000000  0.283451    0.00000000 177 t-inv F
  0.285211  0.000000  0.285211    0.00000000 178 t-inv F
  0.286972  0.000000  0.286972    0.00000000 179 t-inv F
  0.288732  0.000000  0.288732    0.00000000 180 t-inv F
  0.290493  0.000000  0.290493    0.00000000 181 t-inv F
  0.292254  0.000000  0.292254    0.00000000 182 t-inv F
  0.294014  0.000000  0.294014    0.00000000 183 t-inv F
  0.295775  0.000000  0.295775    0.00000000 184 t-inv F
  0.297535  0.000000  0.297535    0.00000000 185 t-inv F
  0.299296  0.000000  0.299296    0.00000000 186 t-inv F
  0.301056  0.000000  0.301056    0.00000000 187 t-inv F
  0.302817  0.000000  0.302817    0.00000000 188 t-inv F
  0.304577  0.000000  0.304577    0.00000000 189 t-inv F
  0.306338  0.000000  0.306338    0.00000000 190 t-inv F
  0.308099  0.000000  0.308099    0.00000000 191 t-inv F
  0.309859  0.000000  0.309859    0.00000000 192 t-inv F
  0.311620  0.000000  0.311620    0.00000000 193 t-inv F
  0.313380  0.000000  0.313380    0.00000000 194 t-inv F
  0.315141  0.000000  0.315141    0.00000000 195 t-inv F
  0.316901  0.000000  0.316901    0.00000000 196 t-inv F
  0.318662  0.000000  0.318662    0.00000000 197 t-inv F
  0.320423  0.000000  0.320423    0.00000000 198 t-inv F
  0.322183  0.000000  0.322183    0.00000000 199 t-inv F
  0.323944  0.000000  0.323944    0.00000000 200 t-inv F
  0.325704  0.000000  0.325704    0.00000000 201 t-inv F
  0.327465  0.000000  0.327465    0.00000000 202 t-inv F
  0.329225  0.000000  0.329225    0.00000000 203 t-inv F
  0.330986  0.000000  0.330986    0.00000000 204 t-inv F
  0.332746  0.000000  0.332746    0.00000000 205 t-inv F
  0.334507  0.000000  0.334507    0.00000000 206 t-inv F
  0.336268  0.000000  0.336268    0.00000000 207 t-inv F
  0.338028  0.000000  0.338028    0.00000000 208 t-inv F
  0.339789  0.000000  0.339789    0.00000000 209 t-inv F
  0.341549  0.000000  0.341549    0.00000000 210 t-inv F
  0.343310  0.000000  0.343310    0.00000000 211 t-inv F
  0.345070  0.000000  0.345070    0.00000000 212 t-inv F
  0.346831  0.000000  0.346831    0.00000000 213 t-inv F
  0.348592  0.000000  0.348592    0.00000000 214 t-inv F
  0.350352  0.000000  0.350352    0.00000000 215 t-inv F
  0.352113  0.000000  0.352113    0.00000000 216 t-inv F
  0.353873  0.000000  0.353873    0.00000000 217 t-inv F
  0.355634  0.000000  0.355634    0.00000000 218 t-inv F
  0.357394  0.000000  0.357394    0.00000000 219 t-inv F
  0.359155  0.000000  0.359155    0.00000000 220 t-inv F
  0.360916  0.000000  0.360916    0.00000000 221 t-inv F
  0.362676  0.000000  0.362676    0.00000000 222 t-inv F
  0.364437  0.000000  0.364437    0.00000000 223 t-inv F
  0.366197  0.000000  0.366197    0.00000000 224 t-inv F
  0.367958  0.000000  0.367958    0.00000000 225 t-inv F
  0.369718  0.000000  0.369718    0.00000000 226 t-inv F
  0.371479  0.000000  0.371479    0.00000000 227 t-inv F
  0.373239  0.000000  0.373239    0.00000000 228 t-inv F
  0.375000  0.000000  0.375000    0.00000000 229 t-inv F
  0.376761  0.000000  0.376761    0.00000000 230 t-inv F
  0.378521  0.000000  0.378521    0.00000000 231 t-inv F
  0.380282  0.000000  0.380282    0.00000000 232 t-inv F
  0.382042  0.000000  0.382042    0.00000000 233 t-inv F
  0.383803  0.000000  0.383803    0.00000000 234 t-inv F
  0.385563  0.000000  0.385563    0.00000000 235 t-inv F
  0.387324  0.000000  0.387324    0.00000000 236 t-inv F
  0.389085  0.000000  0.389085    0.00000000 237 t-inv F
  0.390845  0.000000  0.390845    0.00000000 238 t-inv F
  0.392606  0.000000  0.392606    0.00000000 239 t-inv F
  0.394366  0.000000  0.394366    0.00000000 240 t-inv F
  0.396127  0.000000  0.396127    0.00000000 241 t-inv F
  0.397887  0.000000  0.397887    0.00000000 242 t-inv F
  0.399648  0.000000  0.399648    0.00000000 243 t-inv F
  0.401408  0.000000  0.401408    0.00000000 244 t-inv F
  0.403169  0.000000  0.403169    0.00000000 245 t-inv F
  0.404930  0.000000  0.404930    0.00000000 246 t-inv F
  0.406690  0.000000  0.406690    0.00000000 247 t-inv F
  0.408451  0.000000  0.408451    0.00000000 248 t-inv F
  0.410211  0.000000  0.410211    0.00000000 249 t-inv F
  0.411972  0.000000  0.411972    0.00000000 250 t-inv F
  0.413732  0.000000  0.413732    0.00000000 251 t-inv F
  0.415493  0.000000  0.415493    0.00000000 252 t-inv F
  0.417254  0.000000  0.417254    0.00000000 253 t-inv F
  0.419014  0.000000  0.419014    0.00000000 254 t-inv F
  0.420775  0.000000  0.420775    0.00000000 255 t-inv F
  0.422535  0.000000  0.422535    0.00000000 256 t-inv F
  0.424296  0.000000  0.424296    0.00000000 257 t-inv F
  0.426056  0.000000  0.426056    0.00000000 258 t-inv F
  0.427817  0.000000  0.427817    0.00000000 259 t-inv F
  0.429577  0.000000  0.429577    0.00000000 260 t-inv F
  0.431338  0.000000  0.431338    0.00000000 261 t-inv F
  0.433099  0.000000  0.433099    0.00000000 262 t-inv F
  0.434859  0.000000  0.434859    0.00000000 263 t-inv F
  0.436620  0.000000  0.436620    0.00000000 264 t-inv F
  0.438380  0.000000  0.438380    0.00000000 265 t-inv F
  0.440141  0.000000  0.440141    0.00000000 266 t-inv F
  0.441901  0.000000  0.441901    0.00000000 267 t-inv F
  0.443662  0.000000  0.443662    0.00000000 268 t-inv F
  0.445423  0.000000  0.445423    0.00000000 269 t-inv F
  0.447183  0.000000  0.447183    0.00000000 270 t-inv F
  0.448944  0.000000  0.448944    0.00000000 271 t-inv F
  0.450704  0.000000  0.450704    0.00000000 272 t-inv F
  0.452465  0.000000  0.452465    0.00000000 273 t-inv F
  0.454225  0.000000  0.454225    0.00000000 274 t-inv F
  0.455986  0.000000  0.455986    0.00000000 275 t-inv F
  0.457746  0.000000  0.457746    0.00000000 276 t-inv F
  0.459507  0.000000  0.459507    0.00000000 277 t-inv F
  0.461268  0.000000  0.461268    0.00000000 278 t-inv F
  0.463028  0.000000  0.463028    0.00000000 279 t-inv F
  0.464789  0.000000  0.464789    0.00000000 280 t-inv F
  0.466549  0.000000  0.466549    0.00000000 281 t-inv F
  0.468310  0.000000  0.468310    0.00000000 282 t-inv F
  0.470070  0.000000  0.470070    0.00000000 283 t-inv F
  0.471831  0.000000  0.471831    0.00000000 284 t-inv F
  0.473592  0.000000  0.473592    0.00000000 285 t-inv F
  0.475352  0.000000  0.475352    0.00000000 286 t-inv F
  0.477113  0.000000  0.477113    0.00000000 287 t-inv F
  0.478873  0.000000  0.478873    0.00000000 288 t-inv F
  0.480634  0.000000  0.480634    0.00000000 289 t-inv F
  0.482394  0.000000  0.482394    0.00000000 290 t-inv F
  0.484155  0.000000  0.484155    0.00000000 291 t-inv F
  0.485915  0.000000  0.485915    0.00000000 292 t-inv F
  0.487676  0.000000  0.487676    0.00000000 293 t-inv F
  0.489437  0.000000  0.489437    0.00000000 294 t-inv F
  0.491197  0.000000  0.491197    0.00000000 295 t-inv F
  0.492958  0.000000  0.492958    0.00000000 296 t-inv F
  0.494718  0.000000  0.494718    0.00000000 297 t-inv F
  0.496479  0.000000  0.496479    0.00000000 298 t-inv F
  0.498239  0.000000  0.498239    0.00000000 299 t-inv F
  0.500000  0.000000  0.500000    0.00000000 300 t-inv F
  0.499332  0.002005  0.501337    0.00000000 301 t-inv F
  0.498663  0.004011  0.502674    0.00000000 302 t-inv F
  0.497995  0.006016  0.504011    0.00000000 303 t-inv F
  0.497326  0.008021  0.505348    0.00000000 304 t-inv F
  0.496658  0.010027  0.506684    0.00000000 305 t-inv F
  0.495989  0.012032  0.508021    0.00000000 306 t-inv F
  0.495321  0.014037  0.509358    0.00000000 307 t-inv F
  0.494652  0.016043  0.510695    0.00000000 308 t-inv F
  0.493984  0.018048  0.512032    0.00000000 309 t-inv F
  0.493316  0.020053  0.513369    0.00000000 310 t-inv F
  0.492647  0.022059  0.514706    0.00000000 311 t-inv F
  0.491979  0.024064  0.516043    0.00000000 312 t-inv F
  0.491310  0.026070  0.517380    0.00000000 313 t-inv F
  0.490642  0.028075  0.518717    0.00000000 314 t-inv F
  0.489973  0.030080  0.520054    0.00000000 315 t-inv F
  0.489305  0.032086  0.521390    0.00000000 316 t-inv F
  0.488636  0.034091  0.522727    0.00000000 317 t-inv F
  0.487968  0.036096  0.524064    0.00000000 318 t-inv F
  0.487299  0.038102  0.525401    0.00000000 319 t-inv F
  0.486631  0.040107  0.526738    0.00000000 320 t-inv F
  0.485963  0.042112  0.528075    0.00000000 321 t-inv F
  0.485294  0.044118  0.529412    0.00000000 322 t-inv F
  0.484626  0.046123  0.530749    0.00000000 323 t-inv F
  0.483957  0.048128  0.532086    0.00000000 324 t-inv F
  0.483289  0.050134  0.533422    0.00000000 325 t-inv F
  0.482620  0.052139  0.534759    0.00000000 326 t-inv F
  0.481952  0.054144  0.536096    0.00000000 327 t-inv F
  0.481283  0.056150  0.537433    0.00000000 328 t-inv F
  0.480615  0.058155  0.538770    0.00000000 329 t-inv F
  0.479947  0.060160  0.540107    0.00000000 330 t-inv F
  0.479278  0.062166  0.541444    0.00000000 331 t-inv F
  0.478610  0.064171  0.542781    0.00000000 332 t-inv F
  0.477941  0.066176  0.544118    0.00000000 333 t-inv F
  0.477273  0.068182  0.545455    0.00000000 334 t-inv F
  0.476604  0.070187  0.546791    0.00000000 335 t-inv F
  0.475936  0.072193  0.548128    0.00000000 336 t-inv F
  0.475267  0.074198  0.549465    0.00000000 337 t-inv F
  0.474599  0.076203  0.550802    0.00000000 338 t-inv F
  0.473930  0.078209  0.552139    0.00000000 339 t-inv F
  0.473262  0.080214  0.553476    0.00000000 340 t-inv F
  0.472594  0.082219  0.554813    0.00000000 341 t-inv F
  0.471925  0.084225  0.556150    0.00000000 342 t-inv F
  0.471257  0.086230  0.557487    0.00000000 343 t-inv F
  0.470588  0.088235  0.558824    0.00000000 344 t-inv F
  0.469920  0.090241  0.560160    0.00000000 345 t-inv F
  0.469251  0.092246  0.561497    0.00000000 346 t-inv F
  0.468583  0.094251  0.562834    0.00000000 347 t-inv F
  0.467914  0.096257  0.564171    0.00000000 348 t-inv F
  0.467246  0.098262  0.565508    0.00000000 349 t-inv F
  0.466578  0.100267  0.566845    0.00000000 350 t-inv F
  0.465909  0.102273  0.568182    0.00000000 351 t-inv F
  0.465241  0.104278  0.569519    0.00000000 352 t-inv F
  0.464572  0.106283  0.570856    0.00000000 353 t-inv F
  0.463904  0.108289  0.572192    0.00000000 354 t-inv F
  0.463235  0.110294  0.573529    0.00000000 355 t-inv F
  0.462567  0.112299  0.574866    0.00000000 356 t-inv F
  0.461898  0.114305  0.576203    0.00000000 357 t-inv F
  0.461230  0.116310  0.577540    0.00000000 358 t-inv F
  0.460562  0.118316  0.578877    0.00000000 359 t-inv F
  0.459893  0.120321  0.580214    0.00000000 360 t-inv F
  0.459225  0.122326  0.581551    0.00000000 361 t-inv F
  0.458556  0.124332  0.582888    0.00000000 362 t-inv F
  0.457888  0.126337  0.584225    0.00000000 363 t-inv F
  0.457219  0.128342  0.585562    0.00000000 364 t-inv F
  0.456551  0.130348  0.586898    0.00000000 365 t-inv F
  0.455882  0.132353  0.588235    0.00000000 366 t-inv F
  0.455214  0.134358  0.589572    0.00000000 367 t-inv F
  0.454545  0.136364  0.590909    0.00000000 368 t-inv F
  0.453877  0.138369  0.592246    0.00000000 369 t-inv F
  0.453209  0.140374  0.593583    0.00000000 370 t-inv F
  0.452540  0.142380  0.594920    0.00000000 371 t-inv F
  0.451872  0.144385  0.596257    0.00000000 372 t-inv F
  0.451203  0.146390  0.597594    0.00000000 373 t-inv F
  0.450535  0.148396  0.598930    0.00000000 374 t-inv F
  0.449866  0.150401  0.600267    0.00000000 375 t-inv F
  0.449198  0.152406  0.601604    0.00000000 376 t-inv F
  0.448529  0.154412  0.602941    0.00000000 377 t-inv F
  0.447861  0.156417  0.604278    0.00000000 378 t-inv F
  0.447193  0.158422  0.605615    0.00000000 379 t-inv F
  0.446524  0.160428  0.606952    0.00000000 380 t-inv F
  0.445856  0.162433  0.608289    0.00000000 381 t-inv F
  0.445187  0.164439  0.609626    0.00000000 382 t-inv F
  0.444519  0.166444  0.610963    0.00000000 383 t-inv F
  0.443850  0.168449  0.612299    0.00000000 384 t-inv F
  0.443182  0.170455  0.613636    0.00000000 385 t-inv F
  0.442513  0.172460  0.614973    0.00000000 386 t-inv F
  0.441845  0.174465  0.616310    0.00000000 387 t-inv F
  0.441176  0.176471  0.617647    0.00000000 388 t-inv F
  0.440508  0.178476  0.618984    0.00000000 389 t-inv F
  0.439840  0.180481  0.620321    0.00000000 390 t-inv F
  0.439171  0.182487  0.621658    0.00000000 391 t-inv F
  0.438503  0.184492  0.622995    0.00000000 392 t-inv F
  0.437834  0.186497  0.624332    0.00000000 393 t-inv F
  0.437166  0.188503  0.625668    0.00000000 394 t-inv F
  0.436497  0.190508  0.627005    0.00000000 395 t-inv F
  0.435829  0.192513  0.628342    0.00000000 396 t-inv F
  0.435160  0.194519  0.629679    0.00000000 397 t-inv F
  0.434492  0.196524  0.631016    0.00000000 398 t-inv F
  0.433824  0.198529  0.632353    0.00000000 399 t-inv F
  0.433155  0.200535  0.633690    0.00000000 400 t-inv F
  0.432487  0.202540  0.635027    0.00000000 401 t-inv F
  0.431818  0.204545  0.636364    0.00000000 402 t-inv F
  0.431150  0.206551  0.637701    0.00000000 403 t-inv F
  0.430481  0.208556  0.639037    0.00000000 404 t-inv F
  0.429813  0.210562  0.640374    0.00000000 405 t-inv F
  0.429144  0.212567  0.641711    0.00000000 406 t-inv F
  0.428476  0.214572  0.643048    0.00000000 407 t-inv F
  0.427807  0.216578  0.644385    0.00000000 408 t-inv F
  0.427139  0.218583  0.645722    0.00000000 409 t-inv F
  0.426471  0.220588  0.647059    0.00000000 410 t-inv F
  0.425802  0.222594  0.648396    0.00000000 411 t-inv F
  0.425134  0.224599  0.649733    0.00000000 412 t-inv F
  0.424465  0.226604  0.651070    0.00000000 413 t-inv F
  0.423797  0.228610  0.652406    0.00000000 414 t-inv F
  0.423128  0.230615  0.653743    0.00000000 415 t-inv F
  0.422460  0.232620  0.655080    0.00000000 416 t-inv F
  0.421791  0.234626  0.656417    0.00000000 417 t-inv F
  0.421123  0.236631  0.657754    0.00000000 418 t-inv F
  0.420455  0.238636  0.659091    0.00000000 419 t-inv F
  0.419786  0.240642  0.660428    0.00000000 420 t-inv F
  0.419118  0.242647  0.661765    0.00000000 421 t-inv F
  0.418449  0.244652  0.663102    0.00000000 422 t-inv F
  0.417781  0.246658  0.664438    0.00000000 423 t-inv F
  0.417112  0.248663  0.665775    0.00000000 424 t-inv F
  0.416444  0.250668  0.667112    0.00000000 425 t-inv F
  0.415775  0.252674  0.668449    0.00000000 426 t-inv F
  0.415107  0.254679  0.669786    0.00000000 427 t-inv F
  0.414438  0.256685  0.671123    0.00000000 428 t-inv F
  0.413770  0.258690  0.672460    0.00000000 429 t-inv F
  0.413102  0.260695  0.673797    0.00000000 430 t-inv F
  0.412433  0.262701  0.675134    0.00000000 431 t-inv F
  0.411765  0.264706  0.676471    0.00000000 432 t-inv F
  0.411096  0.266711  0.677807    0.00000000 433 t-inv F
  0.410428  0.268717  0.679144    0.00000000 434 t-inv F
  0.409759  0.270722  0.680481    0.00000000 435 t-inv F
  0.409091  0.272727  0.681818    0.00000000 436 t-inv F
  0.408422  0.274733  0.683155    0.00000000 437 t-inv F
  0.407754  0.276738  0.684492    0.00000000 438 t-inv F
  0.407086  0.278743  0.685829    0.00000000 439 t-inv F
  0.406417  0.280749  0.687166    0.00000000 440 t-inv F
  0.405749  0.282754  0.688503    0.00000000 441 t-inv F
  0.405080  0.284759  0.689840    0.00000000 442 t-inv F
  0.404412  0.286765  0.691176    0.00000000 443 t-inv F
  0.403743  0.288770  0.692513    0.00000000 444 t-inv F
  0.403075  0.290775  0.693850    0.00000000 445 t-inv F
  0.402406  0.292781  0.695187    0.00000000 446 t-inv F
  0.401738  0.294786  0.696524    0.00000000 447 t-inv F
  0.401070  0.296791  0.697861    0.00000000 448 t-inv F
  0.400401  0.298797  0.699198    0.00000000 449 t-inv F
  0.399733  0.300802  0.700535    0.00000000 450 t-inv F
  0.399064  0.302807  0.701872    0.00000000 451 t-inv F
  0.398396  0.304813  0.703209    0.00000000 452 t-inv F
  0.397727  0.306818  0.704545    0.00000000 453 t-inv F
  0.397059  0.308824  0.705882    0.00000000 454 t-inv F
  0.396390  0.310829  0.707219    0.00000000 455 t-inv F
  0.395722  0.312834  0.708556    0.00000000 456 t-inv F
  0.395053  0.314840  0.709893    0.00000000 457 t-inv F
  0.394385  0.316845  0.711230    0.00000000 458 t-inv F
  0.393717  0.318850  0.712567    0.00000000 459 t-inv F
  0.393048  0.320856  0.713904    0.00000000 460 t-inv F
  0.392380  0.322861  0.715241    0.00000000 461 t-inv F
  0.391711  0.324866  0.716578    0.00000000 462 t-inv F
  0.391043  0.326872  0.717914    0.00000000 463 t-inv F
  0.390374  0.328877  0.719251    0.00000000 464 t-inv F
  0.389706  0.330882  0.720588    0.00000000 465 t-inv F
  0.389037  0.332888  0.721925    0.00000000 466 t-inv F
  0.388369  0.334893  0.723262    0.00000000 467 t-inv F
  0.387701  0.336898  0.724599    0.00000000 468 t-inv F
  0.387032  0.338904  0.725936    0.00000000 469 t-inv F
  0.386364  0.340909  0.727273    0.00000000 470 t-inv F
  0.385695  0.342914  0.728610    0.00000000 471 t-inv F
  0.385027  0.344920  0.729946    0.00000000 472 t-inv F
  0.384358  0.346925  0.731283    0.00000000 473 t-inv F
  0.383690  0.348930  0.732620    0.00000000 474 t-inv F
  0.383021  0.350936  0.733957    0.00000000 475 t-inv F
  0.382353  0.352941  0.735294    0.00000000 476 t-inv F
  0.381684  0.354947  0.736631    0.00000000 477 t-inv F
  0.381016  0.356952  0.737968    0.00000000 478 t-inv F
  0.380348  0.358957  0.739305    0.00000000 479 t-inv F
  0.379679  0.360963  0.740642    0.00000000 480 t-inv F
  0.379011  0.362968  0.741979    0.00000000 481 t-inv F
  0.378342  0.364973  0.743316    0.00000000 482 t-inv F
  0.377674  0.366979  0.744652    0.00000000 483 t-inv F
  0.377005  0.368984  0.745989    0.00000000 484 t-inv F
  0.376337  0.370989  0.747326    0.00000000 485 t-inv F
  0.375668  0.372995  0.748663    0.00000000 486 t-inv F
  0.375000  0.375000  0.750000    0.00000000 487 t-inv F
  0.373981  0.373981  0.747962    0.00000000 488 t-inv F
  0.372962  0.372962  0.745924    0.00000000 489 t-inv F
  0.371943  0.371943  0.743886    0.00000000 490 t-inv F
  0.370924  0.370924  0.741848    0.00000000 491 t-inv F
  0.369905  0.369905  0.739810    0.00000000 492 t-inv F
  0.368886  0.368886  0.737772    0.00000000 493 t-inv F
  0.367867  0.367867  0.735734    0.00000000 494 t-inv F
  0.366848  0.366848  0.733696    0.00000000 495 t-inv F
  0.365829  0.365829  0.731658    0.00000000 496 t-inv F
  0.364810  0.364810  0.729620    0.00000000 497 t-inv F
  0.363791  0.363791  0.727581    0.00000000 498 t-inv F
  0.362772  0.362772  0.725544    0.00000000 499 t-inv F
  0.361753  0.361753  0.723505    0.00000000 500 t-inv F
  0.360734  0.360734  0.721467    0.00000000 501 t-inv F
  0.359715  0.359715  0.719429    0.00000000 502 t-inv F
  0.358696  0.358696  0.717391    0.00000000 503 t-inv F
  0.357677  0.357677  0.715353    0.00000000 504 t-inv F
  0.356658  0.356658  0.713315    0.00000000 505 t-inv F
  0.355639  0.355639  0.711277    0.00000000 506 t-inv F
  0.354620  0.354620  0.709239    0.00000000 507 t-inv F
  0.353601  0.353601  0.707201    0.00000000 508 t-inv F
  0.352582  0.352582  0.705163    0.00000000 509 t-inv F
  0.351562  0.351562  0.703125    0.00000000 510 t-inv F
  0.350543  0.350543  0.701087    0.00000000 511 t-inv F
  0.349524  0.349524  0.699049    0.00000000 512 t-inv F
  0.348505  0.348505  0.697011    0.00000000 513 t-inv F
  0.347486  0.347486  0.694973    0.00000000 514 t-inv F
  0.346467  0.346467  0.692935    0.00000000 515 t-inv F
  0.345448  0.345448  0.690897    0.00000000 516 t-inv F
  0.344429  0.344429  0.688859    0.00000000 517 t-inv F
  0.343410  0.343410  0.686821    0.00000000 518 t-inv F
  0.342391  0.342391  0.684783    0.00000000 519 t-inv F
  0.341372  0.341372  0.682745    0.00000000 520 t-inv F
  0.340353  0.340353  0.680706    0.00000000 521 t-inv F
  0.339334  0.339334  0.678669    0.00000000 522 t-inv F
  0.338315  0.338315  0.676630    0.00000000 523 t-inv F
  0.337296  0.337296  0.674592    0.00000000 524 t-inv F
  0.336277  0.336277  0.672554    0.00000000 525 t-inv F
  0.335258  0.335258  0.670516    0.00000000 526 t-inv F
  0.334239  0.334239  0.668478    0.00000000 527 t-inv F
  0.333220  0.333220  0.666440    0.00000000 528 t-inv F
  0.332201  0.332201  0.664402    0.00000000 529 t-inv F
  0.331182  0.331182  0.662364    0.00000000 530 t-inv F
  0.330163  0.330163  0.660326    0.00000000 531 t-inv F
  0.329144  0.329144  0.658288    0.00000000 532 t-inv F
  0.328125  0.328125  0.656250    0.00000000 533 t-inv F
  0.327106  0.327106  0.654212    0.00000000 534 t-inv F
  0.326087  0.326087  0.652174    0.00000000 535 t-inv F
  0.325068  0.325068  0.650136    0.00000000 536 t-inv F
  0.324049  0.324049  0.648098    0.00000000 537 t-inv F
  0.323030  0.323030  0.646060    0.00000000 538 t-inv F
  0.322011  0.322011  0.644022    0.00000000 539 t-inv F
  0.320992  0.320992  0.641984    0.00000000 540 t-inv F
  0.319973  0.319973  0.639946    0.00000000 541 t-inv F
  0.318954  0.318954  0.637908    0.00000000 542 t-inv F
  0.317935  0.317935  0.635870    0.00000000 543 t-inv F
  0.316916  0.316916  0.633831    0.00000000 544 t-inv F
  0.315897  0.315897  0.631794    0.00000000 545 t-inv F
  0.314878  0.314878  0.629755    0.00000000 546 t-inv F
  0.313859  0.313859  0.627717    0.00000000 547 t-inv F
  0.312840  0.312840  0.625679    0.00000000 548 t-inv F
  0.311821  0.311821  0.623641    0.00000000 549 t-inv F
  0.310802  0.310802  0.621603    0.00000000 550 t-inv F
  0.309783  0.309783  0.619565    0.00000000 551 t-inv F
  0.308764  0.308764  0.617527    0.00000000 552 t-inv F
  0.307745  0.307745  0.615489    0.00000000 553 t-inv F
  0.306726  0.306726  0.613451    0.00000000 554 t-inv F
  0.305707  0.305707  0.611413    0.00000000 555 t-inv F
  0.304688  0.304688  0.609375    0.00000000 556 t-inv F
  0.303668  0.303668  0.607337    0.00000000 557 t-inv F
  0.302649  0.302649  0.605299    0.00000000 558 t-inv F
  0.301630  0.301630  0.603261    0.00000000 559 t-inv F
  0.300611  0.300611  0.601223    0.00000000 560 t-inv F
  0.299592  0.299592  0.599185    0.00000000 561 t-inv F
  0.298573  0.298573  0.597147    0.00000000 562 t-inv F
  0.297554  0.297554  0.595109    0.00000000 563 t-inv F
  0.296535  0.296535  0.593071    0.00000000 564 t-inv F
  0.295516  0.295516  0.591033    0.00000000 565 t-inv F
  0.294497  0.294497  0.588995    0.00000000 566 t-inv F
  0.293478  0.293478  0.586956    0.00000000 567 t-inv F
  0.292459  0.292459  0.584919    0.00000000 568 t-inv F
  0.291440  0.291440  0.582880    0.00000000 569 t-inv F
  0.290421  0.290421  0.580842    0.00000000 570 t-inv F
  0.289402  0.289402  0.578804    0.00000000 571 t-inv F
  0.288383  0.288383  0.576766    0.00000000 572 t-inv F
  0.287364  0.287364  0.574728    0.00000000 573 t-inv F
  0.286345  0.286345  0.572690    0.00000000 574 t-inv F
  0.285326  0.285326  0.570652    0.00000000 575 t-inv F
  0.284307  0.284307  0.568614    0.00000000 576 t-inv F
  0.283288  0.283288  0.566576    0.00000000 577 t-inv F
  0.282269  0.282269  0.564538    0.00000000 578 t-inv F
  0.281250  0.281250  0.562500    0.00000000 579 t-inv F
  0.280231  0.280231  0.560462    0.00000000 580 t-inv F
  0.279212  0.279212  0.558424    0.00000000 581 t-inv F
  0.278193  0.278193  0.556386    0.00000000 582 t-inv F
  0.277174  0.277174  0.554348    0.00000000 583 t-inv F
  0.276155  0.276155  0.552310    0.00000000 584 t-inv F
  0.275136  0.275136  0.550272    0.00000000 585 t-inv F
  0.274117  0.274117  0.548234    0.00000000 586 t-inv F
  0.273098  0.273098  0.546196    0.00000000 587 t-inv F
  0.272079  0.272079  0.544158    0.00000000 588 t-inv F
  0.271060  0.271060  0.542120    0.00000000 589 t-inv F
  0.270041  0.270041  0.540081    0.00000000 590 t-inv F
  0.269022  0.269022  0.538044    0.00000000 591 t-inv F
  0.268003  0.268003  0.536005    0.00000000 592 t-inv F
  0.266984  0.266984  0.533967    0.00000000 593 t-inv F
  0.265965  0.265965  0.531929    0.00000000 594 t-inv F
  0.264946  0.264946  0.529891    0.00000000 595 t-inv F
  0.263927  0.263927  0.527853    0.00000000 596 t-inv F
  0.262908  0.262908  0.525815    0.00000000 597 t-inv F
  0.261889  0.261889  0.523777    0.00000000 598 t-inv F
  0.260870  0.260870  0.521739    0.00000000 599 t-inv F
  0.259851  0.259851  0.519701    0.00000000 600 t-inv F
  0.258832  0.258832  0.517663    0.00000000 601 t-inv F
  0.257812  0.257812  0.515625    0.00000000 602 t-inv F
  0.256794  0.256794  0.513587    0.00000000 603 t-inv F
  0.255774  0.255774  0.511549    0.00000000 604 t-inv F
  0.254755  0.254755  0.509511    0.00000000 605 t-inv F
  0.253736  0.253736  0.507473    0.00000000 606 t-inv F
  0.252717  0.252717  0.505435    0.00000000 607 t-inv F
  0.251698  0.251698  0.503397    0.00000000 608 t-inv F
  0.250679  0.250679  0.501359    0.00000000 609 t-inv F
  0.249660  0.249660  0.499321    0.00000000 610 t-inv F
  0.248641  0.248641  0.497283    0.00000000 611 t-inv F
  0.247622  0.247622  0.495245    0.00000000 612 t-inv F
  0.246603  0.246603  0.493207    0.00000000 613 t-inv F
  0.245584  0.245584  0.491168    0.00000000 614 t-inv F
  0.244565  0.244565  0.489130    0.00000000 615 t-inv F
  0.243546  0.243546  0.487092    0.00000000 616 t-inv F
  0.242527  0.242527  0.485054    0.00000000 617 t-inv F
  0.241508  0.241508  0.483016    0.00000000 618 t-inv F
  0.240489  0.240489  0.480978    0.00000000 619 t-inv F
  0.239470  0.239470  0.478940    0.00000000 620 t-inv F
  0.238451  0.238451  0.476902    0.00000000 621 t-inv F
  0.237432  0.237432  0.474864    0.00000000 622 t-inv F
  0.236413  0.236413  0.472826    0.00000000 623 t-inv F
  0.235394  0.235394  0.470788    0.00000000 624 t-inv F
  0.234375  0.234375  0.468750    0.00000000 625 t-inv F
  0.233356  0.233356  0.466712    0.00000000 626 t-inv F
  0.232337  0.232337  0.464674    0.00000000 627 t-inv F
  0.231318  0.231318  0.462636    0.00000000 628 t-inv F
  0.230299  0.230299  0.460598    0.00000000 629 t-inv F
  0.229280  0.229280  0.458560    0.00000000 630 t-inv F
  0.228261  0.228261  0.456522    0.00000000 631 t-inv F
  0.227242  0.227242  0.454484    0.00000000 632 t-inv F
  0.226223  0.226223  0.452446    0.00000000 633 t-inv F
  0.225204  0.225204  0.450408    0.00000000 634 t-inv F
  0.224185  0.224185  0.448370    0.00000000 635 t-inv F
  0.223166  0.223166  0.446332    0.00000000 636 t-inv F
  0.222147  0.222147  0.444293    0.00000000 637 t-inv F
  0.221128  0.221128  0.442255    0.00000000 638 t-inv F
  0.220109  0.220109  0.440217    0.00000000 639 t-inv F
  0.219090  0.219090  0.438179    0.00000000 640 t-inv F
  0.218071  0.218071  0.436141    0.00000000 641 t-inv F
  0.217052  0.217052  0.434103    0.00000000 642 t-inv F
  0.216033  0.216033  0.432065    0.00000000 643 t-inv F
  0.215014  0.215014  0.430027    0.00000000 644 t-inv F
  0.213995  0.213995  0.427989    0.00000000 645 t-inv F
  0.212976  0.212976  0.425951    0.00000000 646 t-inv F
  0.211957  0.211957  0.423913    0.00000000 647 t-inv F
  0.210938  0.210938  0.421875    0.00000000 648 t-inv F
  0.209918  0.209918  0.419837    0.00000000 649 t-inv F
  0.208899  0.208899  0.417799    0.00000000 650 t-inv F
  0.207880  0.207880  0.415761    0.00000000 651 t-inv F
  0.206861  0.206861  0.413723    0.00000000 652 t-inv F
  0.205842  0.205842  0.411685    0.00000000 653 t-inv F
  0.204823  0.204823  0.409647    0.00000000 654 t-inv F
  0.203804  0.203804  0.407609    0.00000000 655 t-inv F
  0.202785  0.202785  0.405571    0.00000000 656 t-inv F
  0.201766  0.201766  0.403533    0.00000000 657 t-inv F
  0.200747  0.200747  0.401495    0.00000000 658 t-inv F
  0.199728  0.199728  0.399457    0.00000000 659 t-inv F
  0.198709  0.198709  0.397418    0.00000000 660 t-inv F
  0.197690  0.197690  0.395380    0.00000000 661 t-inv F
  0.196671  0.196671  0.393342    0.00000000 662 t-inv F
  0.195652  0.195652  0.391304    0.00000000 663 t-inv F
  0.194633  0.194633  0.389266    0.00000000 664 t-inv F
  0.193614  0.193614  0.387228    0.00000000 665 t-inv F
  0.192595  0.192595  0.385190    0.00000000 666 t-inv F
  0.191576  0.191576  0.383152    0.00000000 667 t-inv F
  0.190557  0.190557  0.381114    0.00000000 668 t-inv F
  0.189538  0.189538  0.379076    0.00000000 669 t-inv F
  0.188519  0.188519  0.377038    0.00000000 670 t-inv F
  0.187500  0.187500  0.375000    0.00000000 671 t-inv F
  0.186481  0.186481  0.372962    0.00000000 672 t-inv F
  0.185462  0.185462  0.370924    0.00000000 673 t-inv F
  0.184443  0.184443  0.368886    0.00000000 674 t-inv F
  0.183424  0.183424  0.366848    0.00000000 675 t-inv F
  0.182405  0.182405  0.364810    0.00000000 676 t-inv F
  0.181386  0.181386  0.362772    0.00000000 677 t-inv F
  0.180367  0.180367  0.360734    0.00000000 678 t-inv F
  0.179348  0.179348  0.358696    0.00000000 679 t-inv F
  0.178329  0.178329  0.356658    0.00000000 680 t-inv F
  0.177310  0.177310  0.354620    0.00000000 681 t-inv F
  0.176291  0.176291  0.352582    0.00000000 682 t-inv F
  0.175272  0.175272  0.350544    0.00000000 683 t-inv F
  0.174253  0.174253  0.348505    0.00000000 684 t-inv F
  0.173234  0.173234  0.346467    0.00000000 685 t-inv F
  0.172215  0.172215  0.344429    0.00000000 686 t-inv F
  0.171196  0.171196  0.342391    0.00000000 687 t-inv F
  0.170177  0.170177  0.340353    0.00000000 688 t-inv F
  0.169158  0.169158  0.338315    0.00000000 689 t-inv F
  0.168139  0.168139  0.336277    0.00000000 690 t-inv F
  0.167120  0.167120  0.334239    0.00000000 691 t-inv F
  0.166101  0.166101  0.332201    0.00000000 692 t-inv F
  0.165082  0.165082  0.330163    0.00000000 693 t-inv F
  0.164063  0.164063  0.328125    0.00000000 694 t-inv F
  0.163043  0.163043  0.326087    0.00000000 695 t-inv F
  0.162024  0.162024  0.324049    0.00000000 696 t-inv F
  0.161005  0.161005  0.322011    0.00000000 697 t-inv F
  0.159986  0.159986  0.319973    0.00000000 698 t-inv F
  0.158967  0.158967  0.317935    0.00000000 699 t-inv F
  0.157948  0.157948  0.315897    0.00000000 700 t-inv F
  0.156929  0.156929  0.313859    0.00000000 701 t-inv F
  0.155910  0.155910  0.311821    0.00000000 702 t-inv F
  0.154891  0.154891  0.309783    0.00000000 703 t-inv F
  0.153872  0.153872  0.307745    0.00000000 704 t-inv F
  0.152853  0.152853  0.305707    0.00000000 705 t-inv F
  0.151834  0.151834  0.303669    0.00000000 706 t-inv F
  0.150815  0.150815  0.301630    0.00000000 707 t-inv F
  0.149796  0.149796  0.299592    0.00000000 708 t-inv F
  0.148777  0.148777  0.297554    0.00000000 709 t-inv F
  0.147758  0.147758  0.295516    0.00000000 710 t-inv F
  0.146739  0.146739  0.293478    0.00000000 711 t-inv F
  0.145720  0.145720  0.291440    0.00000000 712 t-inv F
  0.144701  0.144701  0.289402    0.00000000 713 t-inv F
  0.143682  0.143682  0.287364    0.00000000 714 t-inv F
  0.142663  0.142663  0.285326    0.00000000 715 t-inv F
  0.141644  0.141644  0.283288    0.00000000 716 t-inv F
  0.140625  0.140625  0.281250    0.00000000 717 t-inv F
  0.139606  0.139606  0.279212    0.00000000 718 t-inv F
  0.138587  0.138587  0.277174    0.00000000 719 t-inv F
  0.137568  0.137568  0.275136    0.00000000 720 t-inv F
  0.136549  0.136549  0.273098    0.00000000 721 t-inv F
  0.135530  0.135530  0.271060    0.00000000 722 t-inv F
  0.134511  0.134511  0.269022    0.00000000 723 t-inv F
  0.133492  0.133492  0.266984    0.00000000 724 t-inv F
  0.132473  0.132473  0.264946    0.00000000 725 t-inv F
  0.131454  0.131454  0.262908    0.00000000 726 t-inv F
  0.130435  0.130435  0.260870    0.00000000 727 t-inv F
  0.129416  0.129416  0.258832    0.00000000 728 t-inv F
  0.128397  0.128397  0.256794    0.00000000 729 t-inv F
  0.127378  0.127378  0.254755    0.00000000 730 t-inv F
  0.126359  0.126359  0.252717    0.00000000 731 t-inv F
  0.125340  0.125340  0.250679    0.00000000 732 t-inv F
  0.124321  0.124321  0.248641    0.00000000 733 t-inv F
  0.123302  0.123302  0.246603    0.00000000 734 t-inv F
  0.122283  0.122283  0.244565    0.00000000 735 t-inv F
  0.121264  0.121264  0.242527    0.00000000 736 t-inv F
  0.120245  0.120245  0.240489    0.00000000 737 t-inv F
  0.119226  0.119226  0.238451    0.00000000 738 t-inv F
  0.118207  0.118207  0.236413    0.00000000 739 t-inv F
  0.117188  0.117188  0.234375    0.00000000 740 t-inv F
  0.116168  0.116168  0.232337    0.00000000 741 t-inv F
  0.115149  0.115149  0.230299    0.00000000 742 t-inv F
  0.114130  0.114130  0.228261    0.00000000 743 t-inv F
  0.113111  0.113111  0.226223    0.00000000 744 t-inv F
  0.112092  0.112092  0.224185    0.00000000 745 t-inv F
  0.111073  0.111073  0.222147    0.00000000 746 t-inv F
  0.110054  0.110054  0.220109    0.00000000 747 t-inv F
  0.109035  0.109035  0.218071    0.00000000 748 t-inv F
  0.108016  0.108016  0.216033    0.00000000 749 t-inv F
  0.106997  0.106997  0.213995    0.00000000 750 t-inv F
  0.105978  0.105978  0.211956    0.00000000 751 t-inv F
  0.104959  0.104959  0.209919    0.00000000 752 t-inv F
  0.103940  0.103940  0.207880    0.00000000 753 t-inv F
  0.102921  0.102921  0.205842    0.00000000 754 t-inv F
  0.101902  0.101902  0.203804    0.00000000 755 t-inv F
  0.100883  0.100883  0.201766    0.00000000 756 t-inv F
  0.099864  0.099864  0.199728    0.00000000 757 t-inv F
  0.098845  0.098845  0.197690    0.00000000 758 t-inv F
  0.097826  0.097826  0.195652    0.00000000 759 t-inv F
  0.096807  0.096807  0.193614    0.00000000 760 t-inv F
  0.095788  0.095788  0.191576    0.00000000 761 t-inv F
  0.094769  0.094769  0.189538    0.00000000 762 t-inv F
  0.093750  0.093750  0.187500    0.00000000 763 t-inv F
  0.092731  0.092731  0.185462    0.00000000 764 t-inv F
  0.091712  0.091712  0.183424    0.00000000 765 t-inv F
  0.090693  0.090693  0.181386    0.00000000 766 t-inv F
  0.089674  0.089674  0.179348    0.00000000 767 t-inv F
  0.088655  0.088655  0.177310    0.00000000 768 t-inv F
  0.087636  0.087636  0.175272    0.00000000 769 t-inv F
  0.086617  0.086617  0.173234    0.00000000 770 t-inv F
  0.085598  0.085598  0.171196    0.00000000 771 t-inv F
  0.084579  0.084579  0.169158    0.00000000 772 t-inv F
  0.083560  0.083560  0.167120    0.00000000 773 t-inv F
  0.082541  0.082541  0.165081    0.00000000 774 t-inv F
  0.081522  0.081522  0.163044    0.00000000 775 t-inv F
  0.080503  0.080503  0.161005    0.00000000 776 t-inv F
  0.079484  0.079484  0.158967    0.00000000 777 t-inv F
  0.078465  0.078465  0.156929    0.00000000 778 t-inv F
  0.077446  0.077446  0.154891    0.00000000 779 t-inv F
  0.076427  0.076427  0.152853    0.00000000 780 t-inv F
  0.075408  0.075408  0.150815    0.00000000 781 t-inv F
  0.074389  0.074389  0.148777    0.00000000 782 t-inv F
  0.073370  0.073370  0.146739    0.00000000 783 t-inv F
  0.072351  0.072351  0.144701    0.00000000 784 t-inv F
  0.071332  0.071332  0.142663    0.00000000 785 t-inv F
  0.070312  0.070312  0.140625    0.00000000 786 t-inv F
  0.069293  0.069293  0.138587    0.00000000 787 t-inv F
  0.068274  0.068274  0.136549    0.00000000 788 t-inv F
  0.067255  0.067255  0.134511    0.00000000 789 t-inv F
  0.066236  0.066236  0.132473    0.00000000 790 t-inv F
  0.065217  0.065217  0.130435    0.00000000 791 t-inv F
  0.064198  0.064198  0.128397    0.00000000 792 t-inv F
  0.063179  0.063179  0.126359    0.00000000 793 t-inv F
  0.062160  0.062160  0.124321    0.00000000 794 t-inv F
  0.061141  0.061141  0.122283    0.00000000 795 t-inv F
  0.060122  0.060122  0.120245    0.00000000 796 t-inv F
  0.059103  0.059103  0.118207    0.00000000 797 t-inv F
  0.058084  0.058084  0.116168    0.00000000 798 t-inv F
  0.057065  0.057065  0.114130    0.00000000 799 t-inv F
  0.056046  0.056046  0.112092    0.00000000 800 t-inv F
  0.055027  0.055027  0.110054    0.00000000 801 t-inv F
  0.054008  0.054008  0.108016    0.00000000 802 t-inv F
  0.052989  0.052989  0.105978    0.00000000 803 t-inv F
  0.051970  0.051970  0.103940    0.00000000 804 t-inv F
  0.050951  0.050951  0.101902    0.00000000 805 t-inv F
  0.049932  0.049932  0.099864    0.00000000 806 t-inv F
  0.048913  0.048913  0.097826    0.00000000 807 t-inv F
  0.047894  0.047894  0.095788    0.00000000 808 t-inv F
  0.046875  0.046875  0.093750    0.00000000 809 t-inv F
  0.045856  0.045856  0.091712    0.00000000 810 t-inv F
  0.044837  0.044837  0.089674    0.00000000 811 t-inv F
  0.043818  0.043818  0.087636    0.00000000 812 t-inv F
  0.042799  0.042799  0.085598    0.00000000 813 t-inv F
  0.041780  0.041780  0.083560    0.00000000 814 t-inv F
  0.040761  0.040761  0.081522    0.00000000 815 t-inv F
  0.039742  0.039742  0.079484    0.00000000 816 t-inv F
  0.038723  0.038723  0.077446    0.00000000 817 t-inv F
  0.037704  0.037704  0.075408    0.00000000 818 t-inv F
  0.036685  0.036685  0.073370    0.00000000 819 t-inv F
  0.035666  0.035666  0.071332    0.00000000 820 t-inv F
  0.034647  0.034647  0.069293    0.00000000 821 t-inv F
  0.033628  0.033628  0.067255    0.00000000 822 t-inv F
  0.032609  0.032609  0.065217    0.00000000 823 t-inv F
  0.031590  0.031590  0.063179    0.00000000 824 t-inv F
  0.030571  0.030571  0.061141    0.00000000 825 t-inv F
  0.029552  0.029552  0.059103    0.00000000 826 t-inv F
  0.028533  0.028533  0.057065    0.00000000 827 t-inv F
  0.027514  0.027514  0.055027    0.00000000 828 t-inv F
  0.026495  0.026495  0.052989    0.00000000 829 t-inv F
  0.025476  0.025476  0.050951    0.00000000 830 t-inv F
  0.024457  0.024457  0.048913    0.00000000 831 t-inv F
  0.023438  0.023438  0.046875    0.00000000 832 t-inv F
  0.022418  0.022418  0.044837    0.00000000 833 t-inv F
  0.021399  0.021399  0.042799    0.00000000 834 t-inv F
  0.020380  0.020380  0.040761    0.00000000 835 t-inv F
  0.019361  0.019361  0.038723    0.00000000 836 t-inv F
  0.018342  0.018342  0.036685    0.00000000 837 t-inv F
  0.017323  0.017323  0.034647    0.00000000 838 t-inv F
  0.016304  0.016304  0.032609    0.00000000 839 t-inv F
  0.015285  0.015285  0.030571    0.00000000 840 t-inv F
  0.014266  0.014266  0.028533    0.00000000 841 t-inv F
  0.013247  0.013247  0.026495    0.00000000 842 t-inv F
  0.012228  0.012228  0.024456    0.00000000 843 t-inv F
  0.011209  0.011209  0.022418    0.00000000 844 t-inv F
  0.010190  0.010190  0.020380    0.00000000 845 t-inv F
  0.009171  0.009171  0.018342    0.00000000 846 t-inv F
  0.008152  0.008152  0.016304    0.00000000 847 t-inv F
  0.007133  0.007133  0.014266    0.00000000 848 t-inv F
  0.006114  0.006114  0.012228    0.00000000 849 t-inv F
  0.005095  0.005095  0.010190    0.00000000 850 t-inv F
  0.004076  0.004076  0.008152    0.00000000 851 t-inv F
  0.003057  0.003057  0.006114    0.00000000 852 t-inv F
  0.002038  0.002038  0.004076    0.00000000 853 t-inv F
  0.001019  0.001019  0.002038    0.00000000 854 t-inv F
  0.000000  0.000000  0.000000    0.00000000 855 t-inv F
  0.001441  0.001441  0.001441    0.00000000 856 t-inv F
  0.002882  0.002882  0.002882    0.00000000 857 t-inv F
  0.004323  0.004323  0.004323    0.00000000 858 t-inv F
  0.005764  0.005764  0.005764    0.00000000 859 t-inv F
  0.007205  0.007205  0.007205    0.00000000 860 t-inv F
  0.008646  0.008646  0.008646    0.00000000 861 t-inv F
  0.010086  0.010086  0.010086    0.00000000 862 t-inv F
  0.011527  0.011527  0.011527    0.00000000 863 t-inv F
  0.012968  0.012968  0.012968    0.00000000 864 t-inv F
  0.014409  0.014409  0.014409    0.00000000 865 t-inv F
  0.015850  0.015850  0.015850    0.00000000 866 t-inv F
  0.017291  0.017291  0.017291    0.00000000 867 t-inv F
  0.018732  0.018732  0.018732    0.00000000 868 t-inv F
  0.020173  0.020173  0.020173    0.00000000 869 t-inv F
  0.021614  0.021614  0.021614    0.00000000 870 t-inv F
  0.023055  0.023055  0.023055    0.00000000 871 t-inv F
  0.024496  0.024496  0.024496    0.00000000 872 t-inv F
  0.025937  0.025937  0.025937    0.00000000 873 t-inv F
  0.027378  0.027378  0.027378    0.00000000 874 t-inv F
  0.028818  0.028818  0.028818    0.00000000 875 t-inv F
  0.030259  0.030259  0.030259    0.00000000 876 t-inv F
  0.031700  0.031700  0.031700    0.00000000 877 t-inv F
  0.033141  0.033141  0.033141    0.00000000 878 t-inv F
  0.034582  0.034582  0.034582    0.00000000 879 t-inv F
  0.036023  0.036023  0.036023    0.00000000 880 t-inv F
  0.037464  0.037464  0.037464    0.00000000 881 t-inv F
  0.038905  0.038905  0.038905    0.00000000 882 t-inv F
  0.040346  0.040346  0.040346    0.00000000 883 t-inv F
  0.041787  0.041787  0.041787    0.00000000 884 t-inv F
  0.043228  0.043228  0.043228    0.00000000 885 t-inv F
  0.044669  0.044669  0.044669    0.00000000 886 t-inv F
  0.046110  0.046110  0.046110    0.00000000 887 t-inv F
  0.047550  0.047550  0.047550    0.00000000 888 t-inv F
  0.048991  0.048991  0.048991    0.00000000 889 t-inv F
  0.050432  0.050432  0.050432    0.00000000 890 t-inv F
  0.051873  0.051873  0.051873    0.00000000 891 t-inv F
  0.053314  0.053314  0.053314    0.00000000 892 t-inv F
  0.054755  0.054755  0.054755    0.00000000 893 t-inv F
  0.056196  0.056196  0.056196    0.00000000 894 t-inv F
  0.057637  0.057637  0.057637    0.00000000 895 t-inv F
  0.059078  0.059078  0.059078    0.00000000 896 t-inv F
  0.060519  0.060519  0.060519    0.00000000 897 t-inv F
  0.061960  0.061960  0.061960    0.00000000 898 t-inv F
  0.063401  0.063401  0.063401    0.00000000 899 t-inv F
  0.064841  0.064841  0.064841    0.00000000 900 t-inv F
  0.066282  0.066282  0.066282    0.00000000 901 t-inv F
  0.067723  0.067723  0.067723    0.00000000 902 t-inv F
  0.069164  0.069164  0.069164    0.00000000 903 t-inv F
  0.070605  0.070605  0.070605    0.00000000 904 t-inv F
  0.072046  0.072046  0.072046    0.00000000 905 t-inv F
  0.073487  0.073487  0.073487    0.00000000 906 t-inv F
  0.074928  0.074928  0.074928    0.00000000 907 t-inv F
  0.076369  0.076369  0.076369    0.00000000 908 t-inv F
  0.077810  0.077810  0.077810    0.00000000 909 t-inv F
  0.079251  0.079251  0.079251    0.00000000 910 t-inv F
  0.080692  0.080692  0.080692    0.00000000 911 t-inv F
  0.082133  0.082133  0.082133    0.00000000 912 t-inv F
  0.083573  0.083573  0.083573    0.00000000 913 t-inv F
  0.085014  0.085014  0.085014    0.00000000 914 t-inv F
  0.086455  0.086455  0.086455    0.00000000 915 t-inv F
  0.087896  0.087896  0.087896    0.00000000 916 t-inv F
  0.089337  0.089337  0.089337    0.00000000 917 t-inv F
  0.090778  0.090778  0.090778    0.00000000 918 t-inv F
  0.092219  0.092219  0.092219    0.00000000 919 t-inv F
  0.093660  0.093660  0.093660    0.00000000 920 t-inv F
  0.095101  0.095101  0.095101    0.00000000 921 t-inv F
  0.096542  0.096542  0.096542    0.00000000 922 t-inv F
  0.097983  0.097983  0.097983    0.00000000 923 t-inv F
  0.099424  0.099424  0.099424    0.00000000 924 t-inv F
  0.100865  0.100865  0.100865    0.00000000 925 t-inv F
  0.102305  0.102305  0.102305    0.00000000 926 t-inv F
  0.103746  0.103746  0.103746    0.00000000 927 t-inv F
  0.105187  0.105187  0.105187    0.00000000 928 t-inv F
  0.106628  0.106628  0.106628    0.00000000 929 t-inv F
  0.108069  0.108069  0.108069    0.00000000 930 t-inv F
  0.109510  0.109510  0.109510    0.00000000 931 t-inv F
  0.110951  0.110951  0.110951    0.00000000 932 t-inv F
  0.112392  0.112392  0.112392    0.00000000 933 t-inv F
  0.113833  0.113833  0.113833    0.00000000 934 t-inv F
  0.115274  0.115274  0.115274    0.00000000 935 t-inv F
  0.116715  0.116715  0.116715    0.00000000 936 t-inv F
  0.118156  0.118156  0.118156    0.00000000 937 t-inv F
  0.119597  0.119597  0.119597    0.00000000 938 t-inv F
  0.121037  0.121037  0.121037    0.00000000 939 t-inv F
  0.122478  0.122478  0.122478    0.00000000 940 t-inv F
  0.123919  0.123919  0.123919    0.00000000 941 t-inv F
  0.125360  0.125360  0.125360    0.00000000 942 t-inv F
  0.126801  0.126801  0.126801    0.00000000 943 t-inv F
  0.128242  0.128242  0.128242    0.00000000 944 t-inv F
  0.129683  0.129683  0.129683    0.00000000 945 t-inv F
  0.131124  0.131124  0.131124    0.00000000 946 t-inv F
  0.132565  0.132565  0.132565    0.00000000 947 t-inv F
  0.134006  0.134006  0.134006    0.00000000 948 t-inv F
  0.135447  0.135447  0.135447    0.00000000 949 t-inv F
  0.136888  0.136888  0.136888    0.00000000 950 t-inv F
  0.138329  0.138329  0.138329    0.00000000 951 t-inv F
  0.139769  0.139769  0.139769    0.00000000 952 t-inv F
  0.141210  0.141210  0.141210    0.00000000 953 t-inv F
  0.142651  0.142651  0.142651    0.00000000 954 t-inv F
  0.144092  0.144092  0.144092    0.00000000 955 t-inv F
  0.145533  0.145533  0.145533    0.00000000 956 t-inv F
  0.146974  0.146974  0.146974    0.00000000 957 t-inv F
  0.148415  0.148415  0.148415    0.00000000 958 t-inv F
  0.149856  0.149856  0.149856    0.00000000 959 t-inv F
  0.151297  0.151297  0.151297    0.00000000 960 t-inv F
  0.152738  0.152738  0.152738    0.00000000 961 t-inv F
  0.154179  0.154179  0.154179    0.00000000 962 t-inv F
  0.155620  0.155620  0.155620    0.00000000 963 t-inv F
  0.157061  0.157061  0.157061    0.00000000 964 t-inv F
  0.158501  0.158501  0.158501    0.00000000 965 t-inv F
  0.159942  0.159942  0.159942    0.00000000 966 t-inv F
  0.161383  0.161383  0.161383    0.00000000 967 t-inv F
  0.162824  0.162824  0.162824    0.00000000 968 t-inv F
  0.164265  0.164265  0.164265    0.00000000 969 t-inv F
  0.165706  0.165706  0.165706    0.00000000 970 t-inv F
  0.167147  0.167147  0.167147    0.00000000 971 t-inv F
  0.168588  0.168588  0.168588    0.00000000 972 t-inv F
  0.170029  0.170029  0.170029    0.00000000 973 t-inv F
  0.171470  0.171470  0.171470    0.00000000 974 t-inv F
  0.172911  0.172911  0.172911    0.00000000 975 t-inv F
  0.174352  0.174352  0.174352    0.00000000 976 t-inv F
  0.175792  0.175792  0.175792    0.00000000 977 t-inv F
  0.177233  0.177233  0.177233    0.00000000 978 t-inv F
  0.178674  0.178674  0.178674    0.00000000 979 t-inv F
  0.180115  0.180115  0.180115    0.00000000 980 t-inv F
  0.181556  0.181556  0.181556    0.00000000 981 t-inv F
  0.182997  0.182997  0.182997    0.00000000 982 t-inv F
  0.184438  0.184438  0.184438    0.00000000 983 t-inv F
  0.185879  0.185879  0.185879    0.00000000 984 t-inv F
  0.187320  0.187320  0.187320    0.00000000 985 t-inv F
  0.188761  0.188761  0.188761    0.00000000 986 t-inv F
  0.190202  0.190202  0.190202    0.00000000 987 t-inv F
  0.191643  0.191643  0.191643    0.00000000 988 t-inv F
  0.193084  0.193084  0.193084    0.00000000 989 t-inv F
  0.194524  0.194524  0.194524    0.00000000 990 t-inv F
  0.195965  0.195965  0.195965    0.00000000 991 t-inv F
  0.197406  0.197406  0.197406    0.00000000 992 t-inv F
  0.198847  0.198847  0.198847    0.00000000 993 t-inv F
  0.200288  0.200288  0.200288    0.00000000 994 t-inv F
  0.201729  0.201729  0.201729    0.00000000 995 t-inv F
  0.203170  0.203170  0.203170    0.00000000 996 t-inv F
  0.204611  0.204611  0.204611    0.00000000 997 t-inv F
  0.206052  0.206052  0.206052    0.00000000 998 t-inv F
  0.207493  0.207493  0.207493    0.00000000 999 t-inv F
  0.208934  0.208934  0.208934    0.000000001000 t-inv F
  0.210375  0.210375  0.210375    0.000000001001 t-inv F
  0.211816  0.211816  0.211816    0.000000001002 t-inv F
  0.213256  0.213256  0.213256    0.000000001003 t-inv F
  0.214697  0.214697  0.214697    0.000000001004 t-inv F
  0.216138  0.216138  0.216138    0.000000001005 t-inv F
  0.217579  0.217579  0.217579    0.000000001006 t-inv F
  0.219020  0.219020  0.219020    0.000000001007 t-inv F
  0.220461  0.220461  0.220461    0.000000001008 t-inv F
  0.221902  0.221902  0.221902    0.000000001009 t-inv F
  0.223343  0.223343  0.223343    0.000000001010 t-inv F
  0.224784  0.224784  0.224784    0.000000001011 t-inv F
  0.226225  0.226225  0.226225    0.000000001012 t-inv F
  0.227666  0.227666  0.227666    0.000000001013 t-inv F
  0.229107  0.229107  0.229107    0.000000001014 t-inv F
  0.230548  0.230548  0.230548    0.000000001015 t-inv F
  0.231988  0.231988  0.231988    0.000000001016 t-inv F
  0.233429  0.233429  0.233429    0.000000001017 t-inv F
  0.234870  0.234870  0.234870    0.000000001018 t-inv F
  0.236311  0.236311  0.236311    0.000000001019 t-inv F
  0.237752  0.237752  0.237752    0.000000001020 t-inv F
  0.239193  0.239193  0.239193    0.000000001021 t-inv F
  0.240634  0.240634  0.240634    0.000000001022 t-inv F
  0.242075  0.242075  0.242075    0.000000001023 t-inv F
  0.243516  0.243516  0.243516    0.000000001024 t-inv F
  0.244957  0.244957  0.244957    0.000000001025 t-inv F
  0.246398  0.246398  0.246398    0.000000001026 t-inv F
  0.247839  0.247839  0.247839    0.000000001027 t-inv F
  0.249280  0.249280  0.249280    0.000000001028 t-inv F
  0.250720  0.250720  0.250720    0.000000001029 t-inv F
  0.252161  0.252161  0.252161    0.000000001030 t-inv F
  0.253602  0.253602  0.253602    0.000000001031 t-inv F
  0.255043  0.255043  0.255043    0.000000001032 t-inv F
  0.256484  0.256484  0.256484    0.000000001033 t-inv F
  0.257925  0.257925  0.257925    0.000000001034 t-inv F
  0.259366  0.259366  0.259366    0.000000001035 t-inv F
  0.260807  0.260807  0.260807    0.000000001036 t-inv F
  0.262248  0.262248  0.262248    0.000000001037 t-inv F
  0.263689  0.263689  0.263689    0.000000001038 t-inv F
  0.265130  0.265130  0.265130    0.000000001039 t-inv F
  0.266571  0.266571  0.266571    0.000000001040 t-inv F
  0.268012  0.268012  0.268012    0.000000001041 t-inv F
  0.269452  0.269452  0.269452    0.000000001042 t-inv F
  0.270893  0.270893  0.270893    0.000000001043 t-inv F
  0.272334  0.272334  0.272334    0.000000001044 t-inv F
  0.273775  0.273775  0.273775    0.000000001045 t-inv F
  0.275216  0.275216  0.275216    0.000000001046 t-inv F
  0.276657  0.276657  0.276657    0.000000001047 t-inv F
  0.278098  0.278098  0.278098    0.000000001048 t-inv F
  0.279539  0.279539  0.279539    0.000000001049 t-inv F
  0.280980  0.280980  0.280980    0.000000001050 t-inv F
  0.282421  0.282421  0.282421    0.000000001051 t-inv F
  0.283862  0.283862  0.283862    0.000000001052 t-inv F
  0.285303  0.285303  0.285303    0.000000001053 t-inv F
  0.286743  0.286743  0.286743    0.000000001054 t-inv F
  0.288184  0.288184  0.288184    0.000000001055 t-inv F
  0.289625  0.289625  0.289625    0.000000001056 t-inv F
  0.291066  0.291066  0.291066    0.000000001057 t-inv F
  0.292507  0.292507  0.292507    0.000000001058 t-inv F
  0.293948  0.293948  0.293948    0.000000001059 t-inv F
  0.295389  0.295389  0.295389    0.000000001060 t-inv F
  0.296830  0.296830  0.296830    0.000000001061 t-inv F
  0.298271  0.298271  0.298271    0.000000001062 t-inv F
  0.299712  0.299712  0.299712    0.000000001063 t-inv F
  0.301153  0.301153  0.301153    0.000000001064 t-inv F
  0.302594  0.302594  0.302594    0.000000001065 t-inv F
  0.304035  0.304035  0.304035    0.000000001066 t-inv F
  0.305475  0.305475  0.305475    0.000000001067 t-inv F
  0.306916  0.306916  0.306916    0.000000001068 t-inv F
  0.308357  0.308357  0.308357    0.000000001069 t-inv F
  0.309798  0.309798  0.309798    0.000000001070 t-inv F
  0.311239  0.311239  0.311239    0.000000001071 t-inv F
  0.312680  0.312680  0.312680    0.000000001072 t-inv F
  0.314121  0.314121  0.314121    0.000000001073 t-inv F
  0.315562  0.315562  0.315562    0.000000001074 t-inv F
  0.317003  0.317003  0.317003    0.000000001075 t-inv F
  0.318444  0.318444  0.318444    0.000000001076 t-inv F
  0.319885  0.319885  0.319885    0.000000001077 t-inv F
  0.321326  0.321326  0.321326    0.000000001078 t-inv F
  0.322767  0.322767  0.322767    0.000000001079 t-inv F
  0.324207  0.324207  0.324207    0.000000001080 t-inv F
  0.325648  0.325648  0.325648    0.000000001081 t-inv F
  0.327089  0.327089  0.327089    0.000000001082 t-inv F
  0.328530  0.328530  0.328530    0.000000001083 t-inv F
  0.329971  0.329971  0.329971    0.000000001084 t-inv F
  0.331412  0.331412  0.331412    0.000000001085 t-inv F
  0.332853  0.332853  0.332853    0.000000001086 t-inv F
  0.334294  0.334294  0.334294    0.000000001087 t-inv F
  0.335735  0.335735  0.335735    0.000000001088 t-inv F
  0.337176  0.337176  0.337176    0.000000001089 t-inv F
  0.338617  0.338617  0.338617    0.000000001090 t-inv F
  0.340058  0.340058  0.340058    0.000000001091 t-inv F
  0.341499  0.341499  0.341499    0.000000001092 t-inv F
  0.342940  0.342940  0.342940    0.000000001093 t-inv F
  0.344380  0.344380  0.344380    0.000000001094 t-inv F
  0.345821  0.345821  0.345821    0.000000001095 t-inv F
  0.347262  0.347262  0.347262    0.000000001096 t-inv F
  0.348703  0.348703  0.348703    0.000000001097 t-inv F
  0.350144  0.350144  0.350144    0.000000001098 t-inv F
  0.351585  0.351585  0.351585    0.000000001099 t-inv F
  0.353026  0.353026  0.353026    0.000000001100 t-inv F
  0.354467  0.354467  0.354467    0.000000001101 t-inv F
  0.355908  0.355908  0.355908    0.000000001102 t-inv F
  0.357349  0.357349  0.357349    0.000000001103 t-inv F
  0.358790  0.358790  0.358790    0.000000001104 t-inv F
  0.360231  0.360231  0.360231    0.000000001105 t-inv F
  0.361671  0.361671  0.361671    0.000000001106 t-inv F
  0.363112  0.363112  0.363112    0.000000001107 t-inv F
  0.364553  0.364553  0.364553    0.000000001108 t-inv F
  0.365994  0.365994  0.365994    0.000000001109 t-inv F
  0.367435  0.367435  0.367435    0.000000001110 t-inv F
  0.368876  0.368876  0.368876    0.000000001111 t-inv F
  0.370317  0.370317  0.370317    0.000000001112 t-inv F
[...]
      4       4.1953      2.00000
      5       7.7584      0.00000
      6       9.6501      0.00000
      7       9.6501      0.00000
      8      14.1389      0.00000

 k-point  1169 :       0.4524    0.4524    0.4524
  band No.  band energies     occupation 
      1      -5.3371      2.00000
      2      -2.0204      2.00000
      3       4.1941      2.00000
      4       4.1941      2.00000
      5       7.7572      0.00000
      6       9.6488      0.00000
      7       9.6488      0.00000
      8      14.1369      0.00000

 k-point  1170 :       0.4539    0.4539    0.4539
  band No.  band energies     occupation 
      1      -5.3294      2.00000
      2      -2.0319      2.00000
      3       4.1930      2.00000
      4       4.1930      2.00000
      5       7.7561      0.00000
      6       9.6477      0.00000
      7       9.6477      0.00000
      8      14.1350      0.00000

 k-point  1171 :       0.4553    0.4553    0.4553
  band No.  band energies     occupation 
      1      -5.3219      2.00000
      2      -2.0431      2.00000
      3       4.1919      2.00000
      4       4.1919      2.00000
      5       7.7549      0.00000
      6       9.6465      0.00000
      7       9.6465      0.00000
      8      14.1331      0.00000

 k-point  1172 :       0.4568    0.4568    0.4568
  band No.  band energies     occupation 
      1      -5.3146      2.00000
      2      -2.0540      2.00000
      3       4.1908      2.00000
      4       4.1908      2.00000
      5       7.7538      0.00000
      6       9.6454      0.00000
      7       9.6454      0.00000
      8      14.1313      0.00000

 k-point  1173 :       0.4582    0.4582    0.4582
  band No.  band energies     occupation 
      1      -5.3075      2.00000
      2      -2.0645      2.00000
      3       4.1898      2.00000
      4       4.1898      2.00000
      5       7.7528      0.00000
      6       9.6443      0.00000
      7       9.6443      0.00000
      8      14.1296      0.00000

 k-point  1174 :       0.4597    0.4597    0.4597
  band No.  band energies     occupation 
      1      -5.3006      2.00000
      2      -2.0748      2.00000
      3       4.1888      2.00000
      4       4.1888      2.00000
      5       7.7518      0.00000
      6       9.6433      0.00000
      7       9.6433      0.00000
      8      14.1279      0.00000

 k-point  1175 :       0.4611    0.4611    0.4611
  band No.  band energies     occupation 
      1      -5.2939      2.00000
      2      -2.0848      2.00000
      3       4.1879      2.00000
      4       4.1879      2.00000
      5       7.7508      0.00000
      6       9.6422      0.00000
      7       9.6422      0.00000
      8      14.1262      0.00000

 k-point  1176 :       0.4625    0.4625    0.4625
  band No.  band energies     occupation 
      1      -5.2874      2.00000
      2      -2.0944      2.00000
      3       4.1869      2.00000
      4       4.1869      2.00000
      5       7.7498      0.00000
      6       9.6413      0.00000
      7       9.6413      0.00000
      8      14.1247      0.00000

 k-point  1177 :       0.4640    0.4640    0.4640
  band No.  band energies     occupation 
      1      -5.2811      2.00000
      2      -2.1037      2.00000
      3       4.1861      2.00000
      4       4.1861      2.00000
      5       7.7489      0.00000
      6       9.6403      0.00000
      7       9.6403      0.00000
      8      14.1231      0.00000

 k-point  1178 :       0.4654    0.4654    0.4654
  band No.  band energies     occupation 
      1      -5.2750      2.00000
      2      -2.1127      2.00000
      3       4.1852      2.00000
      4       4.1852      2.00000
      5       7.7480      0.00000
      6       9.6394      0.00000
      7       9.6394      0.00000
      8      14.1217      0.00000

 k-point  1179 :       0.4669    0.4669    0.4669
  band No.  band energies     occupation 
      1      -5.2691      2.00000
      2      -2.1213      2.00000
      3       4.1844      2.00000
      4       4.1844      2.00000
      5       7.7472      0.00000
      6       9.6385      0.00000
      7       9.6385      0.00000
      8      14.1203      0.00000

 k-point  1180 :       0.4683    0.4683    0.4683
  band No.  band energies     occupation 
      1      -5.2634      2.00000
      2      -2.1296      2.00000
      3       4.1836      2.00000
      4       4.1836      2.00000
      5       7.7464      0.00000
      6       9.6377      0.00000
      7       9.6377      0.00000
      8      14.1189      0.00000

 k-point  1181 :       0.4697    0.4697    0.4697
  band No.  band energies     occupation 
      1      -5.2580      2.00000
      2      -2.1376      2.00000
      3       4.1828      2.00000
      4       4.1828      2.00000
      5       7.7456      0.00000
      6       9.6369      0.00000
      7       9.6369      0.00000
      8      14.1176      0.00000

 k-point  1182 :       0.4712    0.4712    0.4712
  band No.  band energies     occupation 
      1      -5.2528      2.00000
      2      -2.1452      2.00000
      3       4.1821      2.00000
      4       4.1821      2.00000
      5       7.7449      0.00000
      6       9.6361      0.00000
      7       9.6361      0.00000
      8      14.1164      0.00000

 k-point  1183 :       0.4726    0.4726    0.4726
  band No.  band energies     occupation 
      1      -5.2478      2.00000
      2      -2.1525      2.00000
      3       4.1815      2.00000
      4       4.1815      2.00000
      5       7.7442      0.00000
      6       9.6354      0.00000
      7       9.6354      0.00000
      8      14.1152      0.00000

 k-point  1184 :       0.4741    0.4741    0.4741
  band No.  band energies     occupation 
      1      -5.2430      2.00000
      2      -2.1595      2.00000
      3       4.1808      2.00000
      4       4.1808      2.00000
      5       7.7435      0.00000
      6       9.6347      0.00000
      7       9.6347      0.00000
      8      14.1141      0.00000

 k-point  1185 :       0.4755    0.4755    0.4755
  band No.  band energies     occupation 
      1      -5.2385      2.00000
      2      -2.1660      2.00000
      3       4.1802      2.00000
      4       4.1802      2.00000
      5       7.7429      0.00000
      6       9.6341      0.00000
      7       9.6341      0.00000
      8      14.1130      0.00000

 k-point  1186 :       0.4769    0.4769    0.4769
  band No.  band energies     occupation 
      1      -5.2342      2.00000
      2      -2.1722      2.00000
      3       4.1796      2.00000
      4       4.1796      2.00000
      5       7.7423      0.00000
      6       9.6334      0.00000
      7       9.6334      0.00000
      8      14.1120      0.00000

 k-point  1187 :       0.4784    0.4784    0.4784
  band No.  band energies     occupation 
      1      -5.2302      2.00000
      2      -2.1781      2.00000
      3       4.1791      2.00000
      4       4.1791      2.00000
      5       7.7417      0.00000
      6       9.6329      0.00000
      7       9.6329      0.00000
      8      14.1111      0.00000

 k-point  1188 :       0.4798    0.4798    0.4798
  band No.  band energies     occupation 
      1      -5.2264      2.00000
      2      -2.1836      2.00000
      3       4.1786      2.00000
      4       4.1786      2.00000
      5       7.7412      0.00000
      6       9.6323      0.00000
      7       9.6323      0.00000
      8      14.1102      0.00000

 k-point  1189 :       0.4813    0.4813    0.4813
  band No.  band energies     occupation 
      1      -5.2229      2.00000
      2      -2.1887      2.00000
      3       4.1781      2.00000
      4       4.1781      2.00000
      5       7.7407      0.00000
      6       9.6318      0.00000
      7       9.6318      0.00000
      8      14.1094      0.00000

 k-point  1190 :       0.4827    0.4827    0.4827
  band No.  band energies     occupation 
      1      -5.2196      2.00000
      2      -2.1935      2.00000
      3       4.1777      2.00000
      4       4.1777      2.00000
      5       7.7403      0.00000
      6       9.6313      0.00000
      7       9.6313      0.00000
      8      14.1087      0.00000

 k-point  1191 :       0.4841    0.4841    0.4841
  band No.  band energies     occupation 
      1      -5.2165      2.00000
      2      -2.1979      2.00000
      3       4.1773      2.00000
      4       4.1773      2.00000
      5       7.7399      0.00000
      6       9.6309      0.00000
      7       9.6309      0.00000
      8      14.1080      0.00000

 k-point  1192 :       0.4856    0.4856    0.4856
  band No.  band energies     occupation 
      1      -5.2137      2.00000
      2      -2.2019      2.00000
      3       4.1769      2.00000
      4       4.1769      2.00000
      5       7.7395      0.00000
      6       9.6305      0.00000
      7       9.6305      0.00000
      8      14.1073      0.00000

 k-point  1193 :       0.4870    0.4870    0.4870
  band No.  band energies     occupation 
      1      -5.2112      2.00000
      2      -2.2055      2.00000
      3       4.1766      2.00000
      4       4.1766      2.00000
      5       7.7391      0.00000
      6       9.6301      0.00000
      7       9.6301      0.00000
      8      14.1068      0.00000

 k-point  1194 :       0.4885    0.4885    0.4885
  band No.  band energies     occupation 
      1      -5.2090      2.00000
      2      -2.2088      2.00000
      3       4.1763      2.00000
      4       4.1763      2.00000
      5       7.7388      0.00000
      6       9.6298      0.00000
      7       9.6298      0.00000
      8      14.1062      0.00000

 k-point  1195 :       0.4899    0.4899    0.4899
  band No.  band energies     occupation 
      1      -5.2070      2.00000
      2      -2.2117      2.00000
      3       4.1760      2.00000
      4       4.1760      2.00000
      5       7.7386      0.00000
      6       9.6295      0.00000
      7       9.6295      0.00000
      8      14.1058      0.00000

 k-point  1196 :       0.4914    0.4914    0.4914
  band No.  band energies     occupation 
      1      -5.2052      2.00000
      2      -2.2142      2.00000
      3       4.1758      2.00000
      4       4.1758      2.00000
      5       7.7383      0.00000
      6       9.6293      0.00000
      7       9.6293      0.00000
      8      14.1054      0.00000

 k-point  1197 :       0.4928    0.4928    0.4928
  band No.  band energies     occupation 
      1      -5.2037      2.00000
      2      -2.2163      2.00000
      3       4.1756      2.00000
      4       4.1756      2.00000
      5       7.7381      0.00000
      6       9.6291      0.00000
      7       9.6291      0.00000
      8      14.1051      0.00000

 k-point  1198 :       0.4942    0.4942    0.4942
  band No.  band energies     occupation 
      1      -5.2025      2.00000
      2      -2.2180      2.00000
      3       4.1754      2.00000
      4       4.1754      2.00000
      5       7.7380      0.00000
      6       9.6289      0.00000
      7       9.6289      0.00000
      8      14.1048      0.00000

 k-point  1199 :       0.4957    0.4957    0.4957
  band No.  band energies     occupation 
      1      -5.2016      2.00000
      2      -2.2194      2.00000
      3       4.1753      2.00000
      4       4.1753      2.00000
      5       7.7378      0.00000
      6       9.6288      0.00000
      7       9.6288      0.00000
      8      14.1046      0.00000

 k-point  1200 :       0.4971    0.4971    0.4971
  band No.  band energies     occupation 
      1      -5.2009      2.00000
      2      -2.2204      2.00000
      3       4.1752      2.00000
      4       4.1752      2.00000
      5       7.7377      0.00000
      6       9.6287      0.00000
      7       9.6287      0.00000
      8      14.1044      0.00000

 k-point  1201 :       0.4986    0.4986    0.4986
  band No.  band energies     occupation 
      1      -5.2005      2.00000
      2      -2.2209      2.00000
      3       4.1752      2.00000
      4       4.1752      2.00000
      5       7.7377      0.00000
      6       9.6286      0.00000
      7       9.6286      0.00000
      8      14.1043      0.00000

 k-point  1202 :       0.5000    0.5000    0.5000
  band No.  band energies     occupation 
      1      -5.2004      2.00000
      2      -2.2211      2.00000
      3       4.1752      2.00000
      4       4.1752      2.00000
      5       7.7377      0.00000
      6       9.6286      0.00000
      7       9.6286      0.00000
      8      14.1043      0.00000


--------------------------------------------------------------------------------------------------------


 soft charge-density along one line, spin component           1
         0         1         2         3         4         5         6         7         8         9
 total charge-density along one line
 
 pseudopotential strength for first ion, spin component:           1
 17.851  24.907   0.000  -0.000   0.000   0.000  -0.000   0.000
 24.907  34.756   0.000  -0.000   0.000   0.000  -0.000   0.000
  0.000   0.000   4.076   0.000  -0.000   7.598   0.000  -0.000
 -0.000  -0.000   0.000   4.076   0.000   0.000   7.598   0.000
  0.000   0.000  -0.000   0.000   4.076  -0.000   0.000   7.598
  0.000   0.000   7.598   0.000  -0.000  14.174   0.000  -0.000
 -0.000  -0.000   0.000   7.598   0.000   0.000  14.174   0.000
  0.000   0.000  -0.000   0.000   7.598  -0.000   0.000  14.174
 total augmentation occupancy for first ion, spin component:           1
 11.034  -5.196   0.000  -0.000   0.000   0.000  -0.000   0.000
 -5.196   2.499   0.000   0.000   0.000   0.000  -0.000   0.000
  0.000   0.000   3.934   0.000   0.000  -1.044   0.000   0.000
  0.000   0.000   0.000   3.934  -0.000   0.000  -1.044  -0.000
  0.000   0.000  -0.000   0.000   3.934  -0.000   0.000  -1.044
  0.000  -0.000  -1.044   0.000   0.000   0.283   0.000  -0.000
  0.000   0.000  -0.000  -1.044  -0.000  -0.000   0.283   0.000
  0.000  -0.000   0.000   0.000  -1.044  -0.000   0.000   0.283


------------------------ aborting loop because EDIFF is reached ----------------------------------------


 


 total charge     
 
# of ion     s       p       d       tot
----------------------------------------
  1        0.753   0.972   0.000   1.725
  2        0.753   0.972   0.000   1.725
------------------------------------------------
tot        1.507   1.944   0.000   3.451
 
    FORLOC:  cpu time    0.0000: real time    0.0002
    FORHF :  cpu time   82.7652: real time   82.8197
    FORNL :  cpu time    0.0280: real time    0.0280
    STRESS:  cpu time    0.4080: real time    0.4052
    FORCOR:  cpu time    0.0160: real time    0.0191
    OFIELD:  cpu time    0.0000: real time    0.0001

  FORCE on cell =-STRESS in cart. coord.  units (eV):
  Direction    XX          YY          ZZ          XY          YZ          ZX
  --------------------------------------------------------------------------------------
  Alpha Z     3.36229     3.36229     3.36229
  Ewald     -76.17385   -76.17385   -76.17385     0.00000     0.00000    -0.00000
  Hartree     5.05799     5.05799     5.05799     0.00000    -0.00000    -0.00000
  E(xc)     -19.65143   -19.65143   -19.65143     0.00000    -0.00000    -0.00000
  Local     -29.22460   -29.22460   -29.22460     0.00001    -0.00001    -0.00001
  n-local    70.64031    75.93211    75.18301    -1.16342    -2.37031    -0.76789
  augment   -10.65096   -10.65096   -10.65096    -0.00001     0.00001     0.00001
  Kinetic    55.07394    57.18276    58.59644    -1.13693    -3.67179    -1.06870
  Fock            NaN         NaN         NaN         NaN         NaN         NaN
  -------------------------------------------------------------------------------------
  Total           NaN         NaN         NaN         NaN         NaN         NaN
  in kB           NaN         NaN         NaN         NaN         NaN         NaN
  external pressure =         NaN kB  Pullay stress =        0.00 kB


 VOLUME and BASIS-vectors are now :
 -----------------------------------------------------------------------------
  energy-cutoff  :      500.00
  volume of cell :       40.05
      direct lattice vectors                 reciprocal lattice vectors
     2.715500000  2.715500000  0.000000000     0.184128153  0.184128153  0.184128153
     2.715500000  0.000000000 -2.715500000     0.184128153 -0.184128153 -0.184128153
     0.000000000  2.715500000 -2.715500000    -0.184128153  0.184128153 -0.184128153

  length of vectors
     3.840296929  3.840296929  3.840296929     0.318919316  0.318919316  0.318919316


 FORCES acting on ions:
    Electron-Ion                     Ewald-Force                    Non-Local-Force
 -----------------------------------------------------------------------------------------------
   -.757E-08 -.475E-08 0.475E-08   -.923E-14 -.515E-14 0.930E-14   -.278E-16 -.139E-16 0.278E-16
   0.757E-08 0.475E-08 -.475E-08   0.907E-14 0.563E-14 -.939E-14   0.399E-16 0.139E-16 -.416E-16
 -----------------------------------------------------------------------------------------------
   0.676E-07 0.233E-06 -.361E-06   -.164E-15 0.474E-15 -.970E-16   0.121E-16 0.000E+00 -.139E-16
 
 
 POSITION                                       TOTAL-FORCE (eV/Angst)
 -----------------------------------------------------------------------------------
      0.00000      0.00000      0.00000              NaN           NaN           NaN
      1.35775      1.35775     -1.35775              NaN           NaN           NaN
 -----------------------------------------------------------------------------------
    total drift:                                     NaN           NaN           NaN


--------------------------------------------------------------------------------------------------------



  FREE ENERGIE OF THE ION-ELECTRON SYSTEM (eV)
  ---------------------------------------------------
  free  energy   TOTEN  =       -12.22100391 eV

  energy  without entropy=      -12.22100391  energy(sigma->0) =      -12.22100391
 


--------------------------------------------------------------------------------------------------------


    POTLOK:  cpu time    0.0880: real time    0.0879


--------------------------------------------------------------------------------------------------------




--------------------------------------------------------------------------------------------------------


  
 reached required accuracy - stopping structural energy minimisation
 writing wavefunctions
     LOOP+:  cpu time  730.2176: real time  731.6229
    4ORBIT:  cpu time    0.0000: real time    0.0000
 


 total charge     
 
# of ion     s       p       d       tot
----------------------------------------
  1        0.753   0.972   0.000   1.725
  2        0.753   0.972   0.000   1.725
------------------------------------------------
tot        1.507   1.944   0.000   3.451
 

 total amount of memory used by VASP on root node    75470. kBytes
========================================================================

   base      :      30000. kBytes
   nonl-proj :      17239. kBytes
   fftplans  :        473. kBytes
   grid      :        621. kBytes
   one-center:          3. kBytes
   HF        :          4. kBytes
   nonlr-proj:        361. kBytes
   wavefun   :      26769. kBytes
 
  
  
 General timing and accounting informations for this job:
 ========================================================
  
                  Total CPU time used (sec):      801.306
                            User time (sec):      797.862
                          System time (sec):        3.444
                         Elapsed time (sec):      805.406
  
                   Maximum memory used (kb):      202060.
                   Average memory used (kb):           0.
  
                          Minor page faults:        53852
                          Major page faults:            0
                 Voluntary context switches:         1307
