 running on   96 total cores
 distrk:  each k-point on   24 cores,    4 groups
 distr:  one band on    3 cores,    8 groups
 using from now: INCAR     
 vasp.5.4.1 24Jun15 (build Nov 25 2015 16:01:35) complex                        
  
 POSCAR found type information on POSCAR  C  N  H  Pb I 
 POSCAR found :  5 types and      96 ions
 scaLAPACK will be used

 ----------------------------------------------------------------------------- 
|                                                                             |
|           W    W    AA    RRRRR   N    N  II  N    N   GGGG   !!!           |
|           W    W   A  A   R    R  NN   N  II  NN   N  G    G  !!!           |
|           W    W  A    A  R    R  N N  N  II  N N  N  G       !!!           |
|           W WW W  AAAAAA  RRRRR   N  N N  II  N  N N  G  GGG   !            |
|           WW  WW  A    A  R   R   N   NN  II  N   NN  G    G                |
|           W    W  A    A  R    R  N    N  II  N    N   GGGG   !!!           |
|                                                                             |
|      For optimal performance we recommend to set                            |
|        NCORE= 4 - approx SQRT( number of cores)                             |
|      NCORE specifies how many cores store one orbital (NPAR=cpu/NCORE).     |
|      This setting can  greatly improve the performance of VASP for DFT.     |
|      The default, NPAR=number of cores might be grossly inefficient         |
|      on modern multi-core architectures or massively parallel machines.     |
|      Do your own testing !!!!                                               |
|      Unfortunately you need to use the default for GW and RPA calculations. |
|      (for HF NCORE is supported but not extensively tested yet)             |
|                                                                             |
 ----------------------------------------------------------------------------- 


 ----------------------------------------------------------------------------- 
|                                                                             |
|           W    W    AA    RRRRR   N    N  II  N    N   GGGG   !!!           |
|           W    W   A  A   R    R  NN   N  II  NN   N  G    G  !!!           |
|           W    W  A    A  R    R  N N  N  II  N N  N  G       !!!           |
|           W WW W  AAAAAA  RRRRR   N  N N  II  N  N N  G  GGG   !            |
|           WW  WW  A    A  R   R   N   NN  II  N   NN  G    G                |
|           W    W  A    A  R    R  N    N  II  N    N   GGGG   !!!           |
|                                                                             |
|      You have enabled k-point parallelism (KPAR>1).                         |
|      This developmental code was originally  written by Paul Kent at ORNL,  |
|      and carefully double checked in Vienna.                                |
|      GW as well as linear response parallelism added by Martijn Marsman     |
|      and Georg Kresse.                                                      |
|      Carefully verify results versus KPAR=1.                                |
|      Report problems to Paul Kent and Vienna.                               |
|                                                                             |
 ----------------------------------------------------------------------------- 


 ----------------------------------------------------------------------------- 
|                                                                             |
|  ADVICE TO THIS USER RUNNING 'VASP/VAMP'   (HEAR YOUR MASTER'S VOICE ...):  |
|                                                                             |
|      You have a (more or less) 'large supercell' and for larger cells       |
|      it might be more efficient to use real space projection opertators     |
|      So try LREAL= Auto  in the INCAR   file.                               |
|      Mind: At the moment your POTCAR file does not contain real space       |
|       projectors, and has to be modified,  BUT if you                       |
|      want to do an extremely  accurate calculation you might also keep the  |
|      reciprocal projection scheme          (i.e. LREAL=.FALSE.)             |
|                                                                             |
 ----------------------------------------------------------------------------- 


 ----------------------------------------------------------------------------- 
|                                                                             |
|  ADVICE TO THIS USER RUNNING 'VASP/VAMP'   (HEAR YOUR MASTER'S VOICE ...):  |
|                                                                             |
|      You enforced a specific xc-type in the INCAR file,                     |
|      a different type was found on the POTCAR file                          |
|          I HOPE YOU KNOW, WHAT YOU ARE  DOING                               |
|                                                                             |
 ----------------------------------------------------------------------------- 

 LDA part: xc-table for Pade appr. of Perdew
 POSCAR, INCAR and KPOINTS ok, starting setup
 WARNING: small aliasing (wrap around) errors must be expected
 FFT: planning ...
 WAVECAR not read
 entering main loop
       N       E                     dE             d eps       ncg     rms          rms(c)
DAV:   1     0.360212102013E+04    0.36021E+04   -0.18948E+05  7176   0.170E+03
DAV:   2     0.198139565557E+03   -0.34040E+04   -0.32061E+04  8016   0.355E+02
DAV:   3    -0.398762666056E+03   -0.59690E+03   -0.58835E+03  9456   0.172E+02
DAV:   4    -0.438648657067E+03   -0.39886E+02   -0.39715E+02  9600   0.488E+01
DAV:   5    -0.440172699649E+03   -0.15240E+01   -0.15218E+01  9760   0.925E+00    0.297E+01
DAV:   6    -0.419544443841E+03    0.20628E+02   -0.41692E+01  9440   0.103E+01    0.157E+01
DAV:   7    -0.417064213615E+03    0.24802E+01   -0.14657E+01 10208   0.638E+00    0.781E+00
DAV:   8    -0.416892977687E+03    0.17124E+00   -0.30414E+00  8608   0.318E+00    0.183E+00
DAV:   9    -0.416821486239E+03    0.71491E-01   -0.74493E-01  9408   0.175E+00    0.732E-01
DAV:  10    -0.416833491795E+03   -0.12006E-01   -0.11023E-01  9000   0.595E-01    0.456E-01
DAV:  11    -0.416833350146E+03    0.14165E-03   -0.13208E-02  9896   0.268E-01    0.201E-01
DAV:  12    -0.416834728750E+03   -0.13786E-02   -0.93282E-03  9808   0.154E-01    0.106E-01
DAV:  13    -0.416834875106E+03   -0.14636E-03   -0.13582E-03  8432   0.767E-02    0.725E-02
DAV:  14    -0.416834917368E+03   -0.42262E-04   -0.27682E-04  8592   0.290E-02    0.319E-02
DAV:  15    -0.416834961172E+03   -0.43804E-04   -0.15379E-04  8200   0.204E-02    0.119E-02
DAV:  16    -0.416834965004E+03   -0.38328E-05   -0.14652E-05 10680   0.734E-03    0.122E-02
DAV:  17    -0.416834964905E+03    0.99510E-07   -0.39597E-06  8208   0.350E-03    0.538E-03
DAV:  18    -0.416834964944E+03   -0.39501E-07   -0.86834E-06  9976   0.464E-03    0.378E-03
DAV:  19    -0.416834964921E+03    0.23490E-07   -0.87409E-07  8584   0.217E-03    0.238E-03
DAV:  20    -0.416834964933E+03   -0.11718E-07   -0.48954E-07  9440   0.108E-03    0.416E-04
DAV:  21    -0.416834964966E+03   -0.33317E-07   -0.43720E-08  8520   0.463E-04    0.390E-04
DAV:  22    -0.416834964962E+03    0.37726E-08   -0.74849E-09  7552   0.225E-04    0.284E-04
DAV:  23    -0.416834964969E+03   -0.71195E-08   -0.52611E-09  9048   0.156E-04    0.259E-04
DAV:  24    -0.416834964967E+03    0.25684E-08    0.28459E-10  7408   0.960E-05    0.218E-04
DAV:  25    -0.416834964964E+03    0.25902E-08    0.22135E-09  6848   0.497E-05    0.218E-04
DAV:  26    -0.416834964964E+03    0.17462E-09    0.24037E-09  5392   0.285E-05    0.214E-04
DAV:  27    -0.416834964965E+03   -0.14334E-08    0.15714E-09  4504   0.265E-05    0.210E-04
DAV:  28    -0.416834964966E+03   -0.43292E-09    0.21637E-09  4232   0.277E-05    0.210E-04
DAV:  29    -0.416834964966E+03   -0.32742E-09    0.22066E-09  4232   0.178E-05    0.210E-04
DAV:  30    -0.416834964966E+03    0.45475E-09    0.15182E-09  4224   0.980E-06    0.210E-04
DAV:  31    -0.416834964966E+03   -0.15280E-09    0.16543E-09  4208   0.740E-06    0.210E-04
DAV:  32    -0.416834964966E+03   -0.69122E-10    0.13536E-09  4208   0.510E-06    0.210E-04
DAV:  33    -0.416834964966E+03    0.50932E-10    0.94920E-10  4208   0.691E-06
   1 F= -.41683496E+03 E0= -.41683496E+03  d E =0.000000E+00
Application 22454135 resources: utime ~275467s, stime ~251s, Rss ~646816, inblocks ~883540, outblocks ~776286
