Name                                    
   5.43100000000000     
     0.500000    0.500000    0.000000
     0.500000    0.000000   -0.500000
     0.000000    0.500000   -0.500000
   Si
     2
Direct
  0.000000  0.000000  0.000000
  0.250000  0.250000  0.250000
 
   56   56   56
 -.75726287270E+01 -.69869540095E+01 -.52970865681E+01 -.26938851794E+01 0.53791526032E+00
 0.40631839753E+01 0.75449441766E+01 0.10688389213E+02 0.13272568043E+02 0.15166081883E+02
 0.16327717174E+02 0.16795930792E+02 0.16671682816E+02 0.16098000879E+02 0.15238286345E+02
 0.14251793701E+02 0.13233006150E+02 0.12226604756E+02 0.11268965898E+02 0.10387114665E+02
 0.95979044641E+01 0.89089297995E+01 0.83208333569E+01 0.78302945452E+01 0.74328778314E+01
 0.71250604786E+01 0.69050931420E+01 0.67727719447E+01 0.67285730660E+01 0.67727749695E+01
 0.69050975839E+01 0.71250639568E+01 0.74328784426E+01 0.78302918983E+01 0.83208288501E+01
 0.89089259599E+01 0.95979036390E+01 0.10387117693E+02 0.11268971456E+02 0.12226609778E+02
 0.13233007255E+02 0.14251789025E+02 0.15238276951E+02 0.16097991008E+02 0.16671678712E+02
 0.16795938434E+02 0.16327739781E+02 0.15166118231E+02 0.13272612367E+02 0.10688432858E+02
 0.75449784627E+01 0.40632031953E+01 0.53791863891E+00 -.26938933644E+01 -.52970987892E+01
 -.69869625362E+01 -.69869540095E+01 -.57956470235E+01 -.35530223718E+01 -.51569858318E+00
 0.29848914203E+01 0.65939075371E+01 0.99832749446E+01 0.12890928543E+02 0.15143461410E+02
 0.16661724555E+02 0.17453012174E+02 0.17594983131E+02 0.17215651077E+02 0.16472037994E+02
 0.15528826382E+02 0.14518482512E+02 0.13498270624E+02 0.12507694706E+02 0.11578318099E+02
 0.10732145258E+02 0.99815759922E+01 0.93309597177E+01 0.87792603202E+01 0.83230450867E+01
 0.79589865669E+01 0.76852970521E+01 0.75019276505E+01 0.74098199550E+01 0.74098217605E+01
 0.75019321331E+01 0.76853018792E+01 0.79589891794E+01 0.83230440060E+01 0.87792559349E+01
 0.93309541474E+01 0.99815720560E+01 0.10732145029E+02 0.11578321751E+02 0.12507700257E+02
 0.13498274792E+02 0.14518482366E+02 0.15528821064E+02 0.16472029695E+02 0.17215644699E+02
 0.17594984651E+02 0.17453026268E+02 0.16661752457E+02 0.15143499931E+02 0.12890970759E+02
 0.99833123889E+01 0.65939331110E+01 0.29849018882E+01 -.51570152824E+00 -.35530328960E+01
 -.57956575615E+01 -.69869583223E+01 -.52970865681E+01 -.35530223718E+01 -.87944183838E+00
 0.24165118637E+01 0.59800430381E+01 0.94629567412E+01 0.12569860073E+02 0.15088422359E+02
 0.16901283196E+02 0.17982262966E+02 0.18382199656E+02 0.18209627258E+02 0.17609761983E+02
 0.16743495968E+02 0.15762571830E+02 0.14749774188E+02 0.13746591834E+02 0.12787600326E+02
 0.11898961685E+02 0.11097563402E+02 0.10391723317E+02 0.97832843288E+01 0.92704700417E+01
 0.88506653414E+01 0.85223648320E+01 0.82858680276E+01 0.81427827214E+01 0.80948450132E+01
 0.81427860996E+01 0.82858730994E+01 0.85223690370E+01 0.88506664803E+01 0.92704673518E+01
 0.97832788826E+01 0.10391717537E+02 0.11097559906E+02 0.11898961997E+02 0.12787604082E+02
 0.13746596890E+02 0.14749777639E+02 0.15762571511E+02 0.16743491763E+02 0.17609756288E+02
 0.18209624313E+02 0.18382203939E+02 0.17982277267E+02 0.16901307205E+02 0.15088452391E+02
 0.12569890143E+02 0.94629806111E+01 0.59800564554E+01 0.24165140843E+01 -.87944787005E+00
 -.35530312833E+01 -.52970927774E+01 -.59030667247E+01 -.26938851794E+01 -.51569858318E+00
 0.24165118637E+01 0.57680758484E+01 0.91874851429E+01 0.12357736387E+02 0.15033965131E+02
 0.17062622130E+02 0.18383152660E+02 0.19016988828E+02 0.19049587363E+02 0.18609914935E+02
 0.17849762127E+02 0.16923473414E+02 0.15940561529E+02 0.14947362542E+02 0.13979937666E+02
 0.13067313165E+02 0.12230093505E+02 0.11480387187E+02 0.10823203275E+02 0.10258940221E+02
 0.97862184435E+01 0.94042117617E+01 0.91138386447E+01 0.89176190224E+01 0.88185239472E+01
 0.88185255951E+01 0.89176231976E+01 0.91138433877E+01 0.94042148057E+01 0.97862182386E+01
 0.10258936642E+02 0.10823197685E+02 0.11480381844E+02 0.12230090550E+02 0.13067313670E+02
 0.13979941163E+02 0.14947367257E+02 0.15940565231E+02 0.16923474496E+02 0.17849760446E+02
 0.18609912002E+02 0.19049585785E+02 0.19016991205E+02 0.18383160421E+02 0.17062634796E+02
 0.15033980354E+02 0.12357750775E+02 0.91874955311E+01 0.57680805112E+01 0.24165111357E+01
 -.51570252474E+00 -.26938892910E+01 -.38552737315E+01 -.38552720267E+01 0.53791526032E+00
 0.29848914203E+01 0.59800430381E+01 0.91874851429E+01 0.12283795015E+02 0.15001582646E+02
 0.17156070251E+02 0.18653409095E+02 0.19484255738E+02 0.19708250701E+02 0.19434512288E+02
 0.18801374260E+02 0.17956868911E+02 0.17026955973E+02 0.16067718191E+02 0.15115405734E+02
 0.14200548290E+02 0.13346388093E+02 0.12568232568E+02 0.11874164463E+02 0.11267020146E+02
 0.10747067406E+02 0.10314550569E+02 0.99713144173E+01 0.97210670480E+01 0.95683762207E+01
 0.95169972300E+01 0.95683788367E+01 0.97210711856E+01 0.99713183283E+01 0.10314552553E+02
 0.10747066497E+02 0.11267016503E+02 0.11874159321E+02 0.12568227765E+02 0.13346385374E+02
 0.14200548652E+02 0.15115409076E+02 0.16067723389E+02 0.17026961333E+02 0.17956872807E+02
 0.18801375716E+02 0.19434511267E+02 0.19708248034E+02 0.19484252738E+02 0.18653407040E+02
 0.17156069945E+02 0.15001584213E+02 0.12283797973E+02 0.91874886924E+01 0.59800463931E+01
 0.29848940533E+01 0.53791697375E+00 -.10659738325E+01 -.16245906505E+01 -.10659746513E+01
 0.40631839753E+01 0.65939075371E+01 0.94629567412E+01 0.12357736387E+02 0.15001582646E+02
 0.17186736103E+02 0.18789739346E+02 0.19770843937E+02 0.20162235487E+02 0.20050418760E+02
 0.19556750411E+02 0.18818299533E+02 0.17964581652E+02 0.17063652546E+02 0.16151239534E+02
 0.15258140605E+02 0.14409028802E+02 0.13621504099E+02 0.12906249617E+02 0.12268468348E+02
 0.11710262978E+02 0.11233228601E+02 0.10840405557E+02 0.10536950862E+02 0.10329372961E+02
 0.10223748208E+02 0.10223749269E+02 0.10329375778E+02 0.10536954455E+02 0.10840408632E+02
 0.11233229969E+02 0.11710261949E+02 0.12268465002E+02 0.12906244851E+02 0.13621499411E+02
 0.14409025863E+02 0.15258140741E+02 0.16151243255E+02 0.17063659287E+02 0.17964589842E+02
 0.18818306986E+02 0.19556754944E+02 0.20050418877E+02 0.20162230890E+02 0.19770835703E+02
 0.18789729678E+02 0.17186727713E+02 0.15001577947E+02 0.12357736740E+02 0.94629620045E+01
 0.65939160796E+01 0.40631931540E+01 0.21724830655E+01 0.11609475879E+01 0.11609449976E+01
 0.21724760997E+01 0.75449441766E+01 0.99832749446E+01 0.12569860073E+02 0.15033965131E+02
 0.17156070251E+02 0.18789739346E+02 0.19867494483E+02 0.20393984550E+02 0.20431372934E+02
 0.20081349944E+02 0.19466645566E+02 0.18711486173E+02 0.17892332906E+02 0.17044509617E+02
 0.16198077403E+02 0.15377969181E+02 0.14602997809E+02 0.13885659968E+02 0.13233102738E+02
 0.12649148278E+02 0.12136808367E+02 0.11700454084E+02 0.11346862420E+02 0.11084750208E+02
 0.10922990966E+02 0.10868246623E+02 0.10922992361E+02 0.11084752667E+02 0.11346865299E+02
 0.11700456499E+02 0.12136809376E+02 0.12649147164E+02 0.13233099340E+02 0.13885654924E+02
 0.14602992558E+02 0.15377965655E+02 0.16198077436E+02 0.17044514244E+02 0.17892341811E+02
 0.18711497544E+02 0.19466656500E+02 0.20081357307E+02 0.20431374452E+02 0.20393979711E+02
 0.19867484902E+02 0.18789728391E+02 0.17156062007E+02 0.15033963018E+02 0.12569865603E+02
 0.99832870839E+01 0.75449595777E+01 0.55396689019E+01 0.42196929368E+01 0.37589992992E+01
 0.42196845982E+01 0.55396548531E+01 0.10688389213E+02 0.12890928543E+02 0.15088422359E+02
 0.17062622130E+02 0.18653409095E+02 0.19770843937E+02 0.20393984550E+02 0.20560332459E+02
 0.20350218020E+02 0.19869484963E+02 0.19231712688E+02 0.18515413413E+02 0.17755241531E+02
 0.16979751579E+02 0.16213109818E+02 0.15474233433E+02 0.14776448227E+02 0.14128121165E+02
 0.13534354441E+02 0.12999356723E+02 0.12528738914E+02 0.12130889339E+02 0.11816843594E+02
 0.11598607024E+02 0.11486498787E+02 0.11486499164E+02 0.11598608145E+02 0.11816845358E+02
 0.12130891402E+02 0.12528740594E+02 0.12999357086E+02 0.13534352631E+02 0.14128116863E+02
 0.14776442046E+02 0.15474227010E+02 0.16213105456E+02 0.16979751509E+02 0.17755247034E+02
 0.18515424146E+02 0.19231726547E+02 0.19869498640E+02 0.20350228088E+02 0.20560336649E+02
 0.20393982703E+02 0.19770838229E+02 0.18653403383E+02 0.17062620587E+02 0.15088427898E+02
 0.12890941598E+02 0.10688407376E+02 0.87305833109E+01 0.72604545756E+01 0.64716474399E+01
 0.64716422564E+01 0.72604405770E+01 0.87305646125E+01 0.13272568043E+02 0.15143461410E+02
 0.16901283196E+02 0.18383152660E+02 0.19484255738E+02 0.20162235487E+02 0.20431372934E+02
 0.20350218020E+02 0.20006136241E+02 0.19498836244E+02 0.18902413609E+02 0.18249687477E+02
 0.17567109481E+02 0.16877239448E+02 0.16198077403E+02 0.15542730887E+02 0.14919864580E+02
 0.14335142570E+02 0.13793450352E+02 0.13301263465E+02 0.12868312696E+02 0.12507816556E+02
 0.12235010007E+02 0.12064331746E+02 0.12006176326E+02 0.12064331850E+02 0.12235010377E+02
 0.12507817310E+02 0.12868313635E+02 0.13301263920E+02 0.13793449329E+02 0.14335139159E+02
 0.14919858504E+02 0.15542722921E+02 0.16198069420E+02 0.16877233973E+02 0.17567108860E+02
 0.18249692977E+02 0.18902424812E+02 0.19498851026E+02 0.20006151442E+02 0.20350230547E+02
 0.20431380937E+02 0.20162239100E+02 0.19484257061E+02 0.18383154957E+02 0.16901289553E+02
 0.15143473402E+02 0.13272584911E+02 0.11492627862E+02 0.10019910722E+02 0.90469193777E+01
 0.87067327064E+01 0.90469100160E+01 0.10019894576E+02 0.11492609161E+02 0.15166081883E+02
 0.16661724555E+02 0.17982262966E+02 0.19016988828E+02 0.19708250701E+02 0.20050418760E+02
 0.20081349944E+02 0.19869484963E+02 0.19498836244E+02 0.19033678328E+02 0.18503354992E+02
 0.17931716100E+02 0.17339055671E+02 0.16741595551E+02 0.16151239534E+02 0.15575962541E+02
 0.15021096595E+02 0.14491436416E+02 0.13993663544E+02 0.13538281105E+02 0.13140237730E+02
 0.12817764172E+02 0.12589468367E+02 0.12470825836E+02 0.12470825542E+02 0.12589467637E+02
 0.12817763348E+02 0.13140237040E+02 0.13538280376E+02 0.13993662093E+02 0.14491433268E+02
 0.15021090947E+02 0.15575954288E+02 0.16151229604E+02 0.16741585876E+02 0.17339048702E+02
 0.17931714030E+02 0.18503358981E+02 0.19033688049E+02 0.19498849943E+02 0.19869500065E+02
 0.20081363962E+02 0.20050430175E+02 0.19708259446E+02 0.19016996156E+02 0.17982270802E+02
 0.16661734515E+02 0.15166094424E+02 0.13650069138E+02 0.12292591424E+02 0.11268586147E+02
 0.10717765205E+02 0.10717761760E+02 0.11268576691E+02 0.12292578251E+02 0.13650055097E+02
 0.16327717174E+02 0.17453012174E+02 0.18382199656E+02 0.19049587363E+02 0.19434512288E+02
 0.19556750411E+02 0.19466645566E+02 0.19231712688E+02 0.18902413609E+02 0.18503354992E+02
 0.18055344909E+02 0.17575910684E+02 0.17078831069E+02 0.16573978551E+02 0.16067718191E+02
 0.15564116248E+02 0.15066972718E+02 0.14582302656E+02 0.14120533017E+02 0.13697459028E+02
 0.13332671095E+02 0.13048672709E+02 0.12867483253E+02 0.12805132895E+02 0.12867482063E+02
 0.13048670659E+02 0.13332668637E+02 0.13697456436E+02 0.14120530141E+02 0.14582298895E+02
 0.15066967246E+02 0.15564108447E+02 0.16067708085E+02 0.16573967039E+02 0.17078819858E+02
 0.17575901895E+02 0.18055340450E+02 0.18503355980E+02 0.18902420020E+02 0.19231723374E+02
 0.19466658654E+02 0.19556763904E+02 0.19434524639E+02 0.19049597853E+02 0.18382208368E+02
 0.17453019707E+02 0.16327724163E+02 0.15113926291E+02 0.13949010787E+02 0.12979796322E+02
 0.12337347751E+02 0.12112386372E+02 0.12337345063E+02 0.12979791492E+02 0.13949004651E+02
 0.15113919582E+02 0.16795930792E+02 0.17594983131E+02 0.18209627258E+02 0.18609914935E+02
 0.18801374260E+02 0.18818299533E+02 0.18711486173E+02 0.18515413413E+02 0.18249687477E+02
 0.17931716100E+02 0.17575910684E+02 0.17193152621E+02 0.16790675327E+02 0.16372489984E+02
 0.15940561529E+02 0.15496798135E+02 0.15045588865E+02 0.14596231406E+02 0.14162889428E+02
 0.13765164597E+02 0.13429791588E+02 0.13185513795E+02 0.13056489419E+02 0.13056488487E+02
 0.13185511194E+02 0.13429787806E+02 0.13765160185E+02 0.14162884731E+02 0.14596226384E+02
 0.15045583096E+02 0.15496790990E+02 0.15940552508E+02 0.16372479063E+02 0.16790663139E+02
 0.17193140442E+02 0.17575900185E+02 0.17931708915E+02 0.18249684763E+02 0.18515415518E+02
 0.18711492526E+02 0.18818308782E+02 0.18801384624E+02 0.18609924615E+02 0.18209634851E+02
 0.17594987873E+02 0.16795932619E+02 0.15878955981E+02 0.14940975257E+02 0.14095951161E+02
 0.13456058987E+02 0.13111132155E+02 0.13111132846E+02 0.13456060838E+02 0.14095953543E+02
 0.14940977244E+02 0.15878956524E+02 0.16671682816E+02 0.17215651077E+02 0.17609761983E+02
 0.17849762127E+02 0.17956868911E+02 0.17964581652E+02 0.17892332906E+02 0.17755241531E+02
 0.17567109481E+02 0.17339055671E+02 0.17078831069E+02 0.16790675327E+02 0.16475750271E+02
 0.16133293659E+02 0.15762571830E+02 0.15365454720E+02 0.14948707023E+02 0.14522531792E+02
 0.14105829288E+02 0.13728094265E+02 0.13423980911E+02 0.13225992966E+02 0.13157214703E+02
 0.13225990544E+02 0.13423976480E+02 0.13728088507E+02 0.14105822921E+02 0.14522525320E+02
 0.14948700580E+02 0.15365448052E+02 0.15762564416E+02 0.16133284955E+02 0.16475740027E+02
 0.16790663781E+02 0.17078819019E+02 0.17339044372E+02 0.17567100330E+02 0.17755235708E+02
 0.17892330986E+02 0.17964583399E+02 0.17956873235E+02 0.17849767335E+02 0.17609766163E+02
 0.17215652594E+02 0.16671680766E+02 0.16011384307E+02 0.15295935933E+02 0.14606447228E+02
 0.14031010227E+02 0.13648824246E+02 0.13514871690E+02 0.13648828402E+02 0.14031017520E+02
 0.14606455894E+02 0.15295943929E+02 0.16011389857E+02 0.16098000879E+02 0.16472037994E+02
 0.16743495968E+02 0.16923473414E+02 0.17026955973E+02 0.17063652546E+02 0.17044509617E+02
 0.16979751579E+02 0.16877239448E+02 0.16741595551E+02 0.16573978551E+02 0.16372489984E+02
 0.16133293659E+02 0.15852517472E+02 0.15528826382E+02 0.15165260005E+02 0.14766938024E+02
 0.14350147385E+02 0.13944906566E+02 0.13589990811E+02 0.13325373880E+02 0.13183841859E+02
 0.13183840303E+02 0.13325369478E+02 0.13589984285E+02 0.13944898900E+02 0.14350139548E+02
 0.14766930713E+02 0.15165253464E+02 0.15528820392E+02 0.15852511448E+02 0.16133286889E+02
 0.16372481949E+02 0.16573969150E+02 0.16741585216E+02 0.16877229097E+02 0.16979742347E+02
 0.17044502525E+02 0.17063648125E+02 0.17026954047E+02 0.16923473058E+02 0.16743495720E+02
 0.16472036288E+02 0.16097996486E+02 0.15631028488E+02 0.15103461745E+02 0.14566983186E+02
 0.14084659695E+02 0.13719640208E+02 0.13522905122E+02 0.13522907690E+02 0.13719647348E+02
 0.14084669875E+02 0.14566994332E+02 0.15103471815E+02 0.15631036000E+02 0.15238286345E+02
 0.15528826382E+02 0.15762571830E+02 0.15940561529E+02 0.16067718191E+02 0.16151239534E+02
 0.16198077403E+02 0.16213109818E+02 0.16198077403E+02 0.16151239534E+02 0.16067718191E+02
 0.15940561529E+02 0.15762571830E+02 0.15528826382E+02 0.15238286345E+02 0.14890448823E+02
 0.14496717080E+02 0.14084916924E+02 0.13695298658E+02 0.13373284550E+02 0.13160487153E+02
 0.13086062301E+02 0.13160483428E+02 0.13373277783E+02 0.13695290031E+02 0.14084907814E+02
 0.14496708703E+02 0.14890441944E+02 0.15238281131E+02 0.15528822449E+02 0.15762568418E+02
 0.15940557779E+02 0.16067713470E+02 0.16151233608E+02 0.16198070506E+02 0.16213102555E+02
 0.16198070506E+02 0.16151233608E+02 0.16067713470E+02 0.15940557779E+02 0.15762568418E+02
 0.15528822449E+02 0.15238281131E+02 0.14890441944E+02 0.14496708703E+02 0.14084907814E+02
 0.13695290031E+02 0.13373277783E+02 0.13160483428E+02 0.13086062301E+02 0.13160487153E+02
 0.13373284550E+02 0.13695298658E+02 0.14084916924E+02 0.14496717080E+02 0.14890448823E+02
 0.14251793701E+02 0.14518482512E+02 0.14749774188E+02 0.14947362542E+02 0.15115405734E+02
 0.15258140605E+02 0.15377969181E+02 0.15474233433E+02 0.15542730887E+02 0.15575962541E+02
 0.15564116248E+02 0.15496798135E+02 0.15365454720E+02 0.15165260005E+02 0.14890448823E+02
 0.14545525636E+02 0.14153293252E+02 0.13752275646E+02 0.13390333865E+02 0.13115724781E+02
 0.12967509014E+02 0.12967506707E+02 0.13115718339E+02 0.13390324583E+02 0.13752265268E+02
 0.14153283505E+02 0.14545517798E+02 0.14890443464E+02 0.15165256967E+02 0.15365453338E+02
 0.15496797523E+02 0.15564115616E+02 0.15575961422E+02 0.15542729152E+02 0.15474231216E+02
 0.15377966697E+02 0.15258137992E+02 0.15115402976E+02 0.14947359493E+02 0.14749770663E+02
 0.14518478429E+02 0.14251789147E+02 0.13952889906E+02 0.13631132914E+02 0.13300008516E+02
 0.12981222906E+02 0.12703645773E+02 0.12497387902E+02 0.12387265274E+02 0.12387265732E+02
 0.12497389295E+02 0.12703648128E+02 0.12981226198E+02 0.13300012608E+02 0.13631137534E+02
 0.13952894678E+02 0.13233006150E+02 0.13498270624E+02 0.13746591834E+02 0.13979937666E+02
 0.14200548290E+02 0.14409028802E+02 0.14602997809E+02 0.14776448227E+02 0.14919864580E+02
 0.15021096595E+02 0.15066972718E+02 0.15045588865E+02 0.14948707023E+02 0.14766938024E+02
 0.14496717080E+02 0.14153293252E+02 0.13770137167E+02 0.13393909534E+02 0.13076218510E+02
 0.12863775617E+02 0.12789080556E+02 0.12863770297E+02 0.13076209064E+02 0.13393897984E+02
 0.13770125745E+02 0.14153283787E+02 0.14496710573E+02 0.14766934548E+02 0.14948705945E+02
 0.15045589294E+02 0.15066973873E+02 0.15021098071E+02 0.14919866343E+02 0.14776450394E+02
 0.14603000384E+02 0.14409031486E+02 0.14200550496E+02 0.13979938738E+02 0.13746591370E+02
 0.13498268733E+02 0.13233003518E+02 0.12951239074E+02 0.12657713666E+02 0.12362544467E+02
 0.12081073689E+02 0.11832070019E+02 0.11634980083E+02 0.11507974374E+02 0.11464065565E+02
 0.11507971993E+02 0.11634976138E+02 0.11832065829E+02 0.12081070582E+02 0.12362543298E+02
 0.12657714539E+02 0.12951241365E+02 0.12226604756E+02 0.12507694706E+02 0.12787600326E+02
 0.13067313165E+02 0.13346388093E+02 0.13621504099E+02 0.13885659968E+02 0.14128121165E+02
 0.14335142570E+02 0.14491436416E+02 0.14582302656E+02 0.14596231406E+02 0.14522531792E+02
 0.14350147385E+02 0.14084916924E+02 0.13752275646E+02 0.13393909534E+02 0.13060789960E+02
 0.12803809773E+02 0.12663917707E+02 0.12663914547E+02 0.12803801058E+02 0.13060777739E+02
 0.13393896451E+02 0.13752264117E+02 0.14084908475E+02 0.14350142381E+02 0.14522529616E+02
 0.14596231001E+02 0.14582303132E+02 0.14491437409E+02 0.14335144326E+02 0.14128124208E+02
 0.13885664636E+02 0.13621510160E+02 0.13346394653E+02 0.13067318960E+02 0.12787604246E+02
 0.12507696354E+02 0.12226604734E+02 0.11943726958E+02 0.11660673187E+02 0.11382630248E+02
 0.11118853697E+02 0.10882066003E+02 0.10686823391E+02 0.10547198806E+02 0.10474316819E+02
 0.10474314185E+02 0.10547191665E+02 0.10686813746E+02 0.10882056368E+02 0.11118846217E+02
 0.11382625980E+02 0.11660671849E+02 0.11943727190E+02 0.11268965898E+02 0.11578318099E+02
 0.11898961685E+02 0.12230093505E+02 0.12568232568E+02 0.12906249617E+02 0.13233102738E+02
 0.13534354441E+02 0.13793450352E+02 0.13993663544E+02 0.14120533017E+02 0.14162889428E+02
 0.14105829288E+02 0.13944906566E+02 0.13695298658E+02 0.13390333865E+02 0.13076218510E+02
 0.12803809773E+02 0.12618978192E+02 0.12553568428E+02 0.12618971441E+02 0.12803797960E+02
 0.13076204419E+02 0.13390320420E+02 0.13695287999E+02 0.13944899506E+02 0.14105825339E+02
 0.14162887318E+02 0.14120531495E+02 0.13993662016E+02 0.13793449118E+02 0.13534354476E+02
 0.13233105048E+02 0.12906254626E+02 0.12568239717E+02 0.12230101381E+02 0.11898968573E+02
 0.11578322748E+02 0.11268968146E+02 0.10970513193E+02 0.10683046876E+02 0.10408615013E+02
 0.10152114057E+02 0.99213474121E+01 0.97262053168E+01 0.95771647767E+01 0.94834802095E+01
 0.94514976135E+01 0.94834738773E+01 0.95771538870E+01 0.97261927622E+01 0.99213361488E+01
 0.10152106083E+02 0.10408610766E+02 0.10683045272E+02 0.10970512246E+02 0.10387114665E+02
 0.10732145258E+02 0.11097563402E+02 0.11480387187E+02 0.11874164463E+02 0.12268468348E+02
 0.12649148278E+02 0.12999356723E+02 0.13301263465E+02 0.13538281105E+02 0.13697459028E+02
 0.13765164597E+02 0.13728094265E+02 0.13589990811E+02 0.13373284550E+02 0.13115724781E+02
 0.12863775617E+02 0.12663917707E+02 0.12553568428E+02 0.12553564795E+02 0.12663907760E+02
 0.12863761854E+02 0.13115710349E+02 0.13373272155E+02 0.13589981875E+02 0.13728088664E+02
 0.13765161018E+02 0.13697455793E+02 0.13538277076E+02 0.13301258561E+02 0.12999351955E+02
 0.12649145197E+02 0.12268468241E+02 0.11874167677E+02 0.11480392872E+02 0.11097569842E+02
 0.10732150616E+02 0.10387117825E+02 0.10063101023E+02 0.97598417756E+01 0.94776614725E+01
 0.92185762361E+01 0.89867887632E+01 0.87884539114E+01 0.86308116361E+01 0.85209399820E+01
 0.84644533138E+01 0.84644502657E+01 0.85209317443E+01 0.86308005821E+01 0.87884429751E+01
 0.89867803569E+01 0.92185714164E+01 0.94776597054E+01 0.97598413478E+01 0.10063099919E+02
 0.95979044641E+01 0.99815759922E+01 0.10391723317E+02 0.10823203275E+02 0.11267020146E+02
 0.11710262978E+02 0.12136808367E+02 0.12528738914E+02 0.12868312696E+02 0.13140237730E+02
 0.13332671095E+02 0.13429791588E+02 0.13423980911E+02 0.13325373880E+02 0.13160487153E+02
 0.12967509014E+02 0.12789080556E+02 0.12663914547E+02 0.12618971441E+02 0.12663907760E+02
 0.12789068778E+02 0.12967495166E+02 0.13160474226E+02 0.13325363904E+02 0.13423974362E+02
 0.13429787459E+02 0.13332667528E+02 0.13140232995E+02 0.12868305988E+02 0.12528730703E+02
 0.12136800171E+02 0.11710256629E+02 0.11267016966E+02 0.10823203469E+02 0.10391725904E+02
 0.99815792488E+01 0.95979067198E+01 0.92427436754E+01 0.89162295471E+01 0.86179823345E+01
 0.83483032166E+01 0.81089351480E+01 0.79032310808E+01 0.77357551785E+01 0.76114864928E+01
 0.75348716816E+01 0.75089693268E+01 0.75348677554E+01 0.76114799757E+01 0.77357481916E+01
 0.79032256712E+01 0.81089324882E+01 0.83483032039E+01 0.86179837553E+01 0.89162307216E+01
 0.92427432896E+01 0.89089297995E+01 0.93309597177E+01 0.97832843288E+01 0.10258940221E+02
 0.10747067406E+02 0.11233228601E+02 0.11700454084E+02 0.12130889339E+02 0.12507816556E+02
 0.12817764172E+02 0.13048672709E+02 0.13185513795E+02 0.13225992966E+02 0.13183841859E+02
 0.13086062301E+02 0.12967506707E+02 0.12863770297E+02 0.12803801058E+02 0.12803797960E+02
 0.12863761854E+02 0.12967495166E+02 0.13086050466E+02 0.13183832097E+02 0.13225986409E+02
 0.13185510071E+02 0.13048670252E+02 0.12817761001E+02 0.12507811168E+02 0.12130881307E+02
 0.11700444233E+02 0.11233218589E+02 0.10747059025E+02 0.10258934653E+02 0.97832817035E+01
 0.93309591463E+01 0.89089298210E+01 0.85206501608E+01 0.81670107258E+01 0.78475625291E+01
 0.75617192614E+01 0.73096586112E+01 0.70927512068E+01 0.69134916160E+01 0.67750420642E+01
 0.66805798896E+01 0.66326463464E+01 0.66326457034E+01 0.66805783386E+01 0.67750405595E+01
 0.69134912200E+01 0.70927525664E+01 0.73096616249E+01 0.75617231041E+01 0.78475660342E+01
 0.81670129597E+01 0.85206509154E+01 0.83208333569E+01 0.87792603202E+01 0.92704700417E+01
 0.97862184435E+01 0.10314550569E+02 0.10840405557E+02 0.11346862420E+02 0.11816843594E+02
 0.12235010007E+02 0.12589468367E+02 0.12867483253E+02 0.13056489419E+02 0.13157214703E+02
 0.13183840303E+02 0.13160483428E+02 0.13115718339E+02 0.13076209064E+02 0.13060777739E+02
 0.13076204419E+02 0.13115710349E+02 0.13160474226E+02 0.13183832097E+02 0.13157209017E+02
 0.13056486616E+02 0.12867482493E+02 0.12589468015E+02 0.12235008332E+02 0.11816839406E+02
 0.11346855518E+02 0.10840396734E+02 0.10314541260E+02 0.97862101529E+01 0.92704637906E+01
 0.87792563253E+01 0.83208310378E+01 0.78998067034E+01 0.75178570360E+01 0.71747630098E+01
 0.68695540615E+01 0.66014657570E+01 0.63705247077E+01 0.61776998821E+01 0.60246883558E+01
 0.59134876199E+01 0.58459223176E+01 0.58232519167E+01 0.58459238532E+01 0.59134906874E+01
 0.60246928543E+01 0.61777054912E+01 0.63705308343E+01 0.66014716201E+01 0.68695589249E+01
 0.71747664711E+01 0.75178592513E+01 0.78998084152E+01 0.78302945452E+01 0.83230450867E+01
 0.88506653414E+01 0.94042117617E+01 0.99713144173E+01 0.10536950862E+02 0.11084750208E+02
 0.11598607024E+02 0.12064331746E+02 0.12470825836E+02 0.12805132895E+02 0.13056488487E+02
 0.13225990544E+02 0.13325369478E+02 0.13373277783E+02 0.13390324583E+02 0.13393897984E+02
 0.13393896451E+02 0.13390320420E+02 0.13373272155E+02 0.13325363904E+02 0.13225986409E+02
 0.13056486616E+02 0.12805133304E+02 0.12470827759E+02 0.12064333931E+02 0.11598608136E+02
 0.11084749275E+02 0.10536947562E+02 0.99713091465E+01 0.94042054696E+01 0.88506591839E+01
 0.83230400468E+01 0.78302911101E+01 0.73777907003E+01 0.69678102122E+01 0.66003955732E+01
 0.62744191946E+01 0.59885403085E+01 0.57418743015E+01 0.55342841533E+01 0.53663296014E+01
 0.52389979998E+01 0.51533664326E+01 0.51103104168E+01 0.51103122286E+01 0.51533715295E+01
 0.52390054444E+01 0.53663380839E+01 0.55342923048E+01 0.57418810233E+01 0.59885450278E+01
 0.62744219808E+01 0.66003970761E+01 0.69678114380E+01 0.73777926752E+01 0.74328778314E+01
 0.79589865669E+01 0.85223648320E+01 0.91138386447E+01 0.97210670480E+01 0.10329372961E+02
 0.10922990966E+02 0.11486498787E+02 0.12006176326E+02 0.12470825542E+02 0.12867482063E+02
 0.13185511194E+02 0.13423976480E+02 0.13589984285E+02 0.13695290031E+02 0.13752265268E+02
 0.13770125745E+02 0.13752264117E+02 0.13695287999E+02 0.13589981875E+02 0.13423974362E+02
 0.13185510071E+02 0.12867482493E+02 0.12470827759E+02 0.12006180123E+02 0.11486503490E+02
 0.10922995580E+02 0.10329376443E+02 0.97210686264E+01 0.91138380978E+01 0.85223625814E+01
 0.79589835541E+01 0.74328751830E+01 0.69497726430E+01 0.65122683086E+01 0.61205500181E+01
 0.57733621618E+01 0.54689433472E+01 0.52057378501E+01 0.49827749138E+01 0.47997254972E+01
 0.46567381924E+01 0.45541924202E+01 0.44924821235E+01 0.44718815703E+01 0.44924865377E+01
 0.45542001155E+01 0.46567472706E+01 0.47997338981E+01 0.49827810434E+01 0.52057410209E+01
 0.54689438842E+01 0.57733611666E+01 0.61205488846E+01 0.65122681874E+01 0.69497740411E+01
 0.71250604786E+01 0.76852970521E+01 0.82858680276E+01 0.89176190224E+01 0.95683762207E+01
 0.10223748208E+02 0.10868246623E+02 0.11486499164E+02 0.12064331850E+02 0.12589467637E+02
 0.13048670659E+02 0.13429787806E+02 0.13728088507E+02 0.13944898900E+02 0.14084907814E+02
 0.14153283505E+02 0.14153283787E+02 0.14084908475E+02 0.13944899506E+02 0.13728088664E+02
 0.13429787459E+02 0.13048670252E+02 0.12589468015E+02 0.12064333931E+02 0.11486503490E+02
 0.10868253043E+02 0.10223755815E+02 0.95683836136E+01 0.89176248248E+01 0.82858714183E+01
 0.76852981120E+01 0.71250601588E+01 0.66109703518E+01 0.61456986966E+01 0.57294087839E+01
 0.53606451310E+01 0.50372447230E+01 0.47570721601E+01 0.45184591464E+01 0.43203361244E+01
 0.41621379860E+01 0.40436129057E+01 0.39646504688E+01 0.39251881688E+01 0.39251903186E+01
 0.39646562090E+01 0.40436203732E+01 0.41621448470E+01 0.43203404140E+01 0.45184599321E+01
 0.47570697844E+01 0.50372405471E+01 0.53606409022E+01 0.57294058991E+01 0.61456976595E+01
 0.66109706286E+01 0.69050931420E+01 0.75019276505E+01 0.81427827214E+01 0.88185239472E+01
 0.95169972300E+01 0.10223749269E+02 0.10922992361E+02 0.11598608145E+02 0.12235010377E+02
 0.12817763348E+02 0.13332668637E+02 0.13765160185E+02 0.14105822921E+02 0.14350139548E+02
 0.14496708703E+02 0.14545517798E+02 0.14496710573E+02 0.14350142381E+02 0.14105825339E+02
 0.13765161018E+02 0.13332667528E+02 0.12817761001E+02 0.12235008332E+02 0.11598608136E+02
 0.10922995580E+02 0.10223755815E+02 0.95170060146E+01 0.88185331067E+01 0.81427903600E+01
 0.75019326051E+01 0.69050954339E+01 0.63580815598E+01 0.58635193619E+01 0.54214388682E+01
 0.50301098005E+01 0.46869357708E+01 0.43892104171E+01 0.41346076841E+01 0.39213754758E+01
 0.37482952801E+01 0.36145265565E+01 0.35194554005E+01 0.34626191032E+01 0.34437112283E+01
 0.34626220296E+01 0.35194599593E+01 0.36145306960E+01 0.37482970379E+01 0.39213737760E+01
 0.41346027494E+01 0.43892036305E+01 0.46869290482E+01 0.50301047600E+01 0.54214361439E+01
 0.58635183652E+01 0.63580807801E+01 0.67727719447E+01 0.74098199550E+01 0.80948450132E+01
 0.88185255951E+01 0.95683788367E+01 0.10329375778E+02 0.11084752667E+02 0.11816845358E+02
 0.12507817310E+02 0.13140237040E+02 0.13697456436E+02 0.14162884731E+02 0.14522525320E+02
 0.14766930713E+02 0.14890441944E+02 0.14890443464E+02 0.14766934548E+02 0.14522529616E+02
 0.14162887318E+02 0.13697455793E+02 0.13140232995E+02 0.12507811168E+02 0.11816839406E+02
 0.11084749275E+02 0.10329376443E+02 0.95683836136E+01 0.88185331067E+01 0.80948530547E+01
 0.74098264188E+01 0.67727756622E+01 0.61895959996E+01 0.56629120633E+01 0.51926259555E+01
 0.47767275024E+01 0.44121817497E+01 0.40957090680E+01 0.38243259597E+01 0.35956004376E+01
 0.34076652863E+01 0.32590945564E+01 0.31487624398E+01 0.30757686009E+01 0.30394513069E+01
 0.30394520278E+01 0.30757702279E+01 0.31487636212E+01 0.32590937752E+01 0.34076616050E+01
 0.35955939975E+01 0.38243179951E+01 0.40957014180E+01 0.44121760773E+01 0.47767245646E+01
 0.51926252608E+01 0.56629120801E+01 0.61895948375E+01 0.67285730660E+01 0.74098217605E+01
 0.81427860996E+01 0.89176231976E+01 0.97210711856E+01 0.10536954455E+02 0.11346865299E+02
 0.12130891402E+02 0.12868313635E+02 0.13538280376E+02 0.14120530141E+02 0.14596226384E+02
 0.14948700580E+02 0.15165253464E+02 0.15238281131E+02 0.15165256967E+02 0.14948705945E+02
 0.14596231001E+02 0.14120531495E+02 0.13538277076E+02 0.12868305988E+02 0.12130881307E+02
 0.11346855518E+02 0.10536947562E+02 0.97210686264E+01 0.89176248248E+01 0.81427903600E+01
 0.74098264188E+01 0.67285761544E+01 0.61052661142E+01 0.55426873045E+01 0.50407380324E+01
 0.45972209970E+01 0.42087301728E+01 0.38714553339E+01 0.35817728868E+01 0.33365657233E+01
 0.31332973403E+01 0.29699291207E+01 0.28447936402E+01 0.27565156851E+01 0.27040195887E+01
 0.26866028770E+01 0.27040193297E+01 0.27565145987E+01 0.28447909367E+01 0.29699243106E+01
 0.31332906583E+01 0.33365582255E+01 0.35817661358E+01 0.38714507926E+01 0.42087285659E+01
 0.45972219492E+01 0.50407401675E+01 0.55426888053E+01 0.61052655225E+01 0.67727749695E+01
 0.75019321331E+01 0.82858730994E+01 0.91138433877E+01 0.99713183283E+01 0.10840408632E+02