   2   2   1   0
  0.2002393E+02  0.3840297E-09  0.3840297E-09  0.3840297E-09  0.5000000E-15
  1.000000000000000E-004
  CAR 
 Name                                    
     30.54417698     -7.94368819  301      5.84779683      1.00000000
     -7.944  0.0000E+00  0.0000E+00
     -7.815  0.0000E+00  0.0000E+00
     -7.687  0.0000E+00  0.0000E+00
     -7.559  0.0000E+00  0.0000E+00
     -7.431  0.0000E+00  0.0000E+00
     -7.302  0.0000E+00  0.0000E+00
     -7.174  0.0000E+00  0.0000E+00
     -7.046  0.0000E+00  0.0000E+00
     -6.917  0.0000E+00  0.0000E+00
     -6.789  0.0000E+00  0.0000E+00
     -6.661  0.0000E+00  0.0000E+00
     -6.532  0.0000E+00  0.0000E+00
     -6.404  0.0000E+00  0.0000E+00
     -6.276  0.0000E+00  0.0000E+00
     -6.148  0.7217E-01  0.9259E-02
     -6.019  0.0000E+00  0.9259E-02
     -5.891  0.0000E+00  0.9259E-02
     -5.763  0.5774E+00  0.8333E-01
     -5.634  0.4330E+00  0.1389E+00
     -5.506  0.0000E+00  0.1389E+00
     -5.378  0.0000E+00  0.1389E+00
     -5.250  0.9114E-01  0.1506E+00
     -5.121  0.0000E+00  0.2500E+00
     -4.993  0.0000E+00  0.2500E+00
     -4.865  0.1732E+01  0.4722E+00
     -4.736  0.5774E+00  0.5463E+00
     -4.608  0.0000E+00  0.5463E+00
     -4.480  0.0000E+00  0.5463E+00
     -4.351  0.0000E+00  0.5463E+00
     -4.223  0.4330E+00  0.6019E+00
     -4.095  0.7444E-02  0.6028E+00
     -3.967  0.0000E+00  0.8241E+00
     -3.838  0.1961E+01  0.1076E+01
     -3.710  0.9343E-03  0.1083E+01
     -3.582  0.0000E+00  0.1306E+01
     -3.453  0.0000E+00  0.1306E+01
     -3.325  0.0000E+00  0.1306E+01
     -3.197  0.0000E+00  0.1306E+01
     -3.069  0.1732E+01  0.1528E+01
     -2.940  0.6566E-05  0.1528E+01
     -2.812  0.0000E+00  0.1861E+01
     -2.684  0.0000E+00  0.1861E+01
     -2.555  0.0000E+00  0.1861E+01
     -2.427  0.0000E+00  0.1861E+01
     -2.299  0.0000E+00  0.1861E+01
     -2.171  0.0000E+00  0.1861E+01
     -2.042  0.4270E-01  0.1867E+01
     -1.914  0.4013E+00  0.1968E+01
     -1.786  0.0000E+00  0.2139E+01
     -1.657  0.0000E+00  0.2139E+01
     -1.529  0.0000E+00  0.2139E+01
     -1.401  0.0000E+00  0.2139E+01
     -1.272  0.1420E-13  0.2139E+01
     -1.144  0.2887E+00  0.2176E+01
     -1.016  0.1732E+01  0.2398E+01
     -0.888  0.4584E-09  0.2509E+01
     -0.759  0.1721E+01  0.2952E+01
     -0.631  0.0000E+00  0.2954E+01
     -0.503  0.0000E+00  0.2954E+01
     -0.374  0.0000E+00  0.2954E+01
     -0.246  0.2416E+00  0.2985E+01
     -0.118  0.0000E+00  0.3176E+01
      0.010  0.0000E+00  0.3176E+01
      0.139  0.3428E+00  0.3220E+01
      0.267  0.0000E+00  0.3398E+01
      0.395  0.3804E-06  0.3398E+01
      0.524  0.0000E+00  0.3472E+01
      0.652  0.0000E+00  0.3472E+01
      0.780  0.1768E+00  0.3495E+01
      0.909  0.0000E+00  0.3528E+01
      1.037  0.0000E+00  0.3528E+01
      1.165  0.0000E+00  0.3528E+01
      1.293  0.1229E-03  0.3528E+01
      1.422  0.1732E+01  0.3861E+01
      1.550  0.0000E+00  0.3861E+01
      1.678  0.6250E-14  0.3861E+01
      1.807  0.1732E+01  0.4083E+01
      1.935  0.0000E+00  0.4083E+01
      2.063  0.2648E+00  0.4117E+01
      2.191  0.3435E+01  0.4857E+01
      2.320  0.0000E+00  0.4861E+01
      2.448  0.0000E+00  0.4861E+01
      2.576  0.0000E+00  0.4861E+01
      2.705  0.2943E+00  0.4899E+01
      2.833  0.0000E+00  0.5083E+01
      2.961  0.4332E+00  0.5139E+01
      3.089  0.0000E+00  0.5583E+01
      3.218  0.5542E+00  0.5654E+01
      3.346  0.5446E+00  0.5875E+01
      3.474  0.1748E+01  0.6252E+01
      3.603  0.0000E+00  0.6324E+01
      3.731  0.8662E+00  0.6435E+01
      3.859  0.0000E+00  0.6713E+01
      3.988  0.7656E-02  0.6714E+01
      4.116  0.0000E+00  0.7157E+01
      4.244  0.0000E+00  0.7157E+01
      4.372  0.0000E+00  0.7157E+01
      4.501  0.1587E+01  0.7361E+01
      4.629  0.1443E+01  0.7565E+01
      4.757  0.1590E-05  0.7565E+01
      4.886  0.0000E+00  0.7713E+01
      5.014  0.0000E+00  0.7713E+01
      5.142  0.0000E+00  0.7713E+01
      5.270  0.8661E+00  0.7824E+01
      5.399  0.1155E+01  0.7972E+01
      5.527  0.0000E+00  0.7972E+01
      5.655  0.0000E+00  0.7972E+01
      5.784  0.6040E-02  0.7973E+01
      5.912  0.0000E+00  0.8000E+01
      6.040  0.0000E+00  0.8000E+01
      6.169  0.0000E+00  0.8000E+01
      6.297  0.0000E+00  0.8000E+01
      6.425  0.8501E+00  0.8109E+01
      6.553  0.0000E+00  0.8111E+01
      6.682  0.0000E+00  0.8111E+01
      6.810  0.1732E+01  0.8333E+01
      6.938  0.0000E+00  0.8333E+01
      7.067  0.0000E+00  0.8333E+01
      7.195  0.1923E-15  0.8333E+01
      7.323  0.1155E+01  0.8481E+01
      7.451  0.4330E+00  0.8537E+01
      7.580  0.0000E+00  0.8611E+01
      7.708  0.2165E+01  0.8889E+01
      7.836  0.0000E+00  0.9111E+01
      7.965  0.0000E+00  0.9111E+01
      8.093  0.5169E+00  0.9177E+01
      8.221  0.1732E+01  0.9407E+01
      8.350  0.2165E+00  0.9435E+01
      8.478  0.3464E+01  0.9880E+01
      8.606  0.1732E+01  0.1010E+02
      8.734  0.2194E-11  0.1010E+02
      8.863  0.8661E+00  0.1021E+02
      8.991  0.1155E+01  0.1036E+02
      9.119  0.2345E+01  0.1066E+02
      9.248  0.9055E+00  0.1078E+02
      9.376  0.8662E+00  0.1115E+02
      9.504  0.0000E+00  0.1137E+02
      9.632  0.8661E+00  0.1148E+02
      9.761  0.4225E-03  0.1148E+02
      9.889  0.3464E+01  0.1215E+02
     10.017  0.3633E+01  0.1261E+02
     10.146  0.8661E+00  0.1276E+02
     10.274  0.1732E+01  0.1298E+02
     10.402  0.1732E+01  0.1320E+02
     10.530  0.0000E+00  0.1320E+02
     10.659  0.0000E+00  0.1320E+02
     10.787  0.2412E-07  0.1320E+02
     10.915  0.0000E+00  0.1343E+02
     11.044  0.0000E+00  0.1343E+02
     11.172  0.1717E-04  0.1343E+02
     11.300  0.0000E+00  0.1350E+02
     11.429  0.8661E+00  0.1361E+02
     11.557  0.8661E+00  0.1372E+02
     11.685  0.0000E+00  0.1372E+02
     11.813  0.1152E+01  0.1387E+02
     11.942  0.0000E+00  0.1406E+02
     12.070  0.0000E+00  0.1406E+02
     12.198  0.1732E+01  0.1428E+02
     12.327  0.1733E+01  0.1461E+02
     12.455  0.2032E-07  0.1467E+02
     12.583  0.0000E+00  0.1489E+02
     12.711  0.0000E+00  0.1489E+02
     12.840  0.3751E+01  0.1537E+02
     12.968  0.3601E-05  0.1537E+02
     13.096  0.2598E+01  0.1593E+02
     13.225  0.3567E+01  0.1638E+02
     13.353  0.2021E+01  0.1674E+02
     13.481  0.7566E-01  0.1686E+02
     13.610  0.0000E+00  0.1695E+02
     13.738  0.1151E+01  0.1710E+02
     13.866  0.0000E+00  0.1710E+02
     13.994  0.1161E-03  0.1710E+02
     14.123  0.0000E+00  0.1716E+02
     14.251  0.0000E+00  0.1716E+02
     14.379  0.0000E+00  0.1716E+02
     14.508  0.0000E+00  0.1716E+02
     14.636  0.3755E-04  0.1716E+02
     14.764  0.1869E+01  0.1747E+02
     14.892  0.3297E+01  0.1795E+02
     15.021  0.9349E-12  0.1797E+02
     15.149  0.4194E+01  0.1851E+02
     15.277  0.0000E+00  0.1853E+02
     15.406  0.4330E+00  0.1858E+02
     15.534  0.1007E-13  0.1858E+02
     15.662  0.2598E+01  0.1892E+02
     15.790  0.0000E+00  0.1892E+02
     15.919  0.4330E+00  0.1897E+02
     16.047  0.1626E+01  0.1918E+02
     16.175  0.8661E+00  0.1931E+02
     16.304  0.8719E+00  0.1964E+02
     16.432  0.3231E-01  0.2012E+02
     16.560  0.0000E+00  0.2034E+02
     16.689  0.3981E-08  0.2034E+02
     16.817  0.2337E-03  0.2040E+02
     16.945  0.2165E+00  0.2065E+02
     17.073  0.6433E+00  0.2073E+02
     17.202  0.2598E+01  0.2109E+02
     17.330  0.0000E+00  0.2109E+02
     17.458  0.1440E+01  0.2128E+02
     17.587  0.1610E+01  0.2152E+02
     17.715  0.1745E+01  0.2176E+02
     17.843  0.0000E+00  0.2187E+02
     17.971  0.0000E+00  0.2187E+02
     18.100  0.1728E+01  0.2209E+02
     18.228  0.7212E-16  0.2209E+02
     18.356  0.8661E+00  0.2220E+02
     18.485  0.2650E-02  0.2243E+02
     18.613  0.1753E+01  0.2287E+02
     18.741  0.2601E+01  0.2343E+02
     18.870  0.1155E+01  0.2383E+02
     18.998  0.1440E-09  0.2406E+02
     19.126  0.1474E+01  0.2436E+02
     19.254  0.1204E+01  0.2454E+02
     19.383  0.0000E+00  0.2457E+02
     19.511  0.1732E+01  0.2480E+02
     19.639  0.0000E+00  0.2502E+02
     19.768  0.0000E+00  0.2502E+02
     19.896  0.0000E+00  0.2502E+02
     20.024  0.8525E+00  0.2513E+02
     20.152  0.0000E+00  0.2513E+02
     20.281  0.6523E-11  0.2513E+02
     20.409  0.2887E+01  0.2550E+02
     20.537  0.1080E-02  0.2550E+02
     20.666  0.1732E+01  0.2606E+02
     20.794  0.4330E+00  0.2611E+02
     20.922  0.7217E-01  0.2612E+02
     21.051  0.1732E+01  0.2634E+02
     21.179  0.1732E+01  0.2656E+02
     21.307  0.7990E+00  0.2667E+02
     21.435  0.1530E-02  0.2668E+02
     21.564  0.1732E+01  0.2712E+02
     21.692  0.5449E+00  0.2719E+02
     21.820  0.8670E+00  0.2768E+02
     21.949  0.3566E+00  0.2794E+02
     22.077  0.2165E+01  0.2845E+02
     22.205  0.1732E+01  0.2868E+02
     22.333  0.1732E+01  0.2890E+02
     22.462  0.8661E+00  0.2901E+02
     22.590  0.1992E+01  0.2926E+02
     22.718  0.2975E+01  0.2969E+02
     22.847  0.1060E-08  0.2975E+02
     22.975  0.1732E+01  0.3005E+02
     23.103  0.0000E+00  0.3005E+02
     23.231  0.0000E+00  0.3005E+02
     23.360  0.1443E+01  0.3023E+02
     23.488  0.0000E+00  0.3023E+02
     23.616  0.2971E+01  0.3061E+02
     23.745  0.1732E+01  0.3112E+02
     23.873  0.0000E+00  0.3112E+02
     24.001  0.4330E+00  0.3118E+02
     24.130  0.0000E+00  0.3118E+02
     24.258  0.1789E-05  0.3118E+02
     24.386  0.2852E-01  0.3140E+02
     24.514  0.4318E+00  0.3156E+02
     24.643  0.0000E+00  0.3156E+02
     24.771  0.1732E+01  0.3179E+02
     24.899  0.0000E+00  0.3179E+02
     25.028  0.3048E-08  0.3179E+02
     25.156  0.1653E-03  0.3182E+02
     25.284  0.0000E+00  0.3188E+02
     25.412  0.0000E+00  0.3188E+02
     25.541  0.0000E+00  0.3188E+02
     25.669  0.4986E+00  0.3194E+02
     25.797  0.0000E+00  0.3199E+02
     25.926  0.0000E+00  0.3199E+02
     26.054  0.0000E+00  0.3199E+02
     26.182  0.0000E+00  0.3199E+02
     26.311  0.0000E+00  0.3199E+02
     26.439  0.0000E+00  0.3199E+02
     26.567  0.0000E+00  0.3199E+02
     26.695  0.0000E+00  0.3199E+02
     26.824  0.0000E+00  0.3199E+02
     26.952  0.0000E+00  0.3199E+02
     27.080  0.0000E+00  0.3199E+02
     27.209  0.0000E+00  0.3199E+02
     27.337  0.0000E+00  0.3199E+02
     27.465  0.0000E+00  0.3199E+02
     27.593  0.0000E+00  0.3199E+02
     27.722  0.0000E+00  0.3199E+02
     27.850  0.0000E+00  0.3199E+02
     27.978  0.0000E+00  0.3199E+02
     28.107  0.0000E+00  0.3199E+02
     28.235  0.0000E+00  0.3199E+02
     28.363  0.0000E+00  0.3199E+02
     28.491  0.0000E+00  0.3199E+02
     28.620  0.0000E+00  0.3199E+02
     28.748  0.1508E-11  0.3199E+02
     28.876  0.0000E+00  0.3200E+02
     29.005  0.0000E+00  0.3200E+02
     29.133  0.0000E+00  0.3200E+02
     29.261  0.0000E+00  0.3200E+02
     29.390  0.0000E+00  0.3200E+02
     29.518  0.0000E+00  0.3200E+02
     29.646  0.0000E+00  0.3200E+02
     29.774  0.0000E+00  0.3200E+02
     29.903  0.0000E+00  0.3200E+02
     30.031  0.0000E+00  0.3200E+02
     30.159  0.0000E+00  0.3200E+02
     30.288  0.0000E+00  0.3200E+02
     30.416  0.0000E+00  0.3200E+02
     30.544  0.0000E+00  0.3200E+02
     30.54417698     -7.94368819  301      5.84779683      1.00000000
     -7.944  0.0000E+00  0.0000E+00  0.0000E+00
     -7.815  0.0000E+00  0.0000E+00  0.0000E+00
     -7.687  0.0000E+00  0.0000E+00  0.0000E+00
     -7.559  0.0000E+00  0.0000E+00  0.0000E+00
     -7.431  0.0000E+00  0.0000E+00  0.0000E+00
     -7.302  0.0000E+00  0.0000E+00  0.0000E+00
     -7.174  0.0000E+00  0.0000E+00  0.0000E+00
     -7.046  0.0000E+00  0.0000E+00  0.0000E+00
     -6.917  0.0000E+00  0.0000E+00  0.0000E+00
     -6.789  0.0000E+00  0.0000E+00  0.0000E+00
     -6.661  0.0000E+00  0.0000E+00  0.0000E+00
     -6.532  0.0000E+00  0.0000E+00  0.0000E+00
     -6.404  0.0000E+00  0.0000E+00  0.0000E+00
     -6.276  0.0000E+00  0.0000E+00  0.0000E+00
     -6.148  0.1536E-01  0.6344E-19  0.0000E+00
     -6.019  0.0000E+00  0.0000E+00  0.0000E+00
     -5.891  0.0000E+00  0.0000E+00  0.0000E+00
     -5.763  0.1219E+00  0.2231E-02  0.0000E+00
     -5.634  0.9110E-01  0.2309E-02  0.0000E+00
     -5.506  0.0000E+00  0.0000E+00  0.0000E+00
     -5.378  0.0000E+00  0.0000E+00  0.0000E+00
     -5.250  0.1906E-01  0.8965E-03  0.0000E+00
     -5.121  0.0000E+00  0.0000E+00  0.0000E+00
     -4.993  0.0000E+00  0.0000E+00  0.0000E+00
     -4.865  0.3599E+00  0.2332E-01  0.0000E+00
     -4.736  0.1215E+00  0.7339E-02  0.0000E+00
     -4.608  0.0000E+00  0.0000E+00  0.0000E+00
     -4.480  0.0000E+00  0.0000E+00  0.0000E+00
     -4.351  0.0000E+00  0.0000E+00  0.0000E+00
     -4.223  0.8812E-01  0.9032E-02  0.0000E+00
     -4.095  0.1576E-02  0.1374E-03  0.0000E+00
     -3.967  0.0000E+00  0.0000E+00  0.0000E+00
     -3.838  0.4093E+00  0.4238E-01  0.0000E+00
     -3.710  0.2028E-03  0.1800E-04  0.0000E+00
     -3.582  0.0000E+00  0.0000E+00  0.0000E+00
     -3.453  0.0000E+00  0.0000E+00  0.0000E+00
     -3.325  0.0000E+00  0.0000E+00  0.0000E+00
     -3.197  0.0000E+00  0.0000E+00  0.0000E+00
     -3.069  0.3518E+00  0.5425E-01  0.0000E+00
     -2.940  0.1408E-05  0.1834E-06  0.0000E+00
     -2.812  0.0000E+00  0.0000E+00  0.0000E+00
     -2.684  0.0000E+00  0.0000E+00  0.0000E+00
     -2.555  0.0000E+00  0.0000E+00  0.0000E+00
     -2.427  0.0000E+00  0.0000E+00  0.0000E+00
     -2.299  0.0000E+00  0.0000E+00  0.0000E+00
     -2.171  0.0000E+00  0.0000E+00  0.0000E+00
     -2.042  0.8247E-02  0.1944E-02  0.0000E+00
     -1.914  0.8092E-01  0.1736E-01  0.0000E+00
     -1.786  0.0000E+00  0.0000E+00  0.0000E+00
     -1.657  0.0000E+00  0.0000E+00  0.0000E+00
     -1.529  0.0000E+00  0.0000E+00  0.0000E+00
     -1.401  0.0000E+00  0.0000E+00  0.0000E+00
     -1.272  0.1376E-14  0.1335E-14  0.0000E+00
     -1.144  0.2797E-01  0.2714E-01  0.0000E+00
     -1.016  0.2853E+00  0.1161E+00  0.0000E+00
     -0.888  0.5502E-10  0.4001E-10  0.0000E+00
     -0.759  0.3190E+00  0.1046E+00  0.0000E+00
     -0.631  0.0000E+00  0.0000E+00  0.0000E+00
     -0.503  0.0000E+00  0.0000E+00  0.0000E+00
     -0.374  0.0000E+00  0.0000E+00  0.0000E+00
     -0.246  0.3017E-01  0.2179E-01  0.0000E+00
     -0.118  0.0000E+00  0.0000E+00  0.0000E+00
      0.010  0.0000E+00  0.0000E+00  0.0000E+00
      0.139  0.5825E-01  0.2611E-01  0.0000E+00
      0.267  0.0000E+00  0.0000E+00  0.0000E+00
      0.395  0.3975E-07  0.3933E-07  0.0000E+00
      0.524  0.0000E+00  0.0000E+00  0.0000E+00
      0.652  0.0000E+00  0.0000E+00  0.0000E+00
      0.780  0.3087E-01  0.1395E-01  0.0000E+00
      0.909  0.0000E+00  0.0000E+00  0.0000E+00
      1.037  0.0000E+00  0.0000E+00  0.0000E+00
      1.165  0.0000E+00  0.0000E+00  0.0000E+00
      1.293  0.4754E-06  0.1846E-04  0.0000E+00
      1.422  0.2189E+00  0.1800E+00  0.0000E+00
      1.550  0.0000E+00  0.0000E+00  0.0000E+00
      1.678  0.1294E-15  0.9290E-15  0.0000E+00
      1.807  0.3587E-01  0.2575E+00  0.0000E+00
      1.935  0.0000E+00  0.0000E+00  0.0000E+00
      2.063  0.3243E-01  0.2988E-01  0.0000E+00
      2.191  0.3059E-01  0.5502E+00  0.0000E+00
      2.320  0.0000E+00  0.0000E+00  0.0000E+00
      2.448  0.0000E+00  0.0000E+00  0.0000E+00
      2.576  0.0000E+00  0.0000E+00  0.0000E+00
      2.705  0.1044E-01  0.4541E-01  0.0000E+00
      2.833  0.0000E+00  0.0000E+00  0.0000E+00
      2.961  0.7733E-05  0.8543E-01  0.0000E+00
      3.089  0.0000E+00  0.0000E+00  0.0000E+00
      3.218  0.3236E-17  0.1101E+00  0.0000E+00
      3.346  0.5983E-02  0.9314E-01  0.0000E+00
      3.474  0.4913E-01  0.2973E+00  0.0000E+00
      3.603  0.0000E+00  0.0000E+00  0.0000E+00
      3.731  0.1052E-04  0.1759E+00  0.0000E+00
      3.859  0.0000E+00  0.0000E+00  0.0000E+00
      3.988  0.2768E-18  0.1580E-02  0.0000E+00
      4.116  0.0000E+00  0.0000E+00  0.0000E+00
      4.244  0.0000E+00  0.0000E+00  0.0000E+00
      4.372  0.0000E+00  0.0000E+00  0.0000E+00
      4.501  0.1955E-16  0.3385E+00  0.0000E+00
      4.629  0.8212E-16  0.3002E+00  0.0000E+00
      4.757  0.7975E-24  0.3433E-06  0.0000E+00
      4.886  0.0000E+00  0.0000E+00  0.0000E+00
      5.014  0.0000E+00  0.0000E+00  0.0000E+00
      5.142  0.0000E+00  0.0000E+00  0.0000E+00
      5.270  0.6510E-17  0.1910E+00  0.0000E+00
      5.399  0.5058E-17  0.2460E+00  0.0000E+00
      5.527  0.0000E+00  0.0000E+00  0.0000E+00
      5.655  0.0000E+00  0.0000E+00  0.0000E+00
      5.784  0.1235E-20  0.1307E-02  0.0000E+00
      5.912  0.0000E+00  0.0000E+00  0.0000E+00
      6.040  0.0000E+00  0.0000E+00  0.0000E+00
      6.169  0.0000E+00  0.0000E+00  0.0000E+00
      6.297  0.0000E+00  0.0000E+00  0.0000E+00
      6.425  0.4432E-01  0.3802E-01  0.0000E+00
      6.553  0.0000E+00  0.0000E+00  0.0000E+00
      6.682  0.0000E+00  0.0000E+00  0.0000E+00
      6.810  0.8787E-01  0.7343E-01  0.0000E+00
      6.938  0.0000E+00  0.0000E+00  0.0000E+00
      7.067  0.0000E+00  0.0000E+00  0.0000E+00
      7.195  0.1046E-16  0.8552E-17  0.0000E+00
      7.323  0.1013E+00  0.4369E-01  0.0000E+00
      7.451  0.1319E-01  0.4385E-01  0.0000E+00
      7.580  0.0000E+00  0.0000E+00  0.0000E+00
      7.708  0.8865E-01  0.1639E+00  0.0000E+00
      7.836  0.0000E+00  0.0000E+00  0.0000E+00
      7.965  0.0000E+00  0.0000E+00  0.0000E+00
      8.093  0.6551E-01  0.3750E-01  0.0000E+00
      8.221  0.1394E+00  0.1083E+00  0.0000E+00
      8.350  0.2671E-17  0.3275E-01  0.0000E+00
      8.478  0.1170E+00  0.2569E+00  0.0000E+00
      8.606  0.5081E-01  0.1754E+00  0.0000E+00
      8.734  0.2088E-12  0.2002E-12  0.0000E+00
      8.863  0.8241E-01  0.7903E-01  0.0000E+00
      8.991  0.2418E-17  0.1778E+00  0.0000E+00
      9.119  0.2642E-01  0.2016E+00  0.0000E+00
      9.248  0.2140E-07  0.1032E+00  0.0000E+00
      9.376  0.2814E-05  0.1296E+00  0.0000E+00
      9.504  0.0000E+00  0.0000E+00  0.0000E+00
      9.632  0.2676E-01  0.1051E+00  0.0000E+00
      9.761  0.2838E-04  0.3278E-04  0.0000E+00
      9.889  0.1879E+00  0.3426E+00  0.0000E+00
     10.017  0.1300E+00  0.3865E+00  0.0000E+00
     10.146  0.1509E-14  0.1442E+00  0.0000E+00
     10.274  0.4866E-01  0.1754E+00  0.0000E+00
     10.402  0.1744E-17  0.1849E+00  0.0000E+00
     10.530  0.0000E+00  0.0000E+00  0.0000E+00
     10.659  0.0000E+00  0.0000E+00  0.0000E+00
     10.787  0.1960E-25  0.3368E-08  0.0000E+00
     10.915  0.0000E+00  0.0000E+00  0.0000E+00
     11.044  0.0000E+00  0.0000E+00  0.0000E+00
     11.172  0.2944E-05  0.2013E-05  0.0000E+00
     11.300  0.0000E+00  0.0000E+00  0.0000E+00
     11.429  0.6075E-01  0.8131E-01  0.0000E+00
     11.557  0.4875E-02  0.6617E-01  0.0000E+00
     11.685  0.0000E+00  0.0000E+00  0.0000E+00
     11.813  0.1759E-01  0.7917E-01  0.0000E+00
     11.942  0.0000E+00  0.0000E+00  0.0000E+00
     12.070  0.0000E+00  0.0000E+00  0.0000E+00
     12.198  0.3620E-01  0.1776E+00  0.0000E+00
     12.327  0.5823E-01  0.2100E+00  0.0000E+00
     12.455  0.5721E-09  0.2284E-08  0.0000E+00
     12.583  0.0000E+00  0.0000E+00  0.0000E+00
     12.711  0.0000E+00  0.0000E+00  0.0000E+00
     12.840  0.4925E-01  0.3770E+00  0.0000E+00
     12.968  0.1399E-06  0.4540E-06  0.0000E+00
     13.096  0.1559E-14  0.2112E+00  0.0000E+00
     13.225  0.9530E-01  0.4918E+00  0.0000E+00
     13.353  0.3254E-01  0.2389E+00  0.0000E+00
     13.481  0.1986E-04  0.1261E-03  0.0000E+00
     13.610  0.0000E+00  0.0000E+00  0.0000E+00
     13.738  0.5037E-17  0.4152E-01  0.0000E+00
     13.866  0.0000E+00  0.0000E+00  0.0000E+00
     13.994  0.3451E-23  0.3442E-22  0.0000E+00
     14.123  0.0000E+00  0.0000E+00  0.0000E+00
     14.251  0.0000E+00  0.0000E+00  0.0000E+00
     14.379  0.0000E+00  0.0000E+00  0.0000E+00
     14.508  0.0000E+00  0.0000E+00  0.0000E+00
     14.636  0.2261E-05  0.1651E-05  0.0000E+00
     14.764  0.8236E-01  0.1251E+00  0.0000E+00
     14.892  0.1406E+00  0.2503E+00  0.0000E+00
     15.021  0.3863E-14  0.7771E-13  0.0000E+00
     15.149  0.6614E-01  0.3958E+00  0.0000E+00
     15.277  0.0000E+00  0.0000E+00  0.0000E+00
     15.406  0.2693E-01  0.2617E-01  0.0000E+00
     15.534  0.1360E-14  0.1410E-14  0.0000E+00
     15.662  0.6784E-01  0.2897E+00  0.0000E+00
     15.790  0.0000E+00  0.0000E+00  0.0000E+00
     15.919  0.4527E-17  0.1040E+00  0.0000E+00
     16.047  0.4001E-01  0.8814E-01  0.0000E+00
     16.175  0.2409E-01  0.8747E-01  0.0000E+00
     16.304  0.1790E-01  0.1373E-01  0.0000E+00
     16.432  0.3282E-17  0.1798E-02  0.0000E+00
     16.560  0.0000E+00  0.0000E+00  0.0000E+00
     16.689  0.1934E-24  0.4820E-10  0.0000E+00
     16.817  0.1136E-05  0.1962E-04  0.0000E+00
     16.945  0.2026E-18  0.8705E-02  0.0000E+00
     17.073  0.1114E-01  0.8626E-01  0.0000E+00
     17.202  0.8677E-01  0.3830E-01  0.0000E+00
     17.330  0.0000E+00  0.0000E+00  0.0000E+00
     17.458  0.4185E-01  0.1286E+00  0.0000E+00
     17.587  0.4175E-15  0.1275E+00  0.0000E+00
     17.715  0.3316E-01  0.2068E+00  0.0000E+00
     17.843  0.0000E+00  0.0000E+00  0.0000E+00
     17.971  0.0000E+00  0.0000E+00  0.0000E+00
     18.100  0.6028E-15  0.7267E-01  0.0000E+00
     18.228  0.8318E-32  0.3445E-31  0.0000E+00
     18.356  0.7151E-02  0.3617E-02  0.0000E+00
     18.485  0.5567E-04  0.2375E-03  0.0000E+00
     18.613  0.5460E-01  0.2030E+00  0.0000E+00
     18.741  0.7891E-01  0.3220E+00  0.0000E+00
     18.870  0.2840E-11  0.3966E-01  0.0000E+00
     18.998  0.1604E-11  0.4325E-11  0.0000E+00
     19.126  0.3543E-01  0.6278E-01  0.0000E+00
     19.254  0.6452E-02  0.9332E-01  0.0000E+00
     19.383  0.0000E+00  0.0000E+00  0.0000E+00
     19.511  0.2305E-08  0.7444E-01  0.0000E+00
     19.639  0.0000E+00  0.0000E+00  0.0000E+00
     19.768  0.0000E+00  0.0000E+00  0.0000E+00
     19.896  0.0000E+00  0.0000E+00  0.0000E+00
     20.024  0.1098E-01  0.3731E-01  0.0000E+00
     20.152  0.0000E+00  0.0000E+00  0.0000E+00
     20.281  0.6878E-13  0.2695E-12  0.0000E+00
     20.409  0.1826E-01  0.1380E+00  0.0000E+00
     20.537  0.1489E-04  0.5154E-04  0.0000E+00
     20.666  0.2089E-02  0.1461E+00  0.0000E+00
     20.794  0.2144E-02  0.1153E-02  0.0000E+00
     20.922  0.2949E-02  0.1313E-16  0.0000E+00
     21.051  0.3059E-01  0.5420E-01  0.0000E+00
     21.179  0.4631E-11  0.8740E-01  0.0000E+00
     21.307  0.1159E-01  0.4905E-01  0.0000E+00
     21.435  0.1314E-04  0.3498E-03  0.0000E+00
     21.564  0.1373E-01  0.2071E+00  0.0000E+00
     21.692  0.8551E-12  0.2609E-01  0.0000E+00
     21.820  0.2336E-05  0.2732E-01  0.0000E+00
     21.949  0.6527E-08  0.2509E-05  0.0000E+00
     22.077  0.5262E-01  0.1810E+00  0.0000E+00
     22.205  0.3211E-02  0.1417E+00  0.0000E+00
     22.333  0.1156E-01  0.1382E+00  0.0000E+00
     22.462  0.5493E-09  0.8904E-01  0.0000E+00
     22.590  0.3757E-01  0.2328E+00  0.0000E+00
     22.718  0.3275E-01  0.1483E+00  0.0000E+00
     22.847  0.2150E-10  0.2705E-10  0.0000E+00
     22.975  0.1029E-01  0.9863E-01  0.0000E+00
     23.103  0.0000E+00  0.0000E+00  0.0000E+00
     23.231  0.0000E+00  0.0000E+00  0.0000E+00
     23.360  0.1856E-01  0.7222E-01  0.0000E+00
     23.488  0.0000E+00  0.0000E+00  0.0000E+00
     23.616  0.5827E-01  0.1003E+00  0.0000E+00
     23.745  0.6656E-01  0.6480E-01  0.0000E+00
     23.873  0.0000E+00  0.0000E+00  0.0000E+00
     24.001  0.5836E-02  0.1282E-01  0.0000E+00
     24.130  0.0000E+00  0.0000E+00  0.0000E+00
     24.258  0.8070E-09  0.8620E-07  0.0000E+00
     24.386  0.3849E-04  0.3020E-02  0.0000E+00
     24.514  0.3323E-02  0.1595E-02  0.0000E+00
     24.643  0.0000E+00  0.0000E+00  0.0000E+00
     24.771  0.6299E-07  0.4297E-01  0.0000E+00
     24.899  0.0000E+00  0.0000E+00  0.0000E+00
     25.028  0.1567E-09  0.3601E-10  0.0000E+00
     25.156  0.1284E-12  0.1348E-04  0.0000E+00
     25.284  0.0000E+00  0.0000E+00  0.0000E+00
     25.412  0.0000E+00  0.0000E+00  0.0000E+00
     25.541  0.0000E+00  0.0000E+00  0.0000E+00
     25.669  0.3840E-02  0.2999E-01  0.0000E+00
     25.797  0.0000E+00  0.0000E+00  0.0000E+00
     25.926  0.0000E+00  0.0000E+00  0.0000E+00
     26.054  0.0000E+00  0.0000E+00  0.0000E+00
     26.182  0.0000E+00  0.0000E+00  0.0000E+00
     26.311  0.0000E+00  0.0000E+00  0.0000E+00
     26.439  0.0000E+00  0.0000E+00  0.0000E+00
     26.567  0.0000E+00  0.0000E+00  0.0000E+00
     26.695  0.0000E+00  0.0000E+00  0.0000E+00
     26.824  0.0000E+00  0.0000E+00  0.0000E+00
     26.952  0.0000E+00  0.0000E+00  0.0000E+00
     27.080  0.0000E+00  0.0000E+00  0.0000E+00
     27.209  0.0000E+00  0.0000E+00  0.0000E+00
     27.337  0.0000E+00  0.0000E+00  0.0000E+00
     27.465  0.0000E+00  0.0000E+00  0.0000E+00
     27.593  0.0000E+00  0.0000E+00  0.0000E+00
     27.722  0.0000E+00  0.0000E+00  0.0000E+00
     27.850  0.0000E+00  0.0000E+00  0.0000E+00
     27.978  0.0000E+00  0.0000E+00  0.0000E+00
     28.107  0.0000E+00  0.0000E+00  0.0000E+00
     28.235  0.0000E+00  0.0000E+00  0.0000E+00
     28.363  0.0000E+00  0.0000E+00  0.0000E+00
     28.491  0.0000E+00  0.0000E+00  0.0000E+00
     28.620  0.0000E+00  0.0000E+00  0.0000E+00
     28.748  0.5713E-19  0.1539E-13  0.0000E+00
     28.876  0.0000E+00  0.0000E+00  0.0000E+00
     29.005  0.0000E+00  0.0000E+00  0.0000E+00
     29.133  0.0000E+00  0.0000E+00  0.0000E+00
     29.261  0.0000E+00  0.0000E+00  0.0000E+00
     29.390  0.0000E+00  0.0000E+00  0.0000E+00
     29.518  0.0000E+00  0.0000E+00  0.0000E+00
     29.646  0.0000E+00  0.0000E+00  0.0000E+00
     29.774  0.0000E+00  0.0000E+00  0.0000E+00
     29.903  0.0000E+00  0.0000E+00  0.0000E+00
     30.031  0.0000E+00  0.0000E+00  0.0000E+00
     30.159  0.0000E+00  0.0000E+00  0.0000E+00
     30.288  0.0000E+00  0.0000E+00  0.0000E+00
     30.416  0.0000E+00  0.0000E+00  0.0000E+00
     30.544  0.0000E+00  0.0000E+00  0.0000E+00
     30.54417698     -7.94368819  301      5.84779683      1.00000000
     -7.944  0.0000E+00  0.0000E+00  0.0000E+00
     -7.815  0.0000E+00  0.0000E+00  0.0000E+00
     -7.687  0.0000E+00  0.0000E+00  0.0000E+00
     -7.559  0.0000E+00  0.0000E+00  0.0000E+00
     -7.431  0.0000E+00  0.0000E+00  0.0000E+00
     -7.302  0.0000E+00  0.0000E+00  0.0000E+00
     -7.174  0.0000E+00  0.0000E+00  0.0000E+00
     -7.046  0.0000E+00  0.0000E+00  0.0000E+00
     -6.917  0.0000E+00  0.0000E+00  0.0000E+00
     -6.789  0.0000E+00  0.0000E+00  0.0000E+00
     -6.661  0.0000E+00  0.0000E+00  0.0000E+00
     -6.532  0.0000E+00  0.0000E+00  0.0000E+00
     -6.404  0.0000E+00  0.0000E+00  0.0000E+00
     -6.276  0.0000E+00  0.0000E+00  0.0000E+00
     -6.148  0.1536E-01  0.6346E-19  0.0000E+00
     -6.019  0.0000E+00  0.0000E+00  0.0000E+00
     -5.891  0.0000E+00  0.0000E+00  0.0000E+00
     -5.763  0.1219E+00  0.2231E-02  0.0000E+00
     -5.634  0.9110E-01  0.2309E-02  0.0000E+00
     -5.506  0.0000E+00  0.0000E+00  0.0000E+00
     -5.378  0.0000E+00  0.0000E+00  0.0000E+00
     -5.250  0.1906E-01  0.8965E-03  0.0000E+00
     -5.121  0.0000E+00  0.0000E+00  0.0000E+00
     -4.993  0.0000E+00  0.0000E+00  0.0000E+00
     -4.865  0.3599E+00  0.2332E-01  0.0000E+00
     -4.736  0.1215E+00  0.7339E-02  0.0000E+00
     -4.608  0.0000E+00  0.0000E+00  0.0000E+00
     -4.480  0.0000E+00  0.0000E+00  0.0000E+00
     -4.351  0.0000E+00  0.0000E+00  0.0000E+00
     -4.223  0.8812E-01  0.9032E-02  0.0000E+00
     -4.095  0.1576E-02  0.1374E-03  0.0000E+00
     -3.967  0.0000E+00  0.0000E+00  0.0000E+00
     -3.838  0.4093E+00  0.4238E-01  0.0000E+00
     -3.710  0.2028E-03  0.1800E-04  0.0000E+00
     -3.582  0.0000E+00  0.0000E+00  0.0000E+00
     -3.453  0.0000E+00  0.0000E+00  0.0000E+00
     -3.325  0.0000E+00  0.0000E+00  0.0000E+00
     -3.197  0.0000E+00  0.0000E+00  0.0000E+00
     -3.069  0.3518E+00  0.5425E-01  0.0000E+00
     -2.940  0.1408E-05  0.1834E-06  0.0000E+00
     -2.812  0.0000E+00  0.0000E+00  0.0000E+00
     -2.684  0.0000E+00  0.0000E+00  0.0000E+00
     -2.555  0.0000E+00  0.0000E+00  0.0000E+00
     -2.427  0.0000E+00  0.0000E+00  0.0000E+00
     -2.299  0.0000E+00  0.0000E+00  0.0000E+00
     -2.171  0.0000E+00  0.0000E+00  0.0000E+00
     -2.042  0.8247E-02  0.1944E-02  0.0000E+00
     -1.914  0.8092E-01  0.1736E-01  0.0000E+00
     -1.786  0.0000E+00  0.0000E+00  0.0000E+00
     -1.657  0.0000E+00  0.0000E+00  0.0000E+00
     -1.529  0.0000E+00  0.0000E+00  0.0000E+00
     -1.401  0.0000E+00  0.0000E+00  0.0000E+00
     -1.272  0.1376E-14  0.1335E-14  0.0000E+00
     -1.144  0.2797E-01  0.2714E-01  0.0000E+00
     -1.016  0.2853E+00  0.1161E+00  0.0000E+00
     -0.888  0.5502E-10  0.4001E-10  0.0000E+00
     -0.759  0.3190E+00  0.1046E+00  0.0000E+00
     -0.631  0.0000E+00  0.0000E+00  0.0000E+00
     -0.503  0.0000E+00  0.0000E+00  0.0000E+00
     -0.374  0.0000E+00  0.0000E+00  0.0000E+00
     -0.246  0.3017E-01  0.2179E-01  0.0000E+00
     -0.118  0.0000E+00  0.0000E+00  0.0000E+00
      0.010  0.0000E+00  0.0000E+00  0.0000E+00
      0.139  0.5825E-01  0.2611E-01  0.0000E+00
      0.267  0.0000E+00  0.0000E+00  0.0000E+00
      0.395  0.3975E-07  0.3933E-07  0.0000E+00
      0.524  0.0000E+00  0.0000E+00  0.0000E+00
      0.652  0.0000E+00  0.0000E+00  0.0000E+00
      0.780  0.3087E-01  0.1395E-01  0.0000E+00
      0.909  0.0000E+00  0.0000E+00  0.0000E+00
      1.037  0.0000E+00  0.0000E+00  0.0000E+00
      1.165  0.0000E+00  0.0000E+00  0.0000E+00
      1.293  0.4754E-06  0.1846E-04  0.0000E+00
      1.422  0.2189E+00  0.1800E+00  0.0000E+00
      1.550  0.0000E+00  0.0000E+00  0.0000E+00
      1.678  0.1294E-15  0.9290E-15  0.0000E+00
      1.807  0.3587E-01  0.2575E+00  0.0000E+00
      1.935  0.0000E+00  0.0000E+00  0.0000E+00
      2.063  0.3243E-01  0.2988E-01  0.0000E+00
      2.191  0.3059E-01  0.5502E+00  0.0000E+00
      2.320  0.0000E+00  0.0000E+00  0.0000E+00
      2.448  0.0000E+00  0.0000E+00  0.0000E+00
      2.576  0.0000E+00  0.0000E+00  0.0000E+00
      2.705  0.1044E-01  0.4541E-01  0.0000E+00
      2.833  0.0000E+00  0.0000E+00  0.0000E+00
      2.961  0.7733E-05  0.8543E-01  0.0000E+00
      3.089  0.0000E+00  0.0000E+00  0.0000E+00
      3.218  0.3439E-17  0.1101E+00  0.0000E+00
      3.346  0.5983E-02  0.9314E-01  0.0000E+00
      3.474  0.4913E-01  0.2973E+00  0.0000E+00