       N       E                     dE             d eps       ncg     rms          rms(c)
DAV:   1    -0.142927427459E+01   -0.14293E+01   -0.34335E+03 19120   0.380E+02
DAV:   2    -0.114016493992E+02   -0.99724E+01   -0.98648E+01 27792   0.383E+01
DAV:   3    -0.114673134446E+02   -0.65664E-01   -0.65664E-01 21808   0.383E+00
DAV:   4    -0.114675146510E+02   -0.20121E-03   -0.20121E-03 35856   0.242E-01
DAV:   5    -0.114675146624E+02   -0.11354E-07   -0.11354E-07 21472   0.147E-03
DAV:   6    -0.114675146624E+02   -0.38312E-10   -0.38289E-10 35536   0.724E-05
   1 F= -.11467515E+02 E0= -.11467515E+02  d E =-.114675E+02
