 vasp.5.4.1 24Jun15 (build Nov 12 2015 13:14:48) complex                        
  
 executed on             IFC_2016 date 2016.02.23  16:05:26
 running on   16 total cores
 distrk:  each k-point on   16 cores,    1 groups
 distr:  one band on NCORES_PER_BAND=   1 cores,   16 groups


--------------------------------------------------------------------------------------------------------


 INCAR:
 POTCAR:    PAW_PBE Si 05Jan2001                  

 ----------------------------------------------------------------------------- 
|                                                                             |
|           W    W    AA    RRRRR   N    N  II  N    N   GGGG   !!!           |
|           W    W   A  A   R    R  NN   N  II  NN   N  G    G  !!!           |
|           W    W  A    A  R    R  N N  N  II  N N  N  G       !!!           |
|           W WW W  AAAAAA  RRRRR   N  N N  II  N  N N  G  GGG   !            |
|           WW  WW  A    A  R   R   N   NN  II  N   NN  G    G                |
|           W    W  A    A  R    R  N    N  II  N    N   GGGG   !!!           |
|                                                                             |
|      For optimal performance we recommend to set                            |
|        NCORE= 4 - approx SQRT( number of cores)                             |
|      NCORE specifies how many cores store one orbital (NPAR=cpu/NCORE).     |
|      This setting can  greatly improve the performance of VASP for DFT.     |
|      The default, NPAR=number of cores might be grossly inefficient         |
|      on modern multi-core architectures or massively parallel machines.     |
|      Do your own testing !!!!                                               |
|      Unfortunately you need to use the default for GW and RPA calculations. |
|      (for HF NCORE is supported but not extensively tested yet)             |
|                                                                             |
 ----------------------------------------------------------------------------- 

 POTCAR:    PAW_PBE Si 05Jan2001                  
   VRHFIN =Si: s2p2                                                             
   LEXCH  = PE                                                                  
   EATOM  =   103.0669 eV,    7.5752 Ry                                         
                                                                                
   TITEL  = PAW_PBE Si 05Jan2001                                                
   LULTRA =        F    use ultrasoft PP ?                                      
   IUNSCR =        1    unscreen: 0-lin 1-nonlin 2-no                           
   RPACOR =    1.500    partial core radius                                     
   POMASS =   28.085; ZVAL   =    4.000    mass and valenz                      
   RCORE  =    1.900    outmost cutoff radius                                   
   RWIGS  =    2.480; RWIGS  =    1.312    wigner-seitz radius (au A)           
   ENMAX  =  245.345; ENMIN  =  184.009 eV                                      
   ICORE  =        2    local potential                                         
   LCOR   =        T    correct aug charges                                     
   LPAW   =        T    paw PP                                                  
   EAUG   =  322.069                                                            
   DEXC   =    0.000                                                            
   RMAX   =    1.950    core radius for proj-oper                               
   RAUG   =    1.300    factor for augmentation sphere                          
   RDEP   =    1.993    radius for radial grids                                 
   RDEPT  =    1.837    core radius for aug-charge                              
                                                                                
   Atomic configuration                                                         
    6 entries                                                                   
     n  l   j            E        occ.                                          
     1  0  0.50     -1785.8828   2.0000                                         
     2  0  0.50      -139.4969   2.0000                                         
     2  1  1.50       -95.5546   6.0000                                         
     3  0  0.50       -10.8127   2.0000                                         
     3  1  0.50        -4.0811   2.0000                                         
     3  2  1.50        -4.0817   0.0000                                         
   Description                                                                  
     l       E           TYP  RCUT    TYP  RCUT                                 
     0    -10.8127223     23  1.900                                             
     0     -7.6451159     23  1.900                                             
     1     -4.0811372     23  1.900                                             
     1      2.4879257     23  1.900                                             
     2     -4.0817478      7  1.900                                             
  local pseudopotential read in
  partial core-charges read in
  partial kinetic energy density read in
  atomic valenz-charges read in
  non local Contribution for L=           0  read in
    real space projection operators read in
  non local Contribution for L=           0  read in
    real space projection operators read in
  non local Contribution for L=           1  read in
    real space projection operators read in
  non local Contribution for L=           1  read in
    real space projection operators read in
    PAW grid and wavefunctions read in
 
   number of l-projection  operators is LMAX  =           4
   number of lm-projection operators is LMMAX =           8
 

 ----------------------------------------------------------------------------- 
|                                                                             |
|  ADVICE TO THIS USER RUNNING 'VASP/VAMP'   (HEAR YOUR MASTER'S VOICE ...):  |
|                                                                             |
|      You enforced a specific xc-type in the INCAR file,                     |
|      a different type was found on the POTCAR file                          |
|          I HOPE YOU KNOW, WHAT YOU ARE  DOING                               |
|                                                                             |
 ----------------------------------------------------------------------------- 

  PAW_PBE Si 05Jan2001                  :
 energy of atom  1       EATOM= -103.0669
 kinetic energy error for atom=    0.0006 (will be added to EATOM!!)
 
 
 POSCAR: Si (Madelung Handbook, 295.7K)          
  positions in direct lattice
  velocities in cartesian coordinates
 exchange correlation table for  LEXCH =       14
   RHO(1)=    0.500       N(1)  =     2000
   RHO(2)=  100.500       N(2)  =     4000
 


--------------------------------------------------------------------------------------------------------


 ion  position               nearest neighbor table
   1  0.000  0.000  0.000-   2 2.35   2 2.35   2 2.35   2 2.35
   2  0.250  0.250  0.250-   1 2.35   1 2.35   1 2.35   1 2.35
 
  LATTYP: Found a face centered cubic cell.
 ALAT       =     5.4310000000
  
  Lattice vectors:
  
 A1 = (   2.7155000000,   2.7155000000,   0.0000000000)
 A2 = (   2.7155000000,   0.0000000000,  -2.7155000000)
 A3 = (   0.0000000000,   2.7155000000,  -2.7155000000)


Analysis of symmetry for initial positions (statically):
=====================================================================
 Subroutine PRICEL returns:
 Original cell was already a primitive cell.
 

 Routine SETGRP: Setting up the symmetry group for a 
 face centered cubic supercell.


 Subroutine GETGRP returns: Found 48 space group operations
 (whereof 24 operations were pure point group operations)
 out of a pool of 48 trial point group operations.


The static configuration has the point symmetry T_d .
 The point group associated with its full space group is O_h .


Analysis of symmetry for dynamics (positions and initial velocities):
=====================================================================
 Subroutine PRICEL returns:
 Original cell was already a primitive cell.
 

 Routine SETGRP: Setting up the symmetry group for a 
 face centered cubic supercell.


 Subroutine GETGRP returns: Found 48 space group operations
 (whereof 24 operations were pure point group operations)
 out of a pool of 48 trial point group operations.


The dynamic configuration has the point symmetry T_d .
 The point group associated with its full space group is O_h .


 Subroutine INISYM returns: Found 48 space group operations
 (whereof 24 operations are pure point group operations),
 and found     1 'primitive' translations

 
 
 KPOINTS: Automatically generated mesh            
  k-points in reciprocal lattice
Space group operators:
 irot       det(A)        alpha          n_x          n_y          n_z        tau_x        tau_y        tau_z
    1     1.000000     0.000001     1.000000     0.000000     0.000000     0.000000     0.000000     0.000000
    2     1.000000   120.000000    -0.577350    -0.577350     0.577350     0.000000     0.000000     0.000000
    3     1.000000   120.000000     0.577350     0.577350    -0.577350     0.000000     0.000000     0.000000
    4    -1.000000    90.000000    -1.000000     0.000000     0.000000     0.000000     0.000000     0.000000
    5    -1.000000   180.000000     0.707107     0.707107     0.000000     0.000000     0.000000     0.000000
    6    -1.000000    90.000000     0.000000     1.000000     0.000000     0.000000     0.000000     0.000000
    7     1.000000   180.000000     1.000000     0.000000     0.000000     0.000000     0.000000     0.000000
    8     1.000000   120.000000     0.577350     0.577350     0.577350     0.000000     0.000000     0.000000
    9     1.000000   120.000000    -0.577350     0.577350     0.577350     0.000000     0.000000     0.000000
   10    -1.000000    90.000000     1.000000     0.000000     0.000000     0.000000     0.000000     0.000000
   11    -1.000000    90.000000     0.000000     0.000000     1.000000     0.000000     0.000000     0.000000
   12    -1.000000   180.000000     0.707107     0.000000    -0.707107     0.000000     0.000000     0.000000
   13     1.000000   120.000000     0.577350    -0.577350    -0.577350     0.000000     0.000000     0.000000
   14     1.000000   120.000000     0.577350    -0.577350     0.577350     0.000000     0.000000     0.000000
   15     1.000000   180.000000     0.000000     0.000000     1.000000     0.000000     0.000000     0.000000
   16    -1.000000    90.000000     0.000000    -1.000000     0.000000     0.000000     0.000000     0.000000
   17    -1.000000   180.000000     0.000000    -0.707107     0.707107     0.000000     0.000000     0.000000
   18    -1.000000    90.000000     0.000000     0.000000    -1.000000     0.000000     0.000000     0.000000
   19     1.000000   120.000000    -0.577350    -0.577350    -0.577350     0.000000     0.000000     0.000000
   20     1.000000   180.000000     0.000000     1.000000     0.000000     0.000000     0.000000     0.000000
   21     1.000000   120.000000    -0.577350     0.577350    -0.577350     0.000000     0.000000     0.000000
   22    -1.000000   180.000000     0.707107    -0.707107     0.000000     0.000000     0.000000     0.000000
   23    -1.000000   180.000000     0.000000     0.707107     0.707107     0.000000     0.000000     0.000000
   24    -1.000000   180.000000     0.707107     0.000000     0.707107     0.000000     0.000000     0.000000
   25    -1.000000     0.000001     1.000000     0.000000     0.000000     0.250000     0.250000     0.250000
   26    -1.000000   120.000000    -0.577350    -0.577350     0.577350     0.250000     0.250000     0.250000
   27    -1.000000   120.000000     0.577350     0.577350    -0.577350     0.250000     0.250000     0.250000
   28     1.000000    90.000000    -1.000000     0.000000     0.000000     0.250000     0.250000     0.250000
   29     1.000000   180.000000     0.707107     0.707107     0.000000     0.250000     0.250000     0.250000
   30     1.000000    90.000000     0.000000     1.000000     0.000000     0.250000     0.250000     0.250000
   31    -1.000000   180.000000     1.000000     0.000000     0.000000     0.250000     0.250000     0.250000
   32    -1.000000   120.000000     0.577350     0.577350     0.577350     0.250000     0.250000     0.250000
   33    -1.000000   120.000000    -0.577350     0.577350     0.577350     0.250000     0.250000     0.250000
   34     1.000000    90.000000     1.000000     0.000000     0.000000     0.250000     0.250000     0.250000
   35     1.000000    90.000000     0.000000     0.000000     1.000000     0.250000     0.250000     0.250000
   36     1.000000   180.000000     0.707107     0.000000    -0.707107     0.250000     0.250000     0.250000
   37    -1.000000   120.000000     0.577350    -0.577350    -0.577350     0.250000     0.250000     0.250000
   38    -1.000000   120.000000     0.577350    -0.577350     0.577350     0.250000     0.250000     0.250000
   39    -1.000000   180.000000     0.000000     0.000000     1.000000     0.250000     0.250000     0.250000
   40     1.000000    90.000000     0.000000    -1.000000     0.000000     0.250000     0.250000     0.250000
   41     1.000000   180.000000     0.000000    -0.707107     0.707107     0.250000     0.250000     0.250000
   42     1.000000    90.000000     0.000000     0.000000    -1.000000     0.250000     0.250000     0.250000
   43    -1.000000   120.000000    -0.577350    -0.577350    -0.577350     0.250000     0.250000     0.250000
   44    -1.000000   180.000000     0.000000     1.000000     0.000000     0.250000     0.250000     0.250000
   45    -1.000000   120.000000    -0.577350     0.577350    -0.577350     0.250000     0.250000     0.250000
   46     1.000000   180.000000     0.707107    -0.707107     0.000000     0.250000     0.250000     0.250000
   47     1.000000   180.000000     0.000000     0.707107     0.707107     0.250000     0.250000     0.250000
   48     1.000000   180.000000     0.707107     0.000000     0.707107     0.250000     0.250000     0.250000


--------------------------------------------------------------------------------------------------------




 Dimension of arrays:
   k-points           NKPTS =    597   k-points in BZ     NKDIM =    597   number of bands    NBANDS=     16
   number of dos      NEDOS =    301   number of ions     NIONS =      2
   non local maximal  LDIM  =      4   non local SUM 2l+1 LMDIM =      8
   total plane-waves  NPLWV =  21952
   max r-space proj   IRMAX =      1   max aug-charges    IRDMAX=  18525
   dimension x,y,z NGX =    28 NGY =   28 NGZ =   28
   dimension x,y,z NGXF=    56 NGYF=   56 NGZF=   56
   support grid    NGXF=    56 NGYF=   56 NGZF=   56
   ions per type =               2
 NGX,Y,Z   is equivalent  to a cutoff of  12.12, 12.12, 12.12 a.u.
 NGXF,Y,Z  is equivalent  to a cutoff of  24.24, 24.24, 24.24 a.u.


 I would recommend the setting:
   dimension x,y,z NGX =    28 NGY =   28 NGZ =   28
 SYSTEM =  Name                                    
 POSCAR =  Si (Madelung Handbook, 295.7K)          

 Startparameter for this run:
   NWRITE =      2    write-flag & timer
   PREC   = accura    normal or accurate (medium, high low for compatibility)
   ISTART =      0    job   : 0-new  1-cont  2-samecut
   ICHARG =     11    charge: 1-file 2-atom 10-const
   ISPIN  =      1    spin polarized calculation?
   LNONCOLLINEAR =      F non collinear calculations
   LSORBIT =      F    spin-orbit coupling
   INIWAV =      1    electr: 0-lowe 1-rand  2-diag
   LASPH  =      F    aspherical Exc in radial PAW
   METAGGA=      F    non-selfconsistent MetaGGA calc.

 Electronic Relaxation 1
   ENCUT  =  500.0 eV  36.75 Ry    6.06 a.u.   7.00  7.00  7.00*2*pi/ulx,y,z
   ENINI  =  500.0     initial cutoff
   ENAUG  =  322.1 eV  augmentation charge cutoff
   NELM   =     60;   NELMIN=  2; NELMDL=  0     # of ELM steps 
   EDIFF  = 0.1E-05   stopping-criterion for ELM
   LREAL  =      F    real-space projection
   NLSPLINE    = F    spline interpolate recip. space projectors
   LCOMPAT=      F    compatible to vasp.4.4
   GGA_COMPAT  = T    GGA compatible to vasp.4.4-vasp.4.6
   LMAXPAW     = -100 max onsite density
   LMAXMIX     =    2 max onsite mixed and CHGCAR
   VOSKOWN=      0    Vosko Wilk Nusair interpolation
   ROPT   =    0.00000
 Ionic relaxation
   EDIFFG = -.5E-02   stopping-criterion for IOM
   NSW    =      1    number of steps for IOM
   NBLOCK =      1;   KBLOCK =      1    inner block; outer block 
   IBRION =      2    ionic relax: 0-MD 1-quasi-New 2-CG
   NFREE  =      1    steps in history (QN), initial steepest desc. (CG)
   ISIF   =      3    stress and relaxation
   IWAVPR =     11    prediction:  0-non 1-charg 2-wave 3-comb
   ISYM   =      2    0-nonsym 1-usesym 2-fastsym
   LCORR  =      T    Harris-Foulkes like correction to forces

   POTIM  = 0.5000    time-step for ionic-motion
   TEIN   =    0.0    initial temperature
   TEBEG  =    0.0;   TEEND  =   0.0 temperature during run
   SMASS  =  -3.00    Nose mass-parameter (am)
   estimated Nose-frequenzy (Omega)   =  0.10E-29 period in steps =****** mass=  -0.337E-27a.u.
   SCALEE = 1.0000    scale energy and forces
   NPACO  =    256;   APACO  = 16.0  distance and # of slots for P.C.
   PSTRESS=    0.0 pullay stress

  Mass of Ions in am
   POMASS =  28.09
  Ionic Valenz
   ZVAL   =   4.00
  Atomic Wigner-Seitz radii
   RWIGS  =  -1.00
  virtual crystal weights 
   VCA    =   1.00
   NELECT =       8.0000    total number of electrons
   NUPDOWN=      -1.0000    fix difference up-down

 DOS related values:
   EMIN   =  10.00;   EMAX   =-10.00  energy-range for DOS
   EFERMI =   0.00
   ISMEAR =     0;   SIGMA  =   0.01  broadening in eV -4-tet -1-fermi 0-gaus

 Electronic relaxation 2 (details)
   IALGO  =     38    algorithm
   LDIAG  =      T    sub-space diagonalisation (order eigenvalues)
   LSUBROT=      F    optimize rotation matrix (better conditioning)
   TURBO    =      0    0=normal 1=particle mesh
   IRESTART =      0    0=no restart 2=restart with 2 vectors
   NREBOOT  =      0    no. of reboots
   NMIN     =      0    reboot dimension
   EREF     =   0.00    reference energy to select bands
   IMIX   =      4    mixing-type and parameters
     AMIX     =   0.40;   BMIX     =  1.00
     AMIX_MAG =   1.60;   BMIX_MAG =  1.00
     AMIN     =   0.01
     WC   =   100.;   INIMIX=   1;  MIXPRE=   1;  MAXMIX= -45

 Intra band minimization:
   WEIMIN = 0.0010     energy-eigenvalue tresh-hold
   EBREAK =  0.16E-07  absolut break condition
   DEPER  =   0.30     relativ break condition  

   TIME   =   0.40     timestep for ELM

  volume/ion in A,a.u.               =      20.02       135.13
  Fermi-wavevector in a.u.,A,eV,Ry     =   0.956999  1.808467 12.460868  0.915848
  Thomas-Fermi vector in A             =   2.085978
 
 Write flags
   LWAVE  =      T    write WAVECAR
   LCHARG =      T    write CHGCAR
   LVTOT  =      F    write LOCPOT, total local potential
   LVHAR  =      F    write LOCPOT, Hartree potential only
   LELF   =      F    write electronic localiz. function (ELF)
   LORBIT =     10    0 simple, 1 ext, 2 COOP (PROOUT)


 Dipole corrections
   LMONO  =      F    monopole corrections only (constant potential shift)
   LDIPOL =      F    correct potential (dipole corrections)
   IDIPOL =      0    1-x, 2-y, 3-z, 4-all directions 
   EPSILON=  1.0000000 bulk dielectric constant

 Core level calculations are selected ICORELEVEL =  1
 Exchange correlation treatment:
   GGA     =    PS    GGA type
   LEXCH   =    14    internal setting for exchange type
   VOSKOWN=      0    Vosko Wilk Nusair interpolation
   LHFCALC =     F    Hartree Fock is set to
   LHFONE  =     F    Hartree Fock one center treatment
   AEXX    =    0.0000 exact exchange contribution

 Linear response parameters
   LEPSILON=     F    determine dielectric tensor
   LRPA    =     F    only Hartree local field effects (RPA)
   LNABLA  =     F    use nabla operator in PAW spheres
   LVEL    =     F    velocity operator in full k-point grid
   LINTERFAST=   F  fast interpolation
   KINTER  =     0    interpolate to denser k-point grid
   CSHIFT  =0.1000    complex shift for real part using Kramers Kronig
   OMEGAMAX=  -1.0    maximum frequency
   DEG_THRESHOLD= 0.2000000E-02 threshold for treating states as degnerate
   RTIME   =    0.100 relaxation time in fs

 Orbital magnetization related:
   ORBITALMAG=     F  switch on orbital magnetization
   LCHIMAG   =     F  perturbation theory with respect to B field
   DQ        =  0.001000  dq finite difference perturbation B field



--------------------------------------------------------------------------------------------------------


 conjugate gradient relaxation of ions
 charge density and potential remain constant during run
 non-spin polarized calculation
 Variant of blocked Davidson
 Davidson routine will perform the subspace rotation
 perform sub-space diagonalisation
    after iterative eigenvector-optimisation
 no mixing
 using additional bands           12
 reciprocal scheme for non local part
 use partial core corrections
 calculate Harris-corrections to forces 
   (improved forces if not selfconsistent)
 use gradient corrections 
 WARNING: stress and forces are not correct
  (second derivative of E(xc) not defined)
 use of overlap-Matrix (Vanderbilt PP)
 Gauss-broadening in eV      SIGMA  =   0.01


--------------------------------------------------------------------------------------------------------


  energy-cutoff  :      500.00
  volume of cell :       40.05
      direct lattice vectors                 reciprocal lattice vectors
     2.715500000  2.715500000  0.000000000     0.184128153  0.184128153  0.184128153
     2.715500000  0.000000000 -2.715500000     0.184128153 -0.184128153 -0.184128153
     0.000000000  2.715500000 -2.715500000    -0.184128153  0.184128153 -0.184128153

  length of vectors
     3.840296929  3.840296929  3.840296929     0.318919316  0.318919316  0.318919316


 
 k-points in units of 2pi/SCALE and weight: Automatically generated mesh            
   0.00000000  0.00000000  0.00000000       0.005
   0.16666667  0.16666667  0.16666667       0.037
   0.33333333  0.33333333  0.33333333       0.037
   0.50000000  0.50000000  0.50000000       0.019
   0.33333333  0.00000000  0.00000000       0.028
   0.50000000  0.16666667  0.16666667       0.111
   0.66666667  0.33333333  0.33333333       0.111
  -0.16666667 -0.50000000 -0.50000000       0.111
   0.00000000 -0.33333333 -0.33333333       0.056
   0.66666667  0.00000000  0.00000000       0.028
   0.83333333  0.16666667  0.16666667       0.111
   0.00000000 -0.66666667 -0.66666667       0.056
   1.00000000  0.00000000  0.00000000       0.014
   0.66666667  0.33333333  0.00000000       0.111
  -0.16666667 -0.50000000 -0.83333333       0.111
   0.00000000 -0.66666667 -1.00000000       0.056
   0.00000000  0.00000000  0.00000000       0.000
   0.00000000  0.01000000  0.00000000       0.000
   0.00000000  0.02000000  0.00000000       0.000
   0.00000000  0.03000000  0.00000000       0.000
   0.00000000  0.04000000  0.00000000       0.000
   0.00000000  0.05000000  0.00000000       0.000
   0.00000000  0.06000000  0.00000000       0.000
   0.00000000  0.07000000  0.00000000       0.000
   0.00000000  0.08000000  0.00000000       0.000
   0.00000000  0.09000000  0.00000000       0.000
   0.00000000  0.10000000  0.00000000       0.000
   0.00000000  0.11000000  0.00000000       0.000
   0.00000000  0.12000000  0.00000000       0.000
   0.00000000  0.13000000  0.00000000       0.000
   0.00000000  0.14000000  0.00000000       0.000
   0.00000000  0.15000000  0.00000000       0.000
   0.00000000  0.16000000  0.00000000       0.000
   0.00000000  0.17000000  0.00000000       0.000
   0.00000000  0.18000000  0.00000000       0.000
   0.00000000  0.19000000  0.00000000       0.000
   0.00000000  0.19999998  0.00000000       0.000
   0.00000000  0.21000000  0.00000000       0.000
   0.00000000  0.22000000  0.00000000       0.000
   0.00000000  0.22999998  0.00000000       0.000
   0.00000000  0.24000000  0.00000000       0.000
   0.00000000  0.25000000  0.00000000       0.000
   0.00000000  0.26000000  0.00000000       0.000
   0.00000000  0.26999998  0.00000000       0.000
   0.00000000  0.28000000  0.00000000       0.000
   0.00000000  0.29000000  0.00000000       0.000
   0.00000000  0.29999998  0.00000000       0.000
   0.00000000  0.31000000  0.00000000       0.000
   0.00000000  0.32000000  0.00000000       0.000
   0.00000000  0.32999998  0.00000000       0.000
   0.00000000  0.34000000  0.00000000       0.000
   0.00000000  0.35000000  0.00000000       0.000
   0.00000000  0.36000002  0.00000000       0.000
   0.00000000  0.36999998  0.00000000       0.000
   0.00000000  0.38000000  0.00000000       0.000
   0.00000000  0.39000002  0.00000000       0.000
   0.00000000  0.39999998  0.00000000       0.000
   0.00000000  0.41000000  0.00000000       0.000
   0.00000000  0.42000002  0.00000000       0.000
   0.00000000  0.42999998  0.00000000       0.000
   0.00000000  0.44000000  0.00000000       0.000
   0.00000000  0.45000002  0.00000000       0.000
   0.00000000  0.45999998  0.00000000       0.000
   0.00000000  0.47000000  0.00000000       0.000
   0.00000000  0.48000002  0.00000000       0.000
   0.00000000  0.48999998  0.00000000       0.000
   0.00000000  0.50000000  0.00000000       0.000
   0.00000000  0.51000000  0.00000000       0.000
   0.00000000  0.51999998  0.00000000       0.000
   0.00000000  0.52999998  0.00000000       0.000
   0.00000000  0.53999996  0.00000000       0.000
   0.00000000  0.55000002  0.00000000       0.000
   0.00000000  0.56000000  0.00000000       0.000
   0.00000000  0.57000000  0.00000000       0.000
   0.00000000  0.57999998  0.00000000       0.000
   0.00000000  0.58999998  0.00000000       0.000
   0.00000000  0.59999996  0.00000000       0.000
   0.00000000  0.61000002  0.00000000       0.000
   0.00000000  0.62000000  0.00000000       0.000
   0.00000000  0.63000000  0.00000000       0.000
   0.00000000  0.63999998  0.00000000       0.000
   0.00000000  0.64999998  0.00000000       0.000
   0.00000000  0.65999996  0.00000000       0.000
   0.00000000  0.67000002  0.00000000       0.000
   0.00000000  0.68000000  0.00000000       0.000
   0.00000000  0.69000000  0.00000000       0.000
   0.00000000  0.69999998  0.00000000       0.000
   0.00000000  0.70999998  0.00000000       0.000
   0.00000000  0.72000002  0.00000000       0.000
   0.00000000  0.72999996  0.00000000       0.000
   0.00000000  0.73999994  0.00000000       0.000
   0.00000000  0.75000000  0.00000000       0.000
   0.00000000  0.76000000  0.00000000       0.000
   0.00000000  0.76999998  0.00000000       0.000
   0.00000000  0.78000004  0.00000000       0.000
   0.00000000  0.78999996  0.00000000       0.000
   0.00000000  0.79999996  0.00000000       0.000
   0.00000000  0.81000000  0.00000000       0.000
   0.00000000  0.82000000  0.00000000       0.000
   0.00000000  0.82999998  0.00000000       0.000
   0.00000000  0.84000004  0.00000000       0.000
   0.00000000  0.84999996  0.00000000       0.000
   0.00000000  0.85999996  0.00000000       0.000
   0.00000000  0.87000000  0.00000000       0.000
   0.00000000  0.88000000  0.00000000       0.000
   0.00000000  0.88999998  0.00000000       0.000
   0.00000000  0.90000004  0.00000000       0.000
   0.00000000  0.90999996  0.00000000       0.000
   0.00000000  0.91999996  0.00000000       0.000
   0.00000000  0.93000000  0.00000000       0.000
   0.00000000  0.94000000  0.00000000       0.000
   0.00000000  0.94999998  0.00000000       0.000
   0.00000000  0.96000004  0.00000000       0.000
   0.00000000  0.96999996  0.00000000       0.000
   0.00000000  0.97999996  0.00000000       0.000
   0.00000000  0.99000000  0.00000000       0.000
   0.00000000  1.00000000  0.00000000       0.000
   0.00320514  0.99679486 -0.00961538       0.000
   0.00641027  0.99358973 -0.01923075       0.000
   0.00961541  0.99038459 -0.02884613       0.000
   0.01282049  0.98717951 -0.03846157       0.000
   0.01602562  0.98397438 -0.04807694       0.000
   0.01923076  0.98076924 -0.05769232       0.000
   0.02243590  0.97756410 -0.06730770       0.000
   0.02564103  0.97435897 -0.07692307       0.000
   0.02884617  0.97115383 -0.08653845       0.000
   0.03205130  0.96794870 -0.09615384       0.000
   0.03525643  0.96474357 -0.10576921       0.000
   0.03846151  0.96153849 -0.11538465       0.000
   0.04166665  0.95833335 -0.12500003       0.000
   0.04487178  0.95512822 -0.13461540       0.000
   0.04807692  0.95192308 -0.14423078       0.000
   0.05128205  0.94871795 -0.15384615       0.000
   0.05448719  0.94551281 -0.16346153       0.000
   0.05769233  0.94230767 -0.17307691       0.000
   0.06089746  0.93910254 -0.18269228       0.000
   0.06410255  0.93589745 -0.19230773       0.000
   0.06730768  0.93269232 -0.20192310       0.000
   0.07051282  0.92948718 -0.21153848       0.000
   0.07371794  0.92628206 -0.22115384       0.000
   0.07692309  0.92307691 -0.23076923       0.000
   0.08012823  0.91987177 -0.24038461       0.000
   0.08333336  0.91666664 -0.24999998       0.000
   0.08653850  0.91346150 -0.25961536       0.000
   0.08974357  0.91025643 -0.26923079       0.000
   0.09294872  0.90705128 -0.27884618       0.000
   0.09615384  0.90384616 -0.28846156       0.000
   0.09935897  0.90064103 -0.29807693       0.000
   0.10256411  0.89743589 -0.30769231       0.000
   0.10576926  0.89423074 -0.31730770       0.000
   0.10897438  0.89102562 -0.32692306       0.000
   0.11217946  0.88782054 -0.33653850       0.000
   0.11538459  0.88461541 -0.34615387       0.000
   0.11858974  0.88141026 -0.35576926       0.000
   0.12179486  0.87820514 -0.36538462       0.000
   0.12500000  0.87500000 -0.37500000       0.000
   0.12083334  0.87083334 -0.38749998       0.000
   0.11666667  0.86666667 -0.39999999       0.000
   0.11250001  0.86250001 -0.41249997       0.000
   0.10833335  0.85833329 -0.42500001       0.000
   0.10416669  0.85416663 -0.43749999       0.000
   0.10000002  0.84999996 -0.45000000       0.000
   0.09583336  0.84583330 -0.46249998       0.000
   0.09166664  0.84166670 -0.47500002       0.000
   0.08749998  0.83750004 -0.48750000       0.000
   0.08333331  0.83333337 -0.50000001       0.000
   0.07916665  0.82916665 -0.51250005       0.000
   0.07499999  0.82499999 -0.52500003       0.000
   0.07083333  0.82083333 -0.53750001       0.000
   0.06666666  0.81666666 -0.55000002       0.000
   0.06250000  0.81250000 -0.56250000       0.000
   0.05833334  0.80833334 -0.57499998       0.000
   0.05416667  0.80416667 -0.58749999       0.000
   0.05000001  0.80000001 -0.59999997       0.000
   0.04583335  0.79583329 -0.61250001       0.000
   0.04166669  0.79166663 -0.62499999       0.000
   0.03750002  0.78749996 -0.63750000       0.000
   0.03333330  0.78333336 -0.65000004       0.000
   0.02916664  0.77916670 -0.66250002       0.000
   0.02499998  0.77500004 -0.67500000       0.000
   0.02083331  0.77083337 -0.68750001       0.000
   0.01666665  0.76666665 -0.70000005       0.000
   0.01249999  0.76249999 -0.71250003       0.000
   0.00833333  0.75833333 -0.72500001       0.000
   0.00416666  0.75416666 -0.73750002       0.000
   0.00000000  0.75000000 -0.75000000       0.000
   0.00000000  0.74418604 -0.74418604       0.000
  -0.00000001  0.73837209 -0.73837209       0.000
   0.00000001  0.73255813 -0.73255813       0.000
   0.00000001  0.72674417 -0.72674417       0.000
   0.00000000  0.72093022 -0.72093022       0.000
   0.00000000  0.71511626 -0.71511626       0.000
  -0.00000001  0.70930231 -0.70930231       0.000
  -0.00000001  0.70348835 -0.70348835       0.000
   0.00000001  0.69767439 -0.69767439       0.000
   0.00000000  0.69186044 -0.69186044       0.000
   0.00000000  0.68604648 -0.68604648       0.000
   0.00000000  0.68023252 -0.68023252       0.000
  -0.00000001  0.67441857 -0.67441857       0.000
   0.00000001  0.66860467 -0.66860467       0.000
   0.00000000  0.66279072 -0.66279072       0.000
   0.00000000  0.65697676 -0.65697676       0.000
   0.00000000  0.65116280 -0.65116280       0.000
  -0.00000001  0.64534885 -0.64534885       0.000
   0.00000001  0.63953489 -0.63953489       0.000
   0.00000001  0.63372093 -0.63372093       0.000
   0.00000000  0.62790698 -0.62790698       0.000
   0.00000000  0.62209302 -0.62209302       0.000
  -0.00000001  0.61627907 -0.61627907       0.000
  -0.00000001  0.61046511 -0.61046511       0.000
   0.00000001  0.60465115 -0.60465115       0.000
   0.00000000  0.59883720 -0.59883720       0.000
   0.00000000  0.59302324 -0.59302324       0.000
   0.00000000  0.58720928 -0.58720928       0.000
  -0.00000001  0.58139533 -0.58139533       0.000
   0.00000001  0.57558137 -0.57558137       0.000
   0.00000000  0.56976742 -0.56976742       0.000
   0.00000000  0.56395352 -0.56395352       0.000
   0.00000000  0.55813956 -0.55813956       0.000
  -0.00000001  0.55232561 -0.55232561       0.000
   0.00000001  0.54651165 -0.54651165       0.000
   0.00000001  0.54069769 -0.54069769       0.000
   0.00000000  0.53488374 -0.53488374       0.000
   0.00000000  0.52906978 -0.52906978       0.000
  -0.00000001  0.52325583 -0.52325583       0.000
  -0.00000001  0.51744187 -0.51744187       0.000
   0.00000001  0.51162791 -0.51162791       0.000
   0.00000000  0.50581396 -0.50581396       0.000
   0.00000000  0.50000000 -0.50000000       0.000
   0.00000000  0.49418604 -0.49418604       0.000
  -0.00000001  0.48837209 -0.48837209       0.000
   0.00000001  0.48255813 -0.48255813       0.000
   0.00000001  0.47674417 -0.47674417       0.000
   0.00000000  0.47093022 -0.47093022       0.000
   0.00000000  0.46511626 -0.46511626       0.000
  -0.00000001  0.45930231 -0.45930231       0.000
  -0.00000001  0.45348835 -0.45348835       0.000
   0.00000001  0.44767439 -0.44767439       0.000
  -0.00000001  0.44186047 -0.44186047       0.000
   0.00000001  0.43604651 -0.43604651       0.000
   0.00000001  0.43023255 -0.43023255       0.000
   0.00000000  0.42441860 -0.42441860       0.000
   0.00000000  0.41860464 -0.41860464       0.000
  -0.00000001  0.41279069 -0.41279069       0.000
  -0.00000001  0.40697673 -0.40697673       0.000
   0.00000001  0.40116277 -0.40116277       0.000
   0.00000000  0.39534882 -0.39534882       0.000
   0.00000000  0.38953486 -0.38953486       0.000
   0.00000001  0.38372093 -0.38372093       0.000
   0.00000000  0.37790698 -0.37790698       0.000
   0.00000000  0.37209302 -0.37209302       0.000
  -0.00000001  0.36627907 -0.36627907       0.000
  -0.00000001  0.36046511 -0.36046511       0.000
   0.00000001  0.35465115 -0.35465115       0.000
   0.00000000  0.34883720 -0.34883720       0.000
   0.00000000  0.34302324 -0.34302324       0.000
   0.00000000  0.33720928 -0.33720928       0.000
   0.00000000  0.33139536 -0.33139536       0.000
   0.00000000  0.32558140 -0.32558140       0.000
  -0.00000001  0.31976745 -0.31976745       0.000
  -0.00000001  0.31395349 -0.31395349       0.000
   0.00000001  0.30813953 -0.30813953       0.000
   0.00000000  0.30232558 -0.30232558       0.000
   0.00000000  0.29651162 -0.29651162       0.000
   0.00000000  0.29069766 -0.29069766       0.000
  -0.00000001  0.28488371 -0.28488371       0.000
   0.00000001  0.27906975 -0.27906975       0.000
  -0.00000001  0.27325583 -0.27325583       0.000
  -0.00000001  0.26744187 -0.26744187       0.000
   0.00000001  0.26162791 -0.26162791       0.000
   0.00000000  0.25581396 -0.25581396       0.000
   0.00000000  0.25000000 -0.25000000       0.000
   0.00000000  0.24418604 -0.24418604       0.000
  -0.00000001  0.23837209 -0.23837209       0.000
   0.00000001  0.23255813 -0.23255813       0.000
   0.00000001  0.22674417 -0.22674417       0.000
   0.00000000  0.22093022 -0.22093022       0.000
   0.00000000  0.21511626 -0.21511626       0.000
  -0.00000001  0.20930231 -0.20930231       0.000
  -0.00000001  0.20348835 -0.20348835       0.000
   0.00000001  0.19767439 -0.19767439       0.000
   0.00000000  0.19186044 -0.19186044       0.000
   0.00000000  0.18604648 -0.18604648       0.000
   0.00000000  0.18023252 -0.18023252       0.000
  -0.00000001  0.17441857 -0.17441857       0.000
   0.00000001  0.16860461 -0.16860461       0.000
   0.00000000  0.16279066 -0.16279066       0.000
   0.00000000  0.15697670 -0.15697670       0.000
   0.00000000  0.15116274 -0.15116274       0.000
  -0.00000001  0.14534879 -0.14534879       0.000
   0.00000001  0.13953483 -0.13953483       0.000
   0.00000001  0.13372093 -0.13372093       0.000
   0.00000000  0.12790698 -0.12790698       0.000
   0.00000000  0.12209302 -0.12209302       0.000
  -0.00000001  0.11627907 -0.11627907       0.000
  -0.00000001  0.11046511 -0.11046511       0.000
   0.00000001  0.10465115 -0.10465115       0.000
   0.00000000  0.09883720 -0.09883720       0.000
   0.00000000  0.09302324 -0.09302324       0.000
   0.00000000  0.08720928 -0.08720928       0.000
  -0.00000001  0.08139533 -0.08139533       0.000
   0.00000001  0.07558137 -0.07558137       0.000
   0.00000000  0.06976742 -0.06976742       0.000
   0.00000000  0.06395346 -0.06395346       0.000
   0.00000000  0.05813950 -0.05813950       0.000
  -0.00000001  0.05232555 -0.05232555       0.000
   0.00000001  0.04651159 -0.04651159       0.000
   0.00000001  0.04069763 -0.04069763       0.000
   0.00000000  0.03488368 -0.03488368       0.000
   0.00000000  0.02906972 -0.02906972       0.000
  -0.00000001  0.02325583 -0.02325583       0.000
  -0.00000001  0.01744187 -0.01744187       0.000
   0.00000001  0.01162791 -0.01162791       0.000
   0.00000000  0.00581396 -0.00581396       0.000
   0.00000000  0.00000000  0.00000000       0.000
   0.00409836  0.00409836 -0.00409836       0.000
   0.00819672  0.00819672 -0.00819672       0.000
   0.01229508  0.01229508 -0.01229508       0.000
   0.01639344  0.01639344 -0.01639344       0.000
   0.02049180  0.02049180 -0.02049180       0.000
   0.02459016  0.02459016 -0.02459016       0.000
   0.02868852  0.02868852 -0.02868852       0.000
   0.03278688  0.03278688 -0.03278688       0.000
   0.03688525  0.03688525 -0.03688525       0.000
   0.04098361  0.04098361 -0.04098361       0.000
   0.04508197  0.04508197 -0.04508197       0.000
   0.04918033  0.04918033 -0.04918033       0.000
   0.05327869  0.05327869 -0.05327869       0.000
   0.05737704  0.05737704 -0.05737704       0.000
   0.06147541  0.06147541 -0.06147541       0.000
   0.06557377  0.06557377 -0.06557377       0.000
   0.06967213  0.06967213 -0.06967213       0.000
   0.07377049  0.07377049 -0.07377049       0.000
   0.07786886  0.07786886 -0.07786886       0.000
   0.08196721  0.08196721 -0.08196721       0.000
   0.08606557  0.08606557 -0.08606557       0.000
   0.09016393  0.09016393 -0.09016393       0.000
   0.09426229  0.09426229 -0.09426229       0.000
   0.09836065  0.09836065 -0.09836065       0.000
   0.10245901  0.10245901 -0.10245901       0.000
   0.10655738  0.10655738 -0.10655738       0.000
   0.11065574  0.11065574 -0.11065574       0.000
   0.11475409  0.11475409 -0.11475409       0.000
   0.11885245  0.11885245 -0.11885245       0.000
   0.12295081  0.12295081 -0.12295081       0.000
   0.12704918  0.12704918 -0.12704918       0.000
   0.13114753  0.13114753 -0.13114753       0.000
   0.13524590  0.13524590 -0.13524590       0.000
   0.13934426  0.13934426 -0.13934426       0.000
   0.14344262  0.14344262 -0.14344262       0.000
   0.14754099  0.14754099 -0.14754099       0.000
   0.15163934  0.15163934 -0.15163934       0.000
   0.15573771  0.15573771 -0.15573771       0.000
   0.15983605  0.15983605 -0.15983605       0.000
   0.16393442  0.16393442 -0.16393442       0.000
   0.16803278  0.16803278 -0.16803278       0.000
   0.17213114  0.17213114 -0.17213114       0.000
   0.17622951  0.17622951 -0.17622951       0.000
   0.18032786  0.18032786 -0.18032786       0.000
   0.18442623  0.18442623 -0.18442623       0.000
   0.18852459  0.18852459 -0.18852459       0.000
   0.19262296  0.19262296 -0.19262296       0.000
   0.19672130  0.19672130 -0.19672130       0.000
   0.20081966  0.20081966 -0.20081966       0.000
   0.20491803  0.20491803 -0.20491803       0.000
   0.20901638  0.20901638 -0.20901638       0.000
   0.21311475  0.21311475 -0.21311475       0.000
   0.21721311  0.21721311 -0.21721311       0.000
   0.22131148  0.22131148 -0.22131148       0.000
   0.22540984  0.22540984 -0.22540984       0.000
   0.22950818  0.22950818 -0.22950818       0.000
   0.23360655  0.23360655 -0.23360655       0.000
   0.23770490  0.23770490 -0.23770490       0.000
   0.24180327  0.24180327 -0.24180327       0.000
   0.24590163  0.24590163 -0.24590163       0.000
   0.25000000  0.25000000 -0.25000000       0.000
   0.25409836  0.25409836 -0.25409836       0.000
   0.25819671  0.25819671 -0.25819671       0.000
   0.26229507  0.26229507 -0.26229507       0.000
   0.26639342  0.26639342 -0.26639342       0.000
   0.27049181  0.27049181 -0.27049181       0.000
   0.27459016  0.27459016 -0.27459016       0.000
   0.27868852  0.27868852 -0.27868852       0.000
   0.28278688  0.28278688 -0.28278688       0.000
   0.28688523  0.28688523 -0.28688523       0.000
   0.29098362  0.29098362 -0.29098362       0.000
   0.29508197  0.29508197 -0.29508197       0.000
   0.29918033  0.29918033 -0.29918033       0.000
   0.30327868  0.30327868 -0.30327868       0.000
   0.30737704  0.30737704 -0.30737704       0.000
   0.31147543  0.31147543 -0.31147543       0.000
   0.31557378  0.31557378 -0.31557378       0.000
   0.31967211  0.31967211 -0.31967211       0.000
   0.32377046  0.32377046 -0.32377046       0.000
   0.32786885  0.32786885 -0.32786885       0.000
   0.33196720  0.33196720 -0.33196720       0.000
   0.33606556  0.33606556 -0.33606556       0.000
   0.34016392  0.34016392 -0.34016392       0.000
   0.34426227  0.34426227 -0.34426227       0.000
   0.34836066  0.34836066 -0.34836066       0.000
   0.35245901  0.35245901 -0.35245901       0.000
   0.35655737  0.35655737 -0.35655737       0.000
   0.36065573  0.36065573 -0.36065573       0.000
   0.36475408  0.36475408 -0.36475408       0.000
   0.36885247  0.36885247 -0.36885247       0.000
   0.37295082  0.37295082 -0.37295082       0.000
   0.37704918  0.37704918 -0.37704918       0.000
   0.38114753  0.38114753 -0.38114753       0.000
   0.38524592  0.38524592 -0.38524592       0.000
   0.38934427  0.38934427 -0.38934427       0.000
   0.39344260  0.39344260 -0.39344260       0.000
   0.39754096  0.39754096 -0.39754096       0.000
   0.40163931  0.40163931 -0.40163931       0.000
   0.40573770  0.40573770 -0.40573770       0.000
   0.40983605  0.40983605 -0.40983605       0.000
   0.41393441  0.41393441 -0.41393441       0.000
   0.41803277  0.41803277 -0.41803277       0.000
   0.42213115  0.42213115 -0.42213115       0.000
   0.42622951  0.42622951 -0.42622951       0.000
   0.43032786  0.43032786 -0.43032786       0.000
   0.43442622  0.43442622 -0.43442622       0.000
   0.43852457  0.43852457 -0.43852457       0.000
   0.44262296  0.44262296 -0.44262296       0.000
   0.44672132  0.44672132 -0.44672132       0.000
   0.45081967  0.45081967 -0.45081967       0.000
   0.45491803  0.45491803 -0.45491803       0.000
   0.45901635  0.45901635 -0.45901635       0.000
   0.46311477  0.46311477 -0.46311477       0.000
   0.46721309  0.46721309 -0.46721309       0.000
   0.47131145  0.47131145 -0.47131145       0.000
   0.47540981  0.47540981 -0.47540981       0.000
   0.47950819  0.47950819 -0.47950819       0.000
   0.48360655  0.48360655 -0.48360655       0.000
   0.48770490  0.48770490 -0.48770490       0.000
   0.49180326  0.49180326 -0.49180326       0.000
   0.49590161  0.49590161 -0.49590161       0.000
   0.50000000  0.50000000 -0.50000000       0.000
   0.49418604  0.51162792 -0.49418604       0.000
   0.48837209  0.52325583 -0.48837209       0.000
   0.48255813  0.53488373 -0.48255813       0.000
   0.47674417  0.54651165 -0.47674417       0.000
   0.47093022  0.55813956 -0.47093022       0.000
   0.46511629  0.56976745 -0.46511629       0.000
   0.45930234  0.58139536 -0.45930234       0.000
   0.45348838  0.59302328 -0.45348838       0.000
   0.44767442  0.60465118 -0.44767442       0.000
   0.44186047  0.61627909 -0.44186047       0.000
   0.43604651  0.62790701 -0.43604651       0.000
   0.43023255  0.63953493 -0.43023255       0.000
   0.42441860  0.65116284 -0.42441860       0.000
   0.41860464  0.66279074 -0.41860464       0.000
   0.41279072  0.67441862 -0.41279072       0.000
   0.40697676  0.68604654 -0.40697676       0.000
   0.40116280  0.69767446 -0.40116280       0.000
   0.39534885  0.70930237 -0.39534885       0.000
   0.38953489  0.72093027 -0.38953489       0.000
   0.38372093  0.73255819 -0.38372093       0.000
   0.37790698  0.74418598 -0.37790698       0.000
   0.37209302  0.75581402 -0.37209302       0.000
   0.36627907  0.76744181 -0.36627907       0.000
   0.36046511  0.77906973 -0.36046511       0.000
   0.35465115  0.79069763 -0.35465115       0.000
   0.34883720  0.80232554 -0.34883720       0.000
   0.34302324  0.81395346 -0.34302324       0.000
   0.33720928  0.82558138 -0.33720928       0.000
   0.33139536  0.83720926 -0.33139536       0.000
   0.32558140  0.84883716 -0.32558140       0.000
   0.31976745  0.86046507 -0.31976745       0.000
   0.31395349  0.87209299 -0.31395349       0.000
   0.30813956  0.88372088 -0.30813956       0.000
   0.30232561  0.89534879 -0.30232561       0.000
   0.29651165  0.90697669 -0.29651165       0.000
   0.29069766  0.91860464 -0.29069766       0.000
   0.28488374  0.93023252 -0.28488374       0.000
   0.27906978  0.94186044 -0.27906978       0.000
   0.27325583  0.95348835 -0.27325583       0.000
   0.26744187  0.96511627 -0.26744187       0.000
   0.26162791  0.97674417 -0.26162791       0.000
   0.25581396  0.98837208 -0.25581396       0.000
   0.25000000  1.00000000 -0.25000000       0.000
   0.24000000  1.00000000 -0.26000000       0.000
   0.23000002  1.00000000 -0.26999998       0.000
   0.22000002  1.00000000 -0.27999998       0.000
   0.21000004  1.00000000 -0.28999996       0.000
   0.20000004  1.00000000 -0.29999996       0.000
   0.19000006  1.00000000 -0.30999994       0.000
   0.17999994  1.00000000 -0.32000006       0.000
   0.16999996  1.00000000 -0.33000004       0.000
   0.15999996  1.00000000 -0.34000004       0.000
   0.14999998  1.00000000 -0.35000002       0.000
   0.13999998  1.00000000 -0.36000002       0.000
   0.13000000  1.00000000 -0.37000000       0.000
   0.12000000  1.00000000 -0.38000000       0.000
   0.11000002  1.00000000 -0.38999998       0.000
   0.10000002  1.00000000 -0.39999998       0.000
   0.09000004  1.00000000 -0.40999996       0.000
   0.08000004  1.00000000 -0.41999996       0.000
   0.06999994  1.00000000 -0.43000006       0.000
   0.05999994  1.00000000 -0.44000006       0.000
   0.04999996  1.00000000 -0.45000004       0.000
   0.03999996  1.00000000 -0.46000004       0.000
   0.02999998  1.00000000 -0.47000002       0.000
   0.01999998  1.00000000 -0.48000002       0.000
   0.01000000  1.00000000 -0.49000000       0.000
   0.00000000  1.00000000 -0.50000000       0.000
   0.01000000  0.99000000 -0.50000000       0.000
   0.01999998  0.98000002 -0.50000000       0.000
   0.02999998  0.97000002 -0.50000000       0.000
   0.03999999  0.96000001 -0.50000003       0.000
   0.04999999  0.95000001 -0.50000003       0.000
   0.05999997  0.94000003 -0.50000003       0.000
   0.07000003  0.92999997 -0.49999997       0.000
   0.08000001  0.91999999 -0.49999997       0.000
   0.09000004  0.90999996 -0.50000000       0.000
   0.10000002  0.89999998 -0.50000000       0.000
   0.11000002  0.88999998 -0.50000000       0.000
   0.12000000  0.88000000 -0.50000000       0.000
   0.13000000  0.87000000 -0.50000000       0.000
   0.13999998  0.86000002 -0.50000000       0.000
   0.14999998  0.85000002 -0.50000000       0.000
   0.15999996  0.84000004 -0.50000000       0.000
   0.16999999  0.83000001 -0.50000003       0.000
   0.18000003  0.81999997 -0.49999997       0.000
   0.19000003  0.80999997 -0.49999997       0.000
   0.20000001  0.79999999 -0.49999997       0.000
   0.21000004  0.78999996 -0.50000000       0.000
   0.22000002  0.77999998 -0.50000000       0.000
   0.23000002  0.76999998 -0.50000000       0.000
   0.24000000  0.76000000 -0.50000000       0.000
   0.25000000  0.75000000 -0.50000000       0.000
   0.26000000  0.74000000 -0.50000000       0.000
   0.26999998  0.73000002 -0.50000000       0.000
   0.27999998  0.72000002 -0.50000000       0.000
   0.28999996  0.71000004 -0.50000000       0.000
   0.29999996  0.70000004 -0.50000000       0.000
   0.30999997  0.69000003 -0.50000003       0.000
   0.31999997  0.68000003 -0.50000003       0.000
   0.32999995  0.67000005 -0.50000003       0.000
   0.34000004  0.65999996 -0.50000000       0.000
   0.35000002  0.64999998 -0.50000000       0.000
   0.36000002  0.63999998 -0.50000000       0.000
   0.37000000  0.63000000 -0.50000000       0.000
   0.38000000  0.62000000 -0.50000000       0.000
   0.38999998  0.61000002 -0.50000000       0.000
   0.39999998  0.60000002 -0.50000000       0.000
   0.40999996  0.59000004 -0.50000000       0.000
   0.42000005  0.57999995 -0.49999997       0.000
   0.42999994  0.57000006 -0.50000000       0.000
   0.44000003  0.55999997 -0.49999997       0.000
   0.45000004  0.54999996 -0.50000000       0.000
   0.46000001  0.53999999 -0.49999997       0.000
   0.47000002  0.52999998 -0.50000000       0.000
   0.48000002  0.51999998 -0.50000000       0.000
   0.49000000  0.51000000 -0.50000000       0.000
   0.50000000  0.50000000 -0.50000000       0.000
   0.48837208  0.50581396 -0.50581396       0.000
   0.47674417  0.51162791 -0.51162791       0.000
   0.46511627  0.51744187 -0.51744187       0.000
   0.45348835  0.52325583 -0.52325583       0.000
   0.44186044  0.52906978 -0.52906978       0.000
   0.43023252  0.53488374 -0.53488374       0.000
   0.41860461  0.54069769 -0.54069769       0.000
   0.40697669  0.54651165 -0.54651165       0.000
   0.39534879  0.55232561 -0.55232561       0.000
   0.38372088  0.55813956 -0.55813956       0.000
   0.37209296  0.56395352 -0.56395352       0.000
   0.36046516  0.56976742 -0.56976742       0.000
   0.34883725  0.57558137 -0.57558137       0.000
   0.33720935  0.58139533 -0.58139533       0.000
   0.32558144  0.58720928 -0.58720928       0.000
   0.31395352  0.59302324 -0.59302324       0.000
   0.30232560  0.59883720 -0.59883720       0.000
   0.29069769  0.60465115 -0.60465115       0.000
   0.27906979  0.61046511 -0.61046511       0.000
   0.26744187  0.61627907 -0.61627907       0.000
   0.25581396  0.62209302 -0.62209302       0.000
   0.24418604  0.62790698 -0.62790698       0.000
   0.23255813  0.63372093 -0.63372093       0.000
   0.22093021  0.63953489 -0.63953489       0.000
   0.20930231  0.64534885 -0.64534885       0.000
   0.19767440  0.65116280 -0.65116280       0.000
   0.18604648  0.65697676 -0.65697676       0.000
   0.17441856  0.66279072 -0.66279072       0.000
   0.16279077  0.66860461 -0.66860461       0.000
   0.15116287  0.67441857 -0.67441857       0.000
   0.13953496  0.68023252 -0.68023252       0.000
   0.12790704  0.68604648 -0.68604648       0.000
   0.11627912  0.69186044 -0.69186044       0.000
   0.10465121  0.69767439 -0.69767439       0.000
   0.09302331  0.70348835 -0.70348835       0.000
   0.08139539  0.70930231 -0.70930231       0.000
   0.06976748  0.71511626 -0.71511626       0.000
   0.05813956  0.72093022 -0.72093022       0.000
   0.04651165  0.72674417 -0.72674417       0.000
   0.03488373  0.73255813 -0.73255813       0.000
   0.02325583  0.73837209 -0.73837209       0.000
   0.01162792  0.74418604 -0.74418604       0.000
 
 k-points in reciprocal lattice and weights: Automatically generated mesh            
   0.00000000  0.00000000  0.00000000       0.005
   0.16666667  0.00000000  0.00000000       0.037
   0.33333333  0.00000000  0.00000000       0.037
   0.50000000  0.00000000  0.00000000       0.019
   0.16666667  0.16666667  0.00000000       0.028
   0.33333333  0.16666667  0.00000000       0.111
   0.50000000  0.16666667  0.00000000       0.111
  -0.33333333  0.16666667  0.00000000       0.111
  -0.16666667  0.16666667  0.00000000       0.056
   0.33333333  0.33333333  0.00000000       0.028
   0.50000000  0.33333333  0.00000000       0.111
  -0.33333333  0.33333333  0.00000000       0.056
   0.50000000  0.50000000  0.00000000       0.014
   0.50000000  0.33333333  0.16666667       0.111
  -0.33333333  0.33333333  0.16666667       0.111
  -0.33333333  0.50000000  0.16666667       0.056
   0.00000000  0.00000000  0.00000000       0.000
   0.00500000  0.00000000  0.00500000       0.000
   0.01000000  0.00000000  0.01000000       0.000
   0.01500000  0.00000000  0.01500000       0.000
   0.02000000  0.00000000  0.02000000       0.000
   0.02500000  0.00000000  0.02500000       0.000
   0.03000000  0.00000000  0.03000000       0.000
   0.03500000  0.00000000  0.03500000       0.000
   0.04000000  0.00000000  0.04000000       0.000
   0.04500000  0.00000000  0.04500000       0.000
   0.05000000  0.00000000  0.05000000       0.000
   0.05500000  0.00000000  0.05500000       0.000
   0.06000000  0.00000000  0.06000000       0.000
   0.06500000  0.00000000  0.06500000       0.000
   0.07000000  0.00000000  0.07000000       0.000
   0.07500000  0.00000000  0.07500000       0.000
   0.08000000  0.00000000  0.08000000       0.000
   0.08500000  0.00000000  0.08500000       0.000
   0.09000000  0.00000000  0.09000000       0.000
   0.09500000  0.00000000  0.09500000       0.000
   0.09999999  0.00000000  0.09999999       0.000
   0.10500000  0.00000000  0.10500000       0.000
   0.11000000  0.00000000  0.11000000       0.000
   0.11499999  0.00000000  0.11499999       0.000
   0.12000000  0.00000000  0.12000000       0.000
   0.12500000  0.00000000  0.12500000       0.000
   0.13000000  0.00000000  0.13000000       0.000
   0.13499999  0.00000000  0.13499999       0.000
   0.14000000  0.00000000  0.14000000       0.000
   0.14500000  0.00000000  0.14500000       0.000
   0.14999999  0.00000000  0.14999999       0.000
   0.15500000  0.00000000  0.15500000       0.000
   0.16000000  0.00000000  0.16000000       0.000
   0.16499999  0.00000000  0.16499999       0.000
   0.17000000  0.00000000  0.17000000       0.000
   0.17500000  0.00000000  0.17500000       0.000
   0.18000001  0.00000000  0.18000001       0.000
   0.18499999  0.00000000  0.18499999       0.000
   0.19000000  0.00000000  0.19000000       0.000
   0.19500001  0.00000000  0.19500001       0.000
   0.19999999  0.00000000  0.19999999       0.000
   0.20500000  0.00000000  0.20500000       0.000
   0.21000001  0.00000000  0.21000001       0.000
   0.21499999  0.00000000  0.21499999       0.000
   0.22000000  0.00000000  0.22000000       0.000
   0.22500001  0.00000000  0.22500001       0.000
   0.22999999  0.00000000  0.22999999       0.000
   0.23500000  0.00000000  0.23500000       0.000
   0.24000001  0.00000000  0.24000001       0.000
   0.24499999  0.00000000  0.24499999       0.000
   0.25000000  0.00000000  0.25000000       0.000
   0.25500000  0.00000000  0.25500000       0.000
   0.25999999  0.00000000  0.25999999       0.000
   0.26499999  0.00000000  0.26499999       0.000
   0.26999998  0.00000000  0.26999998       0.000
   0.27500001  0.00000000  0.27500001       0.000
   0.28000000  0.00000000  0.28000000       0.000
   0.28500000  0.00000000  0.28500000       0.000
   0.28999999  0.00000000  0.28999999       0.000
   0.29499999  0.00000000  0.29499999       0.000
   0.29999998  0.00000000  0.29999998       0.000
   0.30500001  0.00000000  0.30500001       0.000
   0.31000000  0.00000000  0.31000000       0.000
   0.31500000  0.00000000  0.31500000       0.000
   0.31999999  0.00000000  0.31999999       0.000
   0.32499999  0.00000000  0.32499999       0.000
   0.32999998  0.00000000  0.32999998       0.000
   0.33500001  0.00000000  0.33500001       0.000
   0.34000000  0.00000000  0.34000000       0.000
   0.34500000  0.00000000  0.34500000       0.000
   0.34999999  0.00000000  0.34999999       0.000
   0.35499999  0.00000000  0.35499999       0.000
   0.36000001  0.00000000  0.36000001       0.000
   0.36499998  0.00000000  0.36499998       0.000
   0.36999997  0.00000000  0.36999997       0.000
   0.37500000  0.00000000  0.37500000       0.000
   0.38000000  0.00000000  0.38000000       0.000
   0.38499999  0.00000000  0.38499999       0.000
   0.39000002  0.00000000  0.39000002       0.000
   0.39499998  0.00000000  0.39499998       0.000
   0.39999998  0.00000000  0.39999998       0.000
   0.40500000  0.00000000  0.40500000       0.000
   0.41000000  0.00000000  0.41000000       0.000
   0.41499999  0.00000000  0.41499999       0.000
   0.42000002  0.00000000  0.42000002       0.000
   0.42499998  0.00000000  0.42499998       0.000
   0.42999998  0.00000000  0.42999998       0.000
   0.43500000  0.00000000  0.43500000       0.000
   0.44000000  0.00000000  0.44000000       0.000
   0.44499999  0.00000000  0.44499999       0.000
   0.45000002  0.00000000  0.45000002       0.000
   0.45499998  0.00000000  0.45499998       0.000
   0.45999998  0.00000000  0.45999998       0.000
   0.46500000  0.00000000  0.46500000       0.000
   0.47000000  0.00000000  0.47000000       0.000
   0.47499999  0.00000000  0.47499999       0.000
   0.48000002  0.00000000  0.48000002       0.000
   0.48499998  0.00000000  0.48499998       0.000
   0.48999998  0.00000000  0.48999998       0.000
   0.49500000  0.00000000  0.49500000       0.000
   0.50000000  0.00000000  0.50000000       0.000
   0.50000000  0.00641026  0.50320512       0.000
   0.50000000  0.01282051  0.50641024       0.000
   0.50000000  0.01923077  0.50961536       0.000
   0.50000000  0.02564103  0.51282054       0.000
   0.50000000  0.03205128  0.51602566       0.000
   0.50000000  0.03846154  0.51923078       0.000
   0.50000000  0.04487180  0.52243590       0.000
   0.50000000  0.05128205  0.52564102       0.000
   0.50000000  0.05769231  0.52884614       0.000
   0.50000000  0.06410257  0.53205127       0.000
   0.50000000  0.07051282  0.53525639       0.000
   0.50000000  0.07692308  0.53846157       0.000
   0.50000000  0.08333334  0.54166669       0.000
   0.50000000  0.08974359  0.54487181       0.000
   0.50000000  0.09615385  0.54807693       0.000
   0.50000000  0.10256410  0.55128205       0.000
   0.50000000  0.10897436  0.55448717       0.000
   0.50000000  0.11538462  0.55769229       0.000
   0.50000000  0.12179487  0.56089741       0.000
   0.50000000  0.12820514  0.56410259       0.000
   0.50000000  0.13461539  0.56730771       0.000
   0.50000000  0.14102565  0.57051283       0.000
   0.50000000  0.14743589  0.57371795       0.000
   0.50000000  0.15384616  0.57692307       0.000
   0.50000000  0.16025642  0.58012819       0.000
   0.50000000  0.16666667  0.58333331       0.000
   0.50000000  0.17307693  0.58653843       0.000
   0.50000000  0.17948718  0.58974361       0.000
   0.50000000  0.18589745  0.59294873       0.000
   0.50000000  0.19230770  0.59615386       0.000
   0.50000000  0.19871795  0.59935898       0.000
   0.50000000  0.20512821  0.60256410       0.000
   0.50000000  0.21153848  0.60576922       0.000
   0.50000000  0.21794872  0.60897434       0.000
   0.50000000  0.22435898  0.61217952       0.000
   0.50000000  0.23076923  0.61538464       0.000
   0.50000000  0.23717950  0.61858976       0.000
   0.50000000  0.24358974  0.62179488       0.000
   0.50000000  0.25000000  0.62500000       0.000
   0.49583334  0.25416666  0.62916666       0.000
   0.49166667  0.25833333  0.63333333       0.000
   0.48750001  0.26249999  0.63749999       0.000
   0.48333332  0.26666668  0.64166665       0.000
   0.47916666  0.27083334  0.64583331       0.000
   0.47499999  0.27500001  0.64999998       0.000
   0.47083333  0.27916667  0.65416664       0.000
   0.46666667  0.28333333  0.65833336       0.000
   0.46250001  0.28749999  0.66250002       0.000
   0.45833334  0.29166666  0.66666669       0.000
   0.45416665  0.29583335  0.67083335       0.000
   0.44999999  0.30000001  0.67500001       0.000
   0.44583333  0.30416667  0.67916667       0.000
   0.44166666  0.30833334  0.68333334       0.000
   0.43750000  0.31250000  0.68750000       0.000
   0.43333334  0.31666666  0.69166666       0.000
   0.42916667  0.32083333  0.69583333       0.000
   0.42500001  0.32499999  0.69999999       0.000
   0.42083332  0.32916668  0.70416665       0.000
   0.41666666  0.33333334  0.70833331       0.000
   0.41249999  0.33750001  0.71249998       0.000
   0.40833333  0.34166667  0.71666670       0.000
   0.40416667  0.34583333  0.72083336       0.000
   0.40000001  0.34999999  0.72500002       0.000
   0.39583334  0.35416666  0.72916669       0.000
   0.39166665  0.35833335  0.73333335       0.000
   0.38749999  0.36250001  0.73750001       0.000
   0.38333333  0.36666667  0.74166667       0.000
   0.37916666  0.37083334  0.74583334       0.000
   0.37500000  0.37500000  0.75000000       0.000
   0.37209302  0.37209302  0.74418604       0.000
   0.36918604  0.36918604  0.73837209       0.000
   0.36627907  0.36627907  0.73255813       0.000
   0.36337209  0.36337209  0.72674417       0.000
   0.36046511  0.36046511  0.72093022       0.000
   0.35755813  0.35755813  0.71511626       0.000
   0.35465115  0.35465115  0.70930231       0.000
   0.35174417  0.35174417  0.70348835       0.000
   0.34883720  0.34883720  0.69767439       0.000
   0.34593022  0.34593022  0.69186044       0.000
   0.34302324  0.34302324  0.68604648       0.000
   0.34011626  0.34011626  0.68023252       0.000
   0.33720928  0.33720928  0.67441857       0.000
   0.33430234  0.33430234  0.66860467       0.000
   0.33139536  0.33139536  0.66279072       0.000
   0.32848838  0.32848838  0.65697676       0.000
   0.32558140  0.32558140  0.65116280       0.000
   0.32267442  0.32267442  0.64534885       0.000
   0.31976745  0.31976745  0.63953489       0.000
   0.31686047  0.31686047  0.63372093       0.000
   0.31395349  0.31395349  0.62790698       0.000
   0.31104651  0.31104651  0.62209302       0.000
   0.30813953  0.30813953  0.61627907       0.000
   0.30523255  0.30523255  0.61046511       0.000
   0.30232558  0.30232558  0.60465115       0.000
   0.29941860  0.29941860  0.59883720       0.000
   0.29651162  0.29651162  0.59302324       0.000
   0.29360464  0.29360464  0.58720928       0.000
   0.29069766  0.29069766  0.58139533       0.000
   0.28779069  0.28779069  0.57558137       0.000
   0.28488371  0.28488371  0.56976742       0.000
   0.28197676  0.28197676  0.56395352       0.000
   0.27906978  0.27906978  0.55813956       0.000
   0.27616280  0.27616280  0.55232561       0.000
   0.27325583  0.27325583  0.54651165       0.000
   0.27034885  0.27034885  0.54069769       0.000
   0.26744187  0.26744187  0.53488374       0.000
   0.26453489  0.26453489  0.52906978       0.000
   0.26162791  0.26162791  0.52325583       0.000
   0.25872093  0.25872093  0.51744187       0.000
   0.25581396  0.25581396  0.51162791       0.000
   0.25290698  0.25290698  0.50581396       0.000
   0.25000000  0.25000000  0.50000000       0.000
   0.24709302  0.24709302  0.49418604       0.000
   0.24418604  0.24418604  0.48837209       0.000
   0.24127907  0.24127907  0.48255813       0.000
   0.23837209  0.23837209  0.47674417       0.000
   0.23546511  0.23546511  0.47093022       0.000
   0.23255813  0.23255813  0.46511626       0.000
   0.22965115  0.22965115  0.45930231       0.000
   0.22674417  0.22674417  0.45348835       0.000
   0.22383720  0.22383720  0.44767439       0.000
   0.22093023  0.22093023  0.44186047       0.000
   0.21802326  0.21802326  0.43604651       0.000
   0.21511628  0.21511628  0.43023255       0.000
   0.21220930  0.21220930  0.42441860       0.000
   0.20930232  0.20930232  0.41860464       0.000
   0.20639534  0.20639534  0.41279069       0.000
   0.20348836  0.20348836  0.40697673       0.000
   0.20058139  0.20058139  0.40116277       0.000
   0.19767441  0.19767441  0.39534882       0.000
   0.19476743  0.19476743  0.38953486       0.000
   0.19186047  0.19186047  0.38372093       0.000
   0.18895349  0.18895349  0.37790698       0.000
   0.18604651  0.18604651  0.37209302       0.000
   0.18313953  0.18313953  0.36627907       0.000
   0.18023255  0.18023255  0.36046511       0.000
   0.17732558  0.17732558  0.35465115       0.000
   0.17441860  0.17441860  0.34883720       0.000
   0.17151162  0.17151162  0.34302324       0.000
   0.16860464  0.16860464  0.33720928       0.000
   0.16569768  0.16569768  0.33139536       0.000
   0.16279070  0.16279070  0.32558140       0.000
   0.15988372  0.15988372  0.31976745       0.000
   0.15697674  0.15697674  0.31395349       0.000
   0.15406977  0.15406977  0.30813953       0.000
   0.15116279  0.15116279  0.30232558       0.000
   0.14825581  0.14825581  0.29651162       0.000
   0.14534883  0.14534883  0.29069766       0.000
   0.14244185  0.14244185  0.28488371       0.000
   0.13953488  0.13953488  0.27906975       0.000
   0.13662791  0.13662791  0.27325583       0.000
   0.13372093  0.13372093  0.26744187       0.000
   0.13081396  0.13081396  0.26162791       0.000
   0.12790698  0.12790698  0.25581396       0.000
   0.12500000  0.12500000  0.25000000       0.000
   0.12209302  0.12209302  0.24418604       0.000
   0.11918604  0.11918604  0.23837209       0.000
   0.11627907  0.11627907  0.23255813       0.000
   0.11337209  0.11337209  0.22674417       0.000
   0.11046511  0.11046511  0.22093022       0.000
   0.10755813  0.10755813  0.21511626       0.000
   0.10465115  0.10465115  0.20930231       0.000
   0.10174417  0.10174417  0.20348835       0.000
   0.09883720  0.09883720  0.19767439       0.000
   0.09593022  0.09593022  0.19186044       0.000
   0.09302324  0.09302324  0.18604648       0.000
   0.09011626  0.09011626  0.18023252       0.000
   0.08720928  0.08720928  0.17441857       0.000
   0.08430231  0.08430231  0.16860461       0.000
   0.08139533  0.08139533  0.16279066       0.000
   0.07848835  0.07848835  0.15697670       0.000
   0.07558137  0.07558137  0.15116274       0.000
   0.07267439  0.07267439  0.14534879       0.000
   0.06976742  0.06976742  0.13953483       0.000
   0.06686047  0.06686047  0.13372093       0.000
   0.06395349  0.06395349  0.12790698       0.000
   0.06104651  0.06104651  0.12209302       0.000
   0.05813953  0.05813953  0.11627907       0.000
   0.05523255  0.05523255  0.11046511       0.000
   0.05232558  0.05232558  0.10465115       0.000
   0.04941860  0.04941860  0.09883720       0.000
   0.04651162  0.04651162  0.09302324       0.000
   0.04360464  0.04360464  0.08720928       0.000
   0.04069766  0.04069766  0.08139533       0.000
   0.03779069  0.03779069  0.07558137       0.000
   0.03488371  0.03488371  0.06976742       0.000
   0.03197673  0.03197673  0.06395346       0.000
   0.02906975  0.02906975  0.05813950       0.000
   0.02616277  0.02616277  0.05232555       0.000
   0.02325580  0.02325580  0.04651159       0.000
   0.02034882  0.02034882  0.04069763       0.000
   0.01744184  0.01744184  0.03488368       0.000
   0.01453486  0.01453486  0.02906972       0.000
   0.01162791  0.01162791  0.02325583       0.000
   0.00872093  0.00872093  0.01744187       0.000
   0.00581396  0.00581396  0.01162791       0.000
   0.00290698  0.00290698  0.00581396       0.000
   0.00000000  0.00000000  0.00000000       0.000
   0.00409836  0.00409836  0.00409836       0.000
   0.00819672  0.00819672  0.00819672       0.000
   0.01229508  0.01229508  0.01229508       0.000
   0.01639344  0.01639344  0.01639344       0.000
   0.02049180  0.02049180  0.02049180       0.000
   0.02459016  0.02459016  0.02459016       0.000
   0.02868852  0.02868852  0.02868852       0.000
   0.03278688  0.03278688  0.03278688       0.000
   0.03688525  0.03688525  0.03688525       0.000
   0.04098361  0.04098361  0.04098361       0.000
   0.04508197  0.04508197  0.04508197       0.000
   0.04918033  0.04918033  0.04918033       0.000
   0.05327869  0.05327869  0.05327869       0.000
   0.05737704  0.05737704  0.05737704       0.000
   0.06147541  0.06147541  0.06147541       0.000
   0.06557377  0.06557377  0.06557377       0.000
   0.06967213  0.06967213  0.06967213       0.000
   0.07377049  0.07377049  0.07377049       0.000
   0.07786886  0.07786886  0.07786886       0.000
   0.08196721  0.08196721  0.08196721       0.000
   0.08606557  0.08606557  0.08606557       0.000
   0.09016393  0.09016393  0.09016393       0.000
   0.09426229  0.09426229  0.09426229       0.000
   0.09836065  0.09836065  0.09836065       0.000
   0.10245901  0.10245901  0.10245901       0.000
   0.10655738  0.10655738  0.10655738       0.000
   0.11065574  0.11065574  0.11065574       0.000
   0.11475409  0.11475409  0.11475409       0.000
   0.11885245  0.11885245  0.11885245       0.000
   0.12295081  0.12295081  0.12295081       0.000
   0.12704918  0.12704918  0.12704918       0.000
   0.13114753  0.13114753  0.13114753       0.000
   0.13524590  0.13524590  0.13524590       0.000
   0.13934426  0.13934426  0.13934426       0.000
   0.14344262  0.14344262  0.14344262       0.000
   0.14754099  0.14754099  0.14754099       0.000
   0.15163934  0.15163934  0.15163934       0.000
   0.15573771  0.15573771  0.15573771       0.000
   0.15983605  0.15983605  0.15983605       0.000
   0.16393442  0.16393442  0.16393442       0.000
   0.16803278  0.16803278  0.16803278       0.000
   0.17213114  0.17213114  0.17213114       0.000
   0.17622951  0.17622951  0.17622951       0.000
   0.18032786  0.18032786  0.18032786       0.000
   0.18442623  0.18442623  0.18442623       0.000
   0.18852459  0.18852459  0.18852459       0.000
   0.19262296  0.19262296  0.19262296       0.000
   0.19672130  0.19672130  0.19672130       0.000
   0.20081966  0.20081966  0.20081966       0.000
   0.20491803  0.20491803  0.20491803       0.000
   0.20901638  0.20901638  0.20901638       0.000
   0.21311475  0.21311475  0.21311475       0.000
   0.21721311  0.21721311  0.21721311       0.000
   0.22131148  0.22131148  0.22131148       0.000
   0.22540984  0.22540984  0.22540984       0.000
   0.22950818  0.22950818  0.22950818       0.000
   0.23360655  0.23360655  0.23360655       0.000
   0.23770490  0.23770490  0.23770490       0.000
   0.24180327  0.24180327  0.24180327       0.000
   0.24590163  0.24590163  0.24590163       0.000
   0.25000000  0.25000000  0.25000000       0.000
   0.25409836  0.25409836  0.25409836       0.000
   0.25819671  0.25819671  0.25819671       0.000
   0.26229507  0.26229507  0.26229507       0.000
   0.26639342  0.26639342  0.26639342       0.000
   0.27049181  0.27049181  0.27049181       0.000
   0.27459016  0.27459016  0.27459016       0.000
   0.27868852  0.27868852  0.27868852       0.000
   0.28278688  0.28278688  0.28278688       0.000
   0.28688523  0.28688523  0.28688523       0.000
   0.29098362  0.29098362  0.29098362       0.000
   0.29508197  0.29508197  0.29508197       0.000
   0.29918033  0.29918033  0.29918033       0.000
   0.30327868  0.30327868  0.30327868       0.000
   0.30737704  0.30737704  0.30737704       0.000
   0.31147543  0.31147543  0.31147543       0.000
   0.31557378  0.31557378  0.31557378       0.000
   0.31967211  0.31967211  0.31967211       0.000
   0.32377046  0.32377046  0.32377046       0.000
   0.32786885  0.32786885  0.32786885       0.000
   0.33196720  0.33196720  0.33196720       0.000
   0.33606556  0.33606556  0.33606556       0.000
   0.34016392  0.34016392  0.34016392       0.000
   0.34426227  0.34426227  0.34426227       0.000
   0.34836066  0.34836066  0.34836066       0.000
   0.35245901  0.35245901  0.35245901       0.000
   0.35655737  0.35655737  0.35655737       0.000
   0.36065573  0.36065573  0.36065573       0.000
   0.36475408  0.36475408  0.36475408       0.000
   0.36885247  0.36885247  0.36885247       0.000
   0.37295082  0.37295082  0.37295082       0.000
   0.37704918  0.37704918  0.37704918       0.000
   0.38114753  0.38114753  0.38114753       0.000
   0.38524592  0.38524592  0.38524592       0.000
   0.38934427  0.38934427  0.38934427       0.000
   0.39344260  0.39344260  0.39344260       0.000
   0.39754096  0.39754096  0.39754096       0.000
   0.40163931  0.40163931  0.40163931       0.000
   0.40573770  0.40573770  0.40573770       0.000
   0.40983605  0.40983605  0.40983605       0.000
   0.41393441  0.41393441  0.41393441       0.000
   0.41803277  0.41803277  0.41803277       0.000
   0.42213115  0.42213115  0.42213115       0.000
   0.42622951  0.42622951  0.42622951       0.000
   0.43032786  0.43032786  0.43032786       0.000
   0.43442622  0.43442622  0.43442622       0.000
   0.43852457  0.43852457  0.43852457       0.000
   0.44262296  0.44262296  0.44262296       0.000
   0.44672132  0.44672132  0.44672132       0.000
   0.45081967  0.45081967  0.45081967       0.000
   0.45491803  0.45491803  0.45491803       0.000
   0.45901635  0.45901635  0.45901635       0.000
   0.46311477  0.46311477  0.46311477       0.000
   0.46721309  0.46721309  0.46721309       0.000
   0.47131145  0.47131145  0.47131145       0.000
   0.47540981  0.47540981  0.47540981       0.000
   0.47950819  0.47950819  0.47950819       0.000
   0.48360655  0.48360655  0.48360655       0.000
   0.48770490  0.48770490  0.48770490       0.000
   0.49180326  0.49180326  0.49180326       0.000
   0.49590161  0.49590161  0.49590161       0.000
   0.50000000  0.50000000  0.50000000       0.000
   0.50290698  0.49418604  0.50290698       0.000
   0.50581396  0.48837209  0.50581396       0.000
   0.50872093  0.48255813  0.50872093       0.000
   0.51162791  0.47674417  0.51162791       0.000
   0.51453489  0.47093022  0.51453489       0.000
   0.51744187  0.46511629  0.51744187       0.000
   0.52034885  0.45930234  0.52034885       0.000
   0.52325583  0.45348838  0.52325583       0.000
   0.52616280  0.44767442  0.52616280       0.000
   0.52906978  0.44186047  0.52906978       0.000
   0.53197676  0.43604651  0.53197676       0.000
   0.53488374  0.43023255  0.53488374       0.000
   0.53779072  0.42441860  0.53779072       0.000
   0.54069769  0.41860464  0.54069769       0.000
   0.54360467  0.41279072  0.54360467       0.000
   0.54651165  0.40697676  0.54651165       0.000
   0.54941863  0.40116280  0.54941863       0.000
   0.55232561  0.39534885  0.55232561       0.000
   0.55523258  0.38953489  0.55523258       0.000
   0.55813956  0.38372093  0.55813956       0.000
   0.56104648  0.37790698  0.56104648       0.000
   0.56395352  0.37209302  0.56395352       0.000
   0.56686044  0.36627907  0.56686044       0.000
   0.56976742  0.36046511  0.56976742       0.000
   0.57267439  0.35465115  0.57267439       0.000
   0.57558137  0.34883720  0.57558137       0.000
   0.57848835  0.34302324  0.57848835       0.000
   0.58139533  0.33720928  0.58139533       0.000
   0.58430231  0.33139536  0.58430231       0.000
   0.58720928  0.32558140  0.58720928       0.000
   0.59011626  0.31976745  0.59011626       0.000
   0.59302324  0.31395349  0.59302324       0.000
   0.59593022  0.30813956  0.59593022       0.000
   0.59883720  0.30232561  0.59883720       0.000
   0.60174417  0.29651165  0.60174417       0.000
   0.60465115  0.29069766  0.60465115       0.000
   0.60755813  0.28488374  0.60755813       0.000
   0.61046511  0.27906978  0.61046511       0.000
   0.61337209  0.27325583  0.61337209       0.000
   0.61627907  0.26744187  0.61627907       0.000
   0.61918604  0.26162791  0.61918604       0.000
   0.62209302  0.25581396  0.62209302       0.000
   0.62500000  0.25000000  0.62500000       0.000
   0.62000000  0.25000000  0.63000000       0.000
   0.61500001  0.25000000  0.63499999       0.000
   0.61000001  0.25000000  0.63999999       0.000
   0.60500002  0.25000000  0.64499998       0.000
   0.60000002  0.25000000  0.64999998       0.000
   0.59500003  0.25000000  0.65499997       0.000
   0.58999997  0.25000000  0.66000003       0.000
   0.58499998  0.25000000  0.66500002       0.000
   0.57999998  0.25000000  0.67000002       0.000
   0.57499999  0.25000000  0.67500001       0.000
   0.56999999  0.25000000  0.68000001       0.000
   0.56500000  0.25000000  0.68500000       0.000
   0.56000000  0.25000000  0.69000000       0.000
   0.55500001  0.25000000  0.69499999       0.000
   0.55000001  0.25000000  0.69999999       0.000
   0.54500002  0.25000000  0.70499998       0.000
   0.54000002  0.25000000  0.70999998       0.000
   0.53499997  0.25000000  0.71500003       0.000
   0.52999997  0.25000000  0.72000003       0.000
   0.52499998  0.25000000  0.72500002       0.000
   0.51999998  0.25000000  0.73000002       0.000
   0.51499999  0.25000000  0.73500001       0.000
   0.50999999  0.25000000  0.74000001       0.000
   0.50500000  0.25000000  0.74500000       0.000
   0.50000000  0.25000000  0.75000000       0.000
   0.50000000  0.25500000  0.74500000       0.000
   0.50000000  0.25999999  0.74000001       0.000
   0.50000000  0.26499999  0.73500001       0.000
   0.50000000  0.27000001  0.73000002       0.000
   0.50000000  0.27500001  0.72500002       0.000
   0.50000000  0.28000000  0.72000003       0.000
   0.50000000  0.28500000  0.71499997       0.000
   0.50000000  0.28999999  0.70999998       0.000
   0.50000000  0.29500002  0.70499998       0.000
   0.50000000  0.30000001  0.69999999       0.000
   0.50000000  0.30500001  0.69499999       0.000
   0.50000000  0.31000000  0.69000000       0.000
   0.50000000  0.31500000  0.68500000       0.000
   0.50000000  0.31999999  0.68000001       0.000
   0.50000000  0.32499999  0.67500001       0.000
   0.50000000  0.32999998  0.67000002       0.000
   0.50000000  0.33500001  0.66500002       0.000
   0.50000000  0.34000000  0.65999997       0.000
   0.50000000  0.34500000  0.65499997       0.000
   0.50000000  0.34999999  0.64999998       0.000
   0.50000000  0.35500002  0.64499998       0.000
   0.50000000  0.36000001  0.63999999       0.000
   0.50000000  0.36500001  0.63499999       0.000
   0.50000000  0.37000000  0.63000000       0.000
   0.50000000  0.37500000  0.62500000       0.000
   0.50000000  0.38000000  0.62000000       0.000
   0.50000000  0.38499999  0.61500001       0.000
   0.50000000  0.38999999  0.61000001       0.000
   0.50000000  0.39499998  0.60500002       0.000
   0.50000000  0.39999998  0.60000002       0.000
   0.50000000  0.40500000  0.59500003       0.000
   0.50000000  0.41000000  0.59000003       0.000
   0.50000000  0.41499999  0.58500004       0.000
   0.50000000  0.42000002  0.57999998       0.000
   0.50000000  0.42500001  0.57499999       0.000
   0.50000000  0.43000001  0.56999999       0.000
   0.50000000  0.43500000  0.56500000       0.000
   0.50000000  0.44000000  0.56000000       0.000
   0.50000000  0.44499999  0.55500001       0.000
   0.50000000  0.44999999  0.55000001       0.000
   0.50000000  0.45499998  0.54500002       0.000
   0.50000000  0.46000001  0.53999996       0.000
   0.50000000  0.46499997  0.53500003       0.000
   0.50000000  0.47000000  0.52999997       0.000
   0.50000000  0.47500002  0.52499998       0.000
   0.50000000  0.47999999  0.51999998       0.000
   0.50000000  0.48500001  0.51499999       0.000
[...]
      5       7.6563      0.00000
      6      10.3605      0.00000
      7      10.6378      0.00000
      8      12.6193      0.00000
      9      14.6040      0.00000
     10      14.8269      0.00000
     11      17.3173      0.00000
     12      19.0861      0.00000
     13      19.7443      0.00000
     14      21.5836      0.00000
     15      23.7712      0.00000
     16      24.9785      0.00000

 k-point   579 :       0.4302    0.4302    0.6395
  band No.  band energies     occupation 
      1      -3.3397      2.00000
      2      -1.0293      2.00000
      3       2.2832      2.00000
      4       3.9279      2.00000
      5       7.6088      0.00000
      6      10.5112      0.00000
      7      10.7592      0.00000
      8      12.4784      0.00000
      9      14.5941      0.00000
     10      14.7669      0.00000
     11      17.4488      0.00000
     12      19.1889      0.00000
     13      19.8305      0.00000
     14      21.7742      0.00000
     15      23.6558      0.00000
     16      24.9448      0.00000

 k-point   580 :       0.4273    0.4273    0.6453
  band No.  band energies     occupation 
      1      -3.2978      2.00000
      2      -1.0242      2.00000
      3       2.1814      2.00000
      4       3.8899      2.00000
      5       7.5609      0.00000
      6      10.6622      0.00000
      7      10.8834      0.00000
      8      12.3398      0.00000
      9      14.5784      0.00000
     10      14.7086      0.00000
     11      17.5923      0.00000
     12      19.2912      0.00000
     13      19.9138      0.00000
     14      21.9650      0.00000
     15      23.5411      0.00000
     16      24.8526      0.00000

 k-point   581 :       0.4244    0.4244    0.6512
  band No.  band energies     occupation 
      1      -3.2545      2.00000
      2      -1.0212      2.00000
      3       2.0839      2.00000
      4       3.8523      2.00000
      5       7.5131      0.00000
      6      10.8119      0.00000
      7      11.0105      0.00000
      8      12.2054      0.00000
      9      14.5575      0.00000
     10      14.6519      0.00000
     11      17.7467      0.00000
     12      19.3926      0.00000
     13      19.9940      0.00000
     14      22.1548      0.00000
     15      23.4280      0.00000
     16      24.6477      0.00000

 k-point   582 :       0.4215    0.4215    0.6570
  band No.  band energies     occupation 
      1      -3.2096      2.00000
      2      -1.0205      2.00000
      3       1.9911      2.00000
      4       3.8153      2.00000
      5       7.4657      0.00000
      6      10.9569      0.00000
      7      11.1401      0.00000
      8      12.0782      0.00000
      9      14.5320      0.00000
     10      14.5970      0.00000
     11      17.9110      0.00000
     12      19.4931      0.00000
     13      20.0710      0.00000
     14      22.3419      0.00000
     15      23.3184      0.00000
     16      24.4497      0.00000

 k-point   583 :       0.4186    0.4186    0.6628
  band No.  band energies     occupation 
      1      -3.1634      2.00000
      2      -1.0227      2.00000
      3       1.9036      2.00000
      4       3.7790      2.00000
      5       7.4190      0.00000
      6      11.0911      0.00000
      7      11.2722      0.00000
      8      11.9646      0.00000
      9      14.5026      0.00000
     10      14.5440      0.00000
     11      18.0841      0.00000
     12      19.5926      0.00000
     13      20.1444      0.00000
     14      22.5215      0.00000
     15      23.2169      0.00000
     16      24.2397      0.00000

 k-point   584 :       0.4157    0.4157    0.6686
  band No.  band energies     occupation 
      1      -3.1159      2.00000
      2      -1.0281      2.00000
      3       1.8218      2.00000
      4       3.7433      2.00000
      5       7.3731      0.00000
      6      11.2000      0.00000
      7      11.4065      0.00000
      8      11.8789      0.00000
      9      14.4700      0.00000
     10      14.4929      0.00000
     11      18.2652      0.00000
     12      19.6908      0.00000
     13      20.2142      0.00000
     14      22.6789      0.00000
     15      23.1382      0.00000
     16      24.0301      0.00000

 k-point   585 :       0.4128    0.4128    0.6744
  band No.  band energies     occupation 
      1      -3.0671      2.00000
      2      -1.0370      2.00000
      3       1.7462      2.00000
      4       3.7085      2.00000
      5       7.3282      0.00000
      6      11.2558      0.00000
      7      11.5428      0.00000
      8      11.8490      0.00000
      9      14.4346      0.00000
     10      14.4438      0.00000
     11      18.4534      0.00000
     12      19.7875      0.00000
     13      20.2800      0.00000
     14      22.7645      0.00000
     15      23.1317      0.00000
     16      23.8181      0.00000

 k-point   586 :       0.4099    0.4099    0.6802
  band No.  band energies     occupation 
      1      -3.0172      2.00000
      2      -1.0496      2.00000
      3       1.6772      2.00000
      4       3.6745      2.00000
      5       7.2845      0.00000
      6      11.2363      0.00000
      7      11.6809      0.00000
      8      11.8969      0.00000
      9      14.3969      0.00000
     10      14.3970      0.00000
     11      18.6479      0.00000
     12      19.8827      0.00000
     13      20.3417      0.00000
     14      22.7364      0.00000
     15      23.2389      0.00000
     16      23.6044      0.00000

 k-point   587 :       0.4070    0.4070    0.6860
  band No.  band energies     occupation 
      1      -2.9663      2.00000
      2      -1.0664      2.00000
      3       1.6153      2.00000
      4       3.6414      2.00000
      5       7.2420      0.00000
      6      11.1597      0.00000
      7      11.8206      0.00000
      8      12.0045      0.00000
      9      14.3525      0.00000
     10      14.3576      0.00000
     11      18.8478      0.00000
     12      19.9761      0.00000
     13      20.3989      0.00000
     14      22.6527      0.00000
     15      23.3893      0.00000
     16      23.4008      0.00000

 k-point   588 :       0.4041    0.4041    0.6919
  band No.  band energies     occupation 
      1      -2.9145      2.00000
      2      -1.0874      2.00000
      3       1.5607      2.00000
      4       3.6093      2.00000
      5       7.2010      0.00000
      6      11.0550      0.00000
      7      11.9615      0.00000
      8      12.1427      0.00000
      9      14.3107      0.00000
     10      14.3167      0.00000
     11      19.0525      0.00000
     12      20.0675      0.00000
     13      20.4516      0.00000
     14      22.5527      0.00000
     15      23.1735      0.00000
     16      23.5753      0.00000

 k-point   589 :       0.4012    0.4012    0.6977
  band No.  band energies     occupation 
      1      -2.8620      2.00000
      2      -1.1126      2.00000
      3       1.5139      2.00000
      4       3.5782      2.00000
      5       7.1615      0.00000
      6      10.9380      0.00000
      7      12.1031      0.00000
      8      12.2956      0.00000
      9      14.2720      0.00000
     10      14.2748      0.00000
     11      19.2608      0.00000
     12      20.1566      0.00000
     13      20.4997      0.00000
     14      22.4472      0.00000
     15      22.9575      0.00000
     16      23.7387      0.00000

 k-point   590 :       0.3983    0.3983    0.7035
  band No.  band energies     occupation 
      1      -2.8091      2.00000
      2      -1.1421      2.00000
      3       1.4748      2.00000
      4       3.5482      2.00000
      5       7.1235      0.00000
      6      10.8157      0.00000
      7      12.2450      0.00000
      8      12.4564      0.00000
      9      14.2321      0.00000
     10      14.2367      0.00000
     11      19.4716      0.00000
     12      20.2431      0.00000
     13      20.5435      0.00000
     14      22.3397      0.00000
     15      22.7418      0.00000
     16      23.7657      0.00000

 k-point   591 :       0.3953    0.3953    0.7093
  band No.  band energies     occupation 
      1      -2.7561      2.00000
      2      -1.1754      2.00000
      3       1.4437      2.00000
      4       3.5194      2.00000
      5       7.0872      0.00000
      6      10.6911      0.00000
      7      12.3864      0.00000
      8      12.6217      0.00000
      9      14.1888      0.00000
     10      14.2056      0.00000
     11      19.6828      0.00000
     12      20.3267      0.00000
     13      20.5841      0.00000
     14      22.2313      0.00000
     15      22.5270      0.00000
     16      23.6532      0.00000

 k-point   592 :       0.3924    0.3924    0.7151
  band No.  band energies     occupation 
      1      -2.7034      2.00000
      2      -1.2122      2.00000
      3       1.4204      2.00000
      4       3.4916      2.00000
      5       7.0526      0.00000
      6      10.5659      0.00000
      7      12.5264      0.00000
      8      12.7899      0.00000
      9      14.1454      0.00000
     10      14.1795      0.00000
     11      19.8907      0.00000
     12      20.4069      0.00000
     13      20.6242      0.00000
     14      22.1224      0.00000
     15      22.3138      0.00000
     16      23.5212      0.00000

 k-point   593 :       0.3895    0.3895    0.7209
  band No.  band energies     occupation 
      1      -2.6515      2.00000
      2      -1.2516      2.00000
      3       1.4048      2.00000
      4       3.4651      2.00000
      5       7.0197      0.00000
      6      10.4410      0.00000
      7      12.6635      0.00000
      8      12.9598      0.00000
      9      14.1020      0.00000
     10      14.1597      0.00000
     11      20.0875      0.00000
     12      20.4827      0.00000
     13      20.6707      0.00000
     14      22.0133      0.00000
     15      22.1032      0.00000
     16      23.3878      0.00000

 k-point   594 :       0.3866    0.3866    0.7267
  band No.  band energies     occupation 
      1      -2.6012      2.00000
      2      -1.2928      2.00000
      3       1.3966      2.00000
      4       3.4398      2.00000
      5       6.9886      0.00000
      6      10.3169      0.00000
      7      12.7959      0.00000
      8      13.1306      0.00000
      9      14.0591      0.00000
     10      14.1481      0.00000
     11      20.2559      0.00000
     12      20.5528      0.00000
     13      20.7395      0.00000
     14      21.8967      0.00000
     15      21.9039      0.00000
     16      23.2573      0.00000

 k-point   595 :       0.3837    0.3837    0.7326
  band No.  band energies     occupation 
      1      -2.5535      2.00000
      2      -1.3345      2.00000
      3       1.3955      2.00000
      4       3.4158      2.00000
      5       6.9594      0.00000
      6      10.1940      0.00000
      7      12.9210      0.00000
      8      13.3011      0.00000
      9      14.0177      0.00000
     10      14.1471      0.00000
     11      20.3699      0.00000
     12      20.6145      0.00000
     13      20.8555      0.00000
     14      21.6970      0.00000
     15      21.7943      0.00000
     16      23.1318      0.00000

 k-point   596 :       0.3808    0.3808    0.7384
  band No.  band energies     occupation 
      1      -2.5096      2.00000
      2      -1.3749      2.00000
      3       1.4012      2.00000
      4       3.3930      2.00000
      5       6.9320      0.00000
      6      10.0725      0.00000
      7      13.0355      0.00000
      8      13.4690      0.00000
      9      13.9798      0.00000
     10      14.1600      0.00000
     11      20.4219      0.00000
     12      20.6623      0.00000
     13      21.0242      0.00000
     14      21.5099      0.00000
     15      21.6851      0.00000
     16      23.0131      0.00000

 k-point   597 :       0.3779    0.3779    0.7442
  band No.  band energies     occupation 
      1      -2.4713      2.00000
      2      -1.4120      2.00000
      3       1.4132      2.00000
      4       3.3716      2.00000
      5       6.9065      0.00000
      6       9.9527      0.00000
      7      13.1356      0.00000
      8      13.6273      0.00000
      9      13.9523      0.00000
     10      14.1905      0.00000
     11      20.4306      0.00000
     12      20.6841      0.00000
     13      21.2224      0.00000
     14      21.3474      0.00000
     15      21.5798      0.00000
     16      22.9027      0.00000


--------------------------------------------------------------------------------------------------------


 soft charge-density along one line, spin component           1
         0         1         2         3         4         5         6         7         8         9
 total charge-density along one line
 
 pseudopotential strength for first ion, spin component:           1
 18.401  25.671  -0.000   0.000  -0.000  -0.000   0.000  -0.000
 25.671  35.818  -0.000   0.000  -0.000  -0.000   0.000  -0.000
 -0.000  -0.000   4.177   0.000  -0.000   7.781   0.000  -0.000
  0.000   0.000   0.000   4.177   0.000   0.000   7.781   0.000
 -0.000  -0.000  -0.000   0.000   4.177  -0.000   0.000   7.781
 -0.000  -0.000   7.781   0.000  -0.000  14.507   0.000  -0.000
  0.000   0.000   0.000   7.781   0.000   0.000  14.507   0.000
 -0.000  -0.000  -0.000   0.000   7.781  -0.000   0.000  14.507
 total augmentation occupancy for first ion, spin component:           1
  2.000   0.000   0.000   0.000   0.000   0.000   0.000   0.000
  0.000   0.000   0.000   0.000   0.000   0.000   0.000   0.000
  0.000   0.000   0.667   0.000   0.000   0.000   0.000   0.000
  0.000   0.000   0.000   0.667   0.000   0.000   0.000   0.000
  0.000   0.000   0.000   0.000   0.667   0.000   0.000   0.000
  0.000   0.000   0.000   0.000   0.000   0.000   0.000   0.000
  0.000   0.000   0.000   0.000   0.000   0.000   0.000   0.000
  0.000   0.000   0.000   0.000   0.000   0.000   0.000   0.000


------------------------ aborting loop because EDIFF is reached ----------------------------------------


 


 total charge     
 
# of ion     s       p       d       tot
----------------------------------------
  1        0.750   0.942   0.000   1.692
  2        0.750   0.942   0.000   1.692
------------------------------------------------
tot        1.499   1.884   0.000   3.383
 
    CHARGE:  cpu time    0.0120: real time    0.0107
    FORLOC:  cpu time    0.0000: real time    0.0005
    FORNL :  cpu time    0.1960: real time    0.1979
    STRESS:  cpu time    2.7320: real time    2.7283
    FORCOR:  cpu time    0.0000: real time    0.0074
    FORHAR:  cpu time    0.0120: real time    0.0018
    OFIELD:  cpu time    0.0000: real time    0.0000

  FORCE on cell =-STRESS in cart. coord.  units (eV):
  Direction    XX          YY          ZZ          XY          YZ          ZX
  --------------------------------------------------------------------------------------
  Alpha Z     3.36229     3.36229     3.36229
  Ewald     -76.17385   -76.17385   -76.17385     0.00000     0.00000    -0.00000
  Hartree     4.89108     4.89108     4.89108     0.00000    -0.00000    -0.00000
  E(xc)     -25.55844   -25.55844   -25.55844     0.00000    -0.00000    -0.00000
  Local     -29.07265   -29.07265   -29.07265     0.00001    -0.00001    -0.00001
  n-local    74.01393    79.73116    78.91474    -1.09020    -2.44510    -0.71045
  augment   -11.48829   -11.48829   -11.48829    -0.00001     0.00001     0.00001
  Kinetic    54.87764    56.36176    58.46051    -0.89961    -3.53462    -0.91368
  Fock        0.00000     0.00000     0.00000     0.00000     0.00000     0.00000
  -------------------------------------------------------------------------------------
  Total       0.08006     0.08006     0.08006     0.00000     0.00000     0.00000
  in kB       3.20311     3.20311     3.20311     0.00000     0.00000     0.00000
  external pressure =        3.20 kB  Pullay stress =        0.00 kB


 VOLUME and BASIS-vectors are now :
 -----------------------------------------------------------------------------
  energy-cutoff  :      500.00
  volume of cell :       40.05
      direct lattice vectors                 reciprocal lattice vectors
     2.715500000  2.715500000  0.000000000     0.184128153  0.184128153  0.184128153
     2.715500000  0.000000000 -2.715500000     0.184128153 -0.184128153 -0.184128153
     0.000000000  2.715500000 -2.715500000    -0.184128153  0.184128153 -0.184128153

  length of vectors
     3.840296929  3.840296929  3.840296929     0.318919316  0.318919316  0.318919316


 FORCES acting on ions
    electron-ion (+dipol)            ewald-force                    non-local-force                 convergence-correction
 -----------------------------------------------------------------------------------------------
   -.162E-07 -.128E-07 0.128E-07   -.234E-14 -.182E-14 0.397E-14   -.729E-16 -.118E-15 0.833E-16   0.105E-08 0.105E-08 -.105E-08
   0.162E-07 0.128E-07 -.128E-07   0.175E-14 0.186E-14 -.406E-14   0.590E-16 0.104E-15 -.763E-16   -.105E-08 -.105E-08 0.105E-08
 -----------------------------------------------------------------------------------------------
   -.353E-15 0.232E-14 -.743E-13   -.584E-15 0.335E-16 -.952E-16   -.139E-16 -.139E-16 0.694E-17   -.369E-16 0.462E-14 -.466E-14
 
 
 POSITION                                       TOTAL-FORCE (eV/Angst)
 -----------------------------------------------------------------------------------
      0.00000      0.00000      0.00000         0.000000     -0.000000      0.000000
      1.35775      1.35775     -1.35775        -0.000000      0.000000     -0.000000
 -----------------------------------------------------------------------------------
    total drift:                               -0.000000      0.000000     -0.000000


--------------------------------------------------------------------------------------------------------



  FREE ENERGIE OF THE ION-ELECTRON SYSTEM (eV)
  ---------------------------------------------------
  free  energy   TOTEN  =       -11.46751466 eV

  energy  without entropy=      -11.46751466  energy(sigma->0) =      -11.46751466
 


--------------------------------------------------------------------------------------------------------


    POTLOK:  cpu time    0.0000: real time    0.0086


--------------------------------------------------------------------------------------------------------




--------------------------------------------------------------------------------------------------------


 writing wavefunctions
     LOOP+:  cpu time  395.9040: real time  610.9297
    4ORBIT:  cpu time    0.0000: real time    0.0000
 


 total charge     
 
# of ion     s       p       d       tot
----------------------------------------
  1        0.750   0.942   0.000   1.692
  2        0.750   0.942   0.000   1.692
------------------------------------------------
tot        1.499   1.884   0.000   3.383
 

 total amount of memory used by VASP on root node    81885. kBytes
========================================================================

   base      :      30000. kBytes
   nonl-proj :      39769. kBytes
   fftplans  :        517. kBytes
   grid      :       1507. kBytes
   one-center:          6. kBytes
   wavefun   :      10086. kBytes
 
  
  
 General timing and accounting informations for this job:
 ========================================================
  
                  Total CPU time used (sec):      542.632
                            User time (sec):      528.896
                          System time (sec):       13.736
                         Elapsed time (sec):      859.938
  
                   Maximum memory used (kb):      135108.
                   Average memory used (kb):           0.
  
                          Minor page faults:        24366
                          Major page faults:          190
                 Voluntary context switches:          347
