   8   8   1   0
  0.2002677E+02  0.5435300E-09  0.5435300E-09  0.6646963E-09  0.5000000E-15
  1.000000000000000E-004
  CAR 
 Name                                    
     14.99875633    -68.08244632  301      4.71745750      1.00000000
    -68.082  0.0000E+00  0.0000E+00
    -67.806  0.0000E+00  0.0000E+00
    -67.529  0.0000E+00  0.0000E+00
    -67.252  0.0000E+00  0.0000E+00
    -66.975  0.0000E+00  0.0000E+00
    -66.698  0.0000E+00  0.0000E+00
    -66.421  0.0000E+00  0.0000E+00
    -66.144  0.0000E+00  0.0000E+00
    -65.867  0.0000E+00  0.0000E+00
    -65.590  0.0000E+00  0.0000E+00
    -65.313  0.0000E+00  0.0000E+00
    -65.036  0.0000E+00  0.0000E+00
    -64.759  0.0000E+00  0.0000E+00
    -64.482  0.0000E+00  0.0000E+00
    -64.205  0.3603E+02  0.1198E+02
    -63.928  0.0000E+00  0.1200E+02
    -63.651  0.0000E+00  0.1200E+02
    -63.375  0.0000E+00  0.1200E+02
    -63.098  0.0000E+00  0.1200E+02
    -62.821  0.0000E+00  0.1200E+02
    -62.544  0.0000E+00  0.1200E+02
    -62.267  0.0000E+00  0.1200E+02
    -61.990  0.0000E+00  0.1200E+02
    -61.713  0.0000E+00  0.1200E+02
    -61.436  0.0000E+00  0.1200E+02
    -61.159  0.0000E+00  0.1200E+02
    -60.882  0.0000E+00  0.1200E+02
    -60.605  0.0000E+00  0.1200E+02
    -60.328  0.0000E+00  0.1200E+02
    -60.051  0.0000E+00  0.1200E+02
    -59.774  0.0000E+00  0.1200E+02
    -59.497  0.0000E+00  0.1200E+02
    -59.220  0.0000E+00  0.1200E+02
    -58.944  0.0000E+00  0.1200E+02
    -58.667  0.0000E+00  0.1200E+02
    -58.390  0.0000E+00  0.1200E+02
    -58.113  0.0000E+00  0.1200E+02
    -57.836  0.0000E+00  0.1200E+02
    -57.559  0.0000E+00  0.1200E+02
    -57.282  0.0000E+00  0.1200E+02
    -57.005  0.0000E+00  0.1200E+02
    -56.728  0.0000E+00  0.1200E+02
    -56.451  0.0000E+00  0.1200E+02
    -56.174  0.0000E+00  0.1200E+02
    -55.897  0.0000E+00  0.1200E+02
    -55.620  0.0000E+00  0.1200E+02
    -55.343  0.0000E+00  0.1200E+02
    -55.066  0.0000E+00  0.1200E+02
    -54.789  0.0000E+00  0.1200E+02
    -54.513  0.0000E+00  0.1200E+02
    -54.236  0.0000E+00  0.1200E+02
    -53.959  0.0000E+00  0.1200E+02
    -53.682  0.0000E+00  0.1200E+02
    -53.405  0.0000E+00  0.1200E+02
    -53.128  0.0000E+00  0.1200E+02
    -52.851  0.0000E+00  0.1200E+02
    -52.574  0.0000E+00  0.1200E+02
    -52.297  0.0000E+00  0.1200E+02
    -52.020  0.0000E+00  0.1200E+02
    -51.743  0.0000E+00  0.1200E+02
    -51.466  0.0000E+00  0.1200E+02
    -51.189  0.0000E+00  0.1200E+02
    -50.912  0.0000E+00  0.1200E+02
    -50.635  0.0000E+00  0.1200E+02
    -50.358  0.0000E+00  0.1200E+02
    -50.082  0.0000E+00  0.1200E+02
    -49.805  0.0000E+00  0.1200E+02
    -49.528  0.0000E+00  0.1200E+02
    -49.251  0.0000E+00  0.1200E+02
    -48.974  0.0000E+00  0.1200E+02
    -48.697  0.0000E+00  0.1200E+02
    -48.420  0.0000E+00  0.1200E+02
    -48.143  0.0000E+00  0.1200E+02
    -47.866  0.0000E+00  0.1200E+02
    -47.589  0.0000E+00  0.1200E+02
    -47.312  0.0000E+00  0.1200E+02
    -47.035  0.0000E+00  0.1200E+02
    -46.758  0.0000E+00  0.1200E+02
    -46.481  0.0000E+00  0.1200E+02
    -46.204  0.0000E+00  0.1200E+02
    -45.927  0.0000E+00  0.1200E+02
    -45.651  0.0000E+00  0.1200E+02
    -45.374  0.0000E+00  0.1200E+02
    -45.097  0.0000E+00  0.1200E+02
    -44.820  0.0000E+00  0.1200E+02
    -44.543  0.0000E+00  0.1200E+02
    -44.266  0.0000E+00  0.1200E+02
    -43.989  0.0000E+00  0.1200E+02
    -43.712  0.0000E+00  0.1200E+02
    -43.435  0.0000E+00  0.1200E+02
    -43.158  0.0000E+00  0.1200E+02
    -42.881  0.0000E+00  0.1200E+02
    -42.604  0.0000E+00  0.1200E+02
    -42.327  0.0000E+00  0.1200E+02
    -42.050  0.0000E+00  0.1200E+02
    -41.773  0.0000E+00  0.1200E+02
    -41.496  0.0000E+00  0.1200E+02
    -41.220  0.0000E+00  0.1200E+02
    -40.943  0.0000E+00  0.1200E+02
    -40.666  0.0000E+00  0.1200E+02
    -40.389  0.0000E+00  0.1200E+02
    -40.112  0.0000E+00  0.1200E+02
    -39.835  0.0000E+00  0.1200E+02
    -39.558  0.0000E+00  0.1200E+02
    -39.281  0.0000E+00  0.1200E+02
    -39.004  0.0000E+00  0.1200E+02
    -38.727  0.0000E+00  0.1200E+02
    -38.450  0.0000E+00  0.1200E+02
    -38.173  0.0000E+00  0.1200E+02
    -37.896  0.0000E+00  0.1200E+02
    -37.619  0.0000E+00  0.1200E+02
    -37.342  0.0000E+00  0.1200E+02
    -37.065  0.0000E+00  0.1200E+02
    -36.789  0.0000E+00  0.1200E+02
    -36.512  0.0000E+00  0.1200E+02
    -36.235  0.0000E+00  0.1200E+02
    -35.958  0.0000E+00  0.1200E+02
    -35.681  0.0000E+00  0.1200E+02
    -35.404  0.0000E+00  0.1200E+02
    -35.127  0.0000E+00  0.1200E+02
    -34.850  0.0000E+00  0.1200E+02
    -34.573  0.0000E+00  0.1200E+02
    -34.296  0.0000E+00  0.1200E+02
    -34.019  0.0000E+00  0.1200E+02
    -33.742  0.0000E+00  0.1200E+02
    -33.465  0.0000E+00  0.1200E+02
    -33.188  0.0000E+00  0.1200E+02
    -32.911  0.0000E+00  0.1200E+02
    -32.634  0.0000E+00  0.1200E+02
    -32.358  0.0000E+00  0.1200E+02
    -32.081  0.0000E+00  0.1200E+02
    -31.804  0.0000E+00  0.1200E+02
    -31.527  0.0000E+00  0.1200E+02
    -31.250  0.0000E+00  0.1200E+02
    -30.973  0.0000E+00  0.1200E+02
    -30.696  0.0000E+00  0.1200E+02
    -30.419  0.0000E+00  0.1200E+02
    -30.142  0.0000E+00  0.1200E+02
    -29.865  0.0000E+00  0.1200E+02
    -29.588  0.0000E+00  0.1200E+02
    -29.311  0.0000E+00  0.1200E+02
    -29.034  0.0000E+00  0.1200E+02
    -28.757  0.0000E+00  0.1200E+02
    -28.480  0.0000E+00  0.1200E+02
    -28.203  0.0000E+00  0.1200E+02
    -27.927  0.0000E+00  0.1200E+02
    -27.650  0.0000E+00  0.1200E+02
    -27.373  0.0000E+00  0.1200E+02
    -27.096  0.0000E+00  0.1200E+02
    -26.819  0.0000E+00  0.1200E+02
    -26.542  0.0000E+00  0.1200E+02
    -26.265  0.0000E+00  0.1200E+02
    -25.988  0.0000E+00  0.1200E+02
    -25.711  0.0000E+00  0.1200E+02
    -25.434  0.0000E+00  0.1200E+02
    -25.157  0.0000E+00  0.1200E+02
    -24.880  0.0000E+00  0.1200E+02
    -24.603  0.0000E+00  0.1200E+02
    -24.326  0.0000E+00  0.1200E+02
    -24.049  0.0000E+00  0.1200E+02
    -23.772  0.0000E+00  0.1200E+02
    -23.496  0.0000E+00  0.1200E+02
    -23.219  0.0000E+00  0.1200E+02
    -22.942  0.0000E+00  0.1200E+02
    -22.665  0.0000E+00  0.1200E+02
    -22.388  0.0000E+00  0.1200E+02
    -22.111  0.0000E+00  0.1200E+02
    -21.834  0.0000E+00  0.1200E+02
    -21.557  0.0000E+00  0.1200E+02
    -21.280  0.0000E+00  0.1200E+02
    -21.003  0.0000E+00  0.1200E+02
    -20.726  0.0000E+00  0.1200E+02
    -20.449  0.0000E+00  0.1200E+02
    -20.172  0.0000E+00  0.1200E+02
    -19.895  0.0000E+00  0.1200E+02
    -19.618  0.0000E+00  0.1200E+02
    -19.341  0.0000E+00  0.1200E+02
    -19.065  0.0000E+00  0.1200E+02
    -18.788  0.0000E+00  0.1200E+02
    -18.511  0.0000E+00  0.1200E+02
    -18.234  0.0000E+00  0.1200E+02
    -17.957  0.0000E+00  0.1200E+02
    -17.680  0.0000E+00  0.1200E+02
    -17.403  0.1442E+02  0.2199E+02
    -17.126  0.0000E+00  0.2200E+02
    -16.849  0.0000E+00  0.2200E+02
    -16.572  0.0000E+00  0.2200E+02
    -16.295  0.0000E+00  0.2200E+02
    -16.018  0.0000E+00  0.2200E+02
    -15.741  0.0000E+00  0.2200E+02
    -15.464  0.0000E+00  0.2200E+02
    -15.187  0.0000E+00  0.2200E+02
    -14.910  0.0000E+00  0.2200E+02
    -14.634  0.0000E+00  0.2200E+02
    -14.357  0.0000E+00  0.2200E+02
    -14.080  0.0000E+00  0.2200E+02
    -13.803  0.0000E+00  0.2200E+02
    -13.526  0.0000E+00  0.2200E+02
    -13.249  0.0000E+00  0.2200E+02
    -12.972  0.0000E+00  0.2200E+02
    -12.695  0.0000E+00  0.2200E+02
    -12.418  0.0000E+00  0.2200E+02
    -12.141  0.0000E+00  0.2200E+02
    -11.864  0.0000E+00  0.2200E+02
    -11.587  0.0000E+00  0.2200E+02
    -11.310  0.0000E+00  0.2200E+02
    -11.033  0.0000E+00  0.2200E+02
    -10.756  0.0000E+00  0.2200E+02
    -10.479  0.0000E+00  0.2200E+02
    -10.203  0.0000E+00  0.2200E+02
     -9.926  0.3483E-08  0.2200E+02
     -9.649  0.3009E+00  0.2224E+02
     -9.372  0.1023E+01  0.2294E+02
     -9.095  0.3009E+00  0.2400E+02
     -8.818  0.9489E+00  0.2430E+02
     -8.541  0.3731E+01  0.2694E+02
     -8.264  0.1354E+01  0.3000E+02
     -7.987  0.0000E+00  0.3000E+02
     -7.710  0.0000E+00  0.3000E+02
     -7.433  0.0000E+00  0.3000E+02
     -7.156  0.0000E+00  0.3000E+02
     -6.879  0.0000E+00  0.3000E+02
     -6.602  0.0000E+00  0.3000E+02
     -6.325  0.0000E+00  0.3000E+02
     -6.048  0.0000E+00  0.3000E+02
     -5.772  0.0000E+00  0.3000E+02
     -5.495  0.0000E+00  0.3000E+02
     -5.218  0.0000E+00  0.3000E+02
     -4.941  0.0000E+00  0.3000E+02
     -4.664  0.0000E+00  0.3000E+02
     -4.387  0.0000E+00  0.3000E+02
     -4.110  0.0000E+00  0.3000E+02
     -3.833  0.0000E+00  0.3000E+02
     -3.556  0.2571E-07  0.3000E+02
     -3.279  0.2739E+01  0.3190E+02
     -3.002  0.0000E+00  0.3200E+02
     -2.725  0.0000E+00  0.3200E+02
     -2.448  0.1184E+02  0.3581E+02
     -2.171  0.1196E+01  0.4165E+02
     -1.894  0.0000E+00  0.4200E+02
     -1.617  0.9025E-04  0.4203E+02
     -1.341  0.4893E+00  0.4252E+02
     -1.064  0.2439E+01  0.4424E+02
     -0.787  0.1168E+01  0.4493E+02
     -0.510  0.9846E+00  0.4613E+02
     -0.233  0.2239E+01  0.4752E+02
      0.044  0.2239E+01  0.4876E+02
      0.321  0.2153E+01  0.5039E+02
      0.598  0.2121E+01  0.5262E+02
      0.875  0.4605E+01  0.5541E+02
      1.152  0.7294E+00  0.5804E+02
      1.429  0.5430E+01  0.6132E+02
      1.706  0.1108E+01  0.6397E+02
      1.983  0.0000E+00  0.6400E+02
      2.260  0.0000E+00  0.6400E+02
      2.537  0.1061E+00  0.6404E+02
      2.814  0.6830E+01  0.6822E+02
      3.090  0.1652E+01  0.7255E+02
      3.367  0.3002E+01  0.7573E+02
      3.644  0.2400E+01  0.7833E+02
      3.921  0.2238E+01  0.8063E+02
      4.198  0.1711E+01  0.8263E+02
      4.475  0.1085E+00  0.8379E+02
      4.752  0.0000E+00  0.8400E+02
      5.029  0.0000E+00  0.8401E+02
      5.306  0.0000E+00  0.8401E+02
      5.583  0.8833E-01  0.8407E+02
      5.860  0.4075E+00  0.8474E+02
      6.137  0.9551E+00  0.8547E+02
      6.414  0.2006E+00  0.8600E+02
      6.691  0.3898E-16  0.8604E+02
      6.968  0.7947E-01  0.8617E+02
      7.245  0.9574E+00  0.8696E+02
      7.521  0.9539E+00  0.8808E+02
      7.798  0.1090E+01  0.8948E+02
      8.075  0.9778E+00  0.9108E+02
      8.352  0.8433E+00  0.9203E+02
      8.629  0.1281E+01  0.9320E+02
      8.906  0.1036E+01  0.9402E+02
      9.183  0.1445E+01  0.9489E+02
      9.460  0.8352E+00  0.9627E+02
      9.737  0.1530E+01  0.9766E+02
     10.014  0.9202E+00  0.9916E+02
     10.291  0.1878E+01  0.1008E+03
     10.568  0.3082E+01  0.1029E+03
     10.845  0.8304E+00  0.1039E+03
     11.122  0.0000E+00  0.1040E+03
     11.399  0.0000E+00  0.1040E+03
     11.676  0.0000E+00  0.1040E+03
     11.952  0.0000E+00  0.1040E+03
     12.229  0.0000E+00  0.1040E+03
     12.506  0.0000E+00  0.1040E+03
     12.783  0.0000E+00  0.1040E+03
     13.060  0.0000E+00  0.1040E+03
     13.337  0.0000E+00  0.1040E+03
     13.614  0.0000E+00  0.1040E+03
     13.891  0.0000E+00  0.1040E+03
     14.168  0.0000E+00  0.1040E+03
     14.445  0.0000E+00  0.1040E+03
     14.722  0.0000E+00  0.1040E+03
     14.999  0.0000E+00  0.1040E+03
     14.99875633    -68.08244632  301      4.71745750      1.00000000
    -68.082  0.0000E+00  0.0000E+00  0.0000E+00
    -67.806  0.0000E+00  0.0000E+00  0.0000E+00
    -67.529  0.0000E+00  0.0000E+00  0.0000E+00
    -67.252  0.0000E+00  0.0000E+00  0.0000E+00
    -66.975  0.0000E+00  0.0000E+00  0.0000E+00
    -66.698  0.0000E+00  0.0000E+00  0.0000E+00
    -66.421  0.0000E+00  0.0000E+00  0.0000E+00
    -66.144  0.0000E+00  0.0000E+00  0.0000E+00
    -65.867  0.0000E+00  0.0000E+00  0.0000E+00
    -65.590  0.0000E+00  0.0000E+00  0.0000E+00
    -65.313  0.0000E+00  0.0000E+00  0.0000E+00
    -65.036  0.0000E+00  0.0000E+00  0.0000E+00
    -64.759  0.0000E+00  0.0000E+00  0.0000E+00
    -64.482  0.0000E+00  0.0000E+00  0.0000E+00
    -64.205  0.2649E-08  0.2153E+02  0.6562E-05
    -63.928  0.0000E+00  0.0000E+00  0.0000E+00
    -63.651  0.0000E+00  0.0000E+00  0.0000E+00
    -63.375  0.0000E+00  0.0000E+00  0.0000E+00
    -63.098  0.0000E+00  0.0000E+00  0.0000E+00
    -62.821  0.0000E+00  0.0000E+00  0.0000E+00
    -62.544  0.0000E+00  0.0000E+00  0.0000E+00
    -62.267  0.0000E+00  0.0000E+00  0.0000E+00
    -61.990  0.0000E+00  0.0000E+00  0.0000E+00
    -61.713  0.0000E+00  0.0000E+00  0.0000E+00
    -61.436  0.0000E+00  0.0000E+00  0.0000E+00
    -61.159  0.0000E+00  0.0000E+00  0.0000E+00
    -60.882  0.0000E+00  0.0000E+00  0.0000E+00
    -60.605  0.0000E+00  0.0000E+00  0.0000E+00
    -60.328  0.0000E+00  0.0000E+00  0.0000E+00
    -60.051  0.0000E+00  0.0000E+00  0.0000E+00
    -59.774  0.0000E+00  0.0000E+00  0.0000E+00
    -59.497  0.0000E+00  0.0000E+00  0.0000E+00
    -59.220  0.0000E+00  0.0000E+00  0.0000E+00
    -58.944  0.0000E+00  0.0000E+00  0.0000E+00
    -58.667  0.0000E+00  0.0000E+00  0.0000E+00
    -58.390  0.0000E+00  0.0000E+00  0.0000E+00
    -58.113  0.0000E+00  0.0000E+00  0.0000E+00
    -57.836  0.0000E+00  0.0000E+00  0.0000E+00
    -57.559  0.0000E+00  0.0000E+00  0.0000E+00
    -57.282  0.0000E+00  0.0000E+00  0.0000E+00
    -57.005  0.0000E+00  0.0000E+00  0.0000E+00
    -56.728  0.0000E+00  0.0000E+00  0.0000E+00
    -56.451  0.0000E+00  0.0000E+00  0.0000E+00
    -56.174  0.0000E+00  0.0000E+00  0.0000E+00
    -55.897  0.0000E+00  0.0000E+00  0.0000E+00
    -55.620  0.0000E+00  0.0000E+00  0.0000E+00
    -55.343  0.0000E+00  0.0000E+00  0.0000E+00
    -55.066  0.0000E+00  0.0000E+00  0.0000E+00
    -54.789  0.0000E+00  0.0000E+00  0.0000E+00
    -54.513  0.0000E+00  0.0000E+00  0.0000E+00
    -54.236  0.0000E+00  0.0000E+00  0.0000E+00
    -53.959  0.0000E+00  0.0000E+00  0.0000E+00
    -53.682  0.0000E+00  0.0000E+00  0.0000E+00
    -53.405  0.0000E+00  0.0000E+00  0.0000E+00
    -53.128  0.0000E+00  0.0000E+00  0.0000E+00
    -52.851  0.0000E+00  0.0000E+00  0.0000E+00
    -52.574  0.0000E+00  0.0000E+00  0.0000E+00
    -52.297  0.0000E+00  0.0000E+00  0.0000E+00
    -52.020  0.0000E+00  0.0000E+00  0.0000E+00
    -51.743  0.0000E+00  0.0000E+00  0.0000E+00
    -51.466  0.0000E+00  0.0000E+00  0.0000E+00
    -51.189  0.0000E+00  0.0000E+00  0.0000E+00
    -50.912  0.0000E+00  0.0000E+00  0.0000E+00
    -50.635  0.0000E+00  0.0000E+00  0.0000E+00
    -50.358  0.0000E+00  0.0000E+00  0.0000E+00
    -50.082  0.0000E+00  0.0000E+00  0.0000E+00
    -49.805  0.0000E+00  0.0000E+00  0.0000E+00
    -49.528  0.0000E+00  0.0000E+00  0.0000E+00
    -49.251  0.0000E+00  0.0000E+00  0.0000E+00
    -48.974  0.0000E+00  0.0000E+00  0.0000E+00
    -48.697  0.0000E+00  0.0000E+00  0.0000E+00
    -48.420  0.0000E+00  0.0000E+00  0.0000E+00
    -48.143  0.0000E+00  0.0000E+00  0.0000E+00
    -47.866  0.0000E+00  0.0000E+00  0.0000E+00
    -47.589  0.0000E+00  0.0000E+00  0.0000E+00
    -47.312  0.0000E+00  0.0000E+00  0.0000E+00
    -47.035  0.0000E+00  0.0000E+00  0.0000E+00
    -46.758  0.0000E+00  0.0000E+00  0.0000E+00
    -46.481  0.0000E+00  0.0000E+00  0.0000E+00
    -46.204  0.0000E+00  0.0000E+00  0.0000E+00
    -45.927  0.0000E+00  0.0000E+00  0.0000E+00
    -45.651  0.0000E+00  0.0000E+00  0.0000E+00
    -45.374  0.0000E+00  0.0000E+00  0.0000E+00
    -45.097  0.0000E+00  0.0000E+00  0.0000E+00
    -44.820  0.0000E+00  0.0000E+00  0.0000E+00
    -44.543  0.0000E+00  0.0000E+00  0.0000E+00
    -44.266  0.0000E+00  0.0000E+00  0.0000E+00
    -43.989  0.0000E+00  0.0000E+00  0.0000E+00
    -43.712  0.0000E+00  0.0000E+00  0.0000E+00
    -43.435  0.0000E+00  0.0000E+00  0.0000E+00
    -43.158  0.0000E+00  0.0000E+00  0.0000E+00
    -42.881  0.0000E+00  0.0000E+00  0.0000E+00
    -42.604  0.0000E+00  0.0000E+00  0.0000E+00
    -42.327  0.0000E+00  0.0000E+00  0.0000E+00
    -42.050  0.0000E+00  0.0000E+00  0.0000E+00
    -41.773  0.0000E+00  0.0000E+00  0.0000E+00
    -41.496  0.0000E+00  0.0000E+00  0.0000E+00
    -41.220  0.0000E+00  0.0000E+00  0.0000E+00
    -40.943  0.0000E+00  0.0000E+00  0.0000E+00
    -40.666  0.0000E+00  0.0000E+00  0.0000E+00
    -40.389  0.0000E+00  0.0000E+00  0.0000E+00
    -40.112  0.0000E+00  0.0000E+00  0.0000E+00
    -39.835  0.0000E+00  0.0000E+00  0.0000E+00
    -39.558  0.0000E+00  0.0000E+00  0.0000E+00
    -39.281  0.0000E+00  0.0000E+00  0.0000E+00
    -39.004  0.0000E+00  0.0000E+00  0.0000E+00
    -38.727  0.0000E+00  0.0000E+00  0.0000E+00
    -38.450  0.0000E+00  0.0000E+00  0.0000E+00
    -38.173  0.0000E+00  0.0000E+00  0.0000E+00
    -37.896  0.0000E+00  0.0000E+00  0.0000E+00
    -37.619  0.0000E+00  0.0000E+00  0.0000E+00
    -37.342  0.0000E+00  0.0000E+00  0.0000E+00
    -37.065  0.0000E+00  0.0000E+00  0.0000E+00
    -36.789  0.0000E+00  0.0000E+00  0.0000E+00
    -36.512  0.0000E+00  0.0000E+00  0.0000E+00
    -36.235  0.0000E+00  0.0000E+00  0.0000E+00
    -35.958  0.0000E+00  0.0000E+00  0.0000E+00
    -35.681  0.0000E+00  0.0000E+00  0.0000E+00
    -35.404  0.0000E+00  0.0000E+00  0.0000E+00
    -35.127  0.0000E+00  0.0000E+00  0.0000E+00
    -34.850  0.0000E+00  0.0000E+00  0.0000E+00
    -34.573  0.0000E+00  0.0000E+00  0.0000E+00
    -34.296  0.0000E+00  0.0000E+00  0.0000E+00
    -34.019  0.0000E+00  0.0000E+00  0.0000E+00
    -33.742  0.0000E+00  0.0000E+00  0.0000E+00
    -33.465  0.0000E+00  0.0000E+00  0.0000E+00
    -33.188  0.0000E+00  0.0000E+00  0.0000E+00
    -32.911  0.0000E+00  0.0000E+00  0.0000E+00
    -32.634  0.0000E+00  0.0000E+00  0.0000E+00
    -32.358  0.0000E+00  0.0000E+00  0.0000E+00
    -32.081  0.0000E+00  0.0000E+00  0.0000E+00
    -31.804  0.0000E+00  0.0000E+00  0.0000E+00
    -31.527  0.0000E+00  0.0000E+00  0.0000E+00
    -31.250  0.0000E+00  0.0000E+00  0.0000E+00
    -30.973  0.0000E+00  0.0000E+00  0.0000E+00
    -30.696  0.0000E+00  0.0000E+00  0.0000E+00
    -30.419  0.0000E+00  0.0000E+00  0.0000E+00
    -30.142  0.0000E+00  0.0000E+00  0.0000E+00
    -29.865  0.0000E+00  0.0000E+00  0.0000E+00
    -29.588  0.0000E+00  0.0000E+00  0.0000E+00
    -29.311  0.0000E+00  0.0000E+00  0.0000E+00
    -29.034  0.0000E+00  0.0000E+00  0.0000E+00
    -28.757  0.0000E+00  0.0000E+00  0.0000E+00
    -28.480  0.0000E+00  0.0000E+00  0.0000E+00
    -28.203  0.0000E+00  0.0000E+00  0.0000E+00
    -27.927  0.0000E+00  0.0000E+00  0.0000E+00
    -27.650  0.0000E+00  0.0000E+00  0.0000E+00
    -27.373  0.0000E+00  0.0000E+00  0.0000E+00
    -27.096  0.0000E+00  0.0000E+00  0.0000E+00
    -26.819  0.0000E+00  0.0000E+00  0.0000E+00
    -26.542  0.0000E+00  0.0000E+00  0.0000E+00
    -26.265  0.0000E+00  0.0000E+00  0.0000E+00
    -25.988  0.0000E+00  0.0000E+00  0.0000E+00
    -25.711  0.0000E+00  0.0000E+00  0.0000E+00
    -25.434  0.0000E+00  0.0000E+00  0.0000E+00
    -25.157  0.0000E+00  0.0000E+00  0.0000E+00
    -24.880  0.0000E+00  0.0000E+00  0.0000E+00
    -24.603  0.0000E+00  0.0000E+00  0.0000E+00
    -24.326  0.0000E+00  0.0000E+00  0.0000E+00
    -24.049  0.0000E+00  0.0000E+00  0.0000E+00
    -23.772  0.0000E+00  0.0000E+00  0.0000E+00
    -23.496  0.0000E+00  0.0000E+00  0.0000E+00
    -23.219  0.0000E+00  0.0000E+00  0.0000E+00
    -22.942  0.0000E+00  0.0000E+00  0.0000E+00
    -22.665  0.0000E+00  0.0000E+00  0.0000E+00
    -22.388  0.0000E+00  0.0000E+00  0.0000E+00
    -22.111  0.0000E+00  0.0000E+00  0.0000E+00
    -21.834  0.0000E+00  0.0000E+00  0.0000E+00
    -21.557  0.0000E+00  0.0000E+00  0.0000E+00
    -21.280  0.0000E+00  0.0000E+00  0.0000E+00
    -21.003  0.0000E+00  0.0000E+00  0.0000E+00
    -20.726  0.0000E+00  0.0000E+00  0.0000E+00
    -20.449  0.0000E+00  0.0000E+00  0.0000E+00
    -20.172  0.0000E+00  0.0000E+00  0.0000E+00
    -19.895  0.0000E+00  0.0000E+00  0.0000E+00
    -19.618  0.0000E+00  0.0000E+00  0.0000E+00
    -19.341  0.0000E+00  0.0000E+00  0.0000E+00
    -19.065  0.0000E+00  0.0000E+00  0.0000E+00
    -18.788  0.0000E+00  0.0000E+00  0.0000E+00
    -18.511  0.0000E+00  0.0000E+00  0.0000E+00
    -18.234  0.0000E+00  0.0000E+00  0.0000E+00
    -17.957  0.0000E+00  0.0000E+00  0.0000E+00
    -17.680  0.0000E+00  0.0000E+00  0.0000E+00
    -17.403  0.4077E-05  0.3855E-05  0.4035E-05
    -17.126  0.0000E+00  0.0000E+00  0.0000E+00
    -16.849  0.0000E+00  0.0000E+00  0.0000E+00
    -16.572  0.0000E+00  0.0000E+00  0.0000E+00
    -16.295  0.0000E+00  0.0000E+00  0.0000E+00
    -16.018  0.0000E+00  0.0000E+00  0.0000E+00
    -15.741  0.0000E+00  0.0000E+00  0.0000E+00
    -15.464  0.0000E+00  0.0000E+00  0.0000E+00
    -15.187  0.0000E+00  0.0000E+00  0.0000E+00
    -14.910  0.0000E+00  0.0000E+00  0.0000E+00
    -14.634  0.0000E+00  0.0000E+00  0.0000E+00
    -14.357  0.0000E+00  0.0000E+00  0.0000E+00
    -14.080  0.0000E+00  0.0000E+00  0.0000E+00
    -13.803  0.0000E+00  0.0000E+00  0.0000E+00
    -13.526  0.0000E+00  0.0000E+00  0.0000E+00
    -13.249  0.0000E+00  0.0000E+00  0.0000E+00
    -12.972  0.0000E+00  0.0000E+00  0.0000E+00
    -12.695  0.0000E+00  0.0000E+00  0.0000E+00
    -12.418  0.0000E+00  0.0000E+00  0.0000E+00
    -12.141  0.0000E+00  0.0000E+00  0.0000E+00
    -11.864  0.0000E+00  0.0000E+00  0.0000E+00
    -11.587  0.0000E+00  0.0000E+00  0.0000E+00
    -11.310  0.0000E+00  0.0000E+00  0.0000E+00
    -11.033  0.0000E+00  0.0000E+00  0.0000E+00
    -10.756  0.0000E+00  0.0000E+00  0.0000E+00
    -10.479  0.0000E+00  0.0000E+00  0.0000E+00
    -10.203  0.0000E+00  0.0000E+00  0.0000E+00
     -9.926  0.3000E-10  0.6734E-23  0.2457E-15
     -9.649  0.2151E-02  0.1360E-03  0.1238E-03
     -9.372  0.3685E-02  0.1415E-02  0.1467E-02
     -9.095  0.2900E-06  0.6789E-03  0.8184E-03
     -8.818  0.6045E-02  0.1269E-02  0.1435E-02
     -8.541  0.1581E-01  0.6952E-02  0.9214E-02
     -8.264  0.5025E-04  0.4042E-02  0.5352E-02
     -7.987  0.0000E+00  0.0000E+00  0.0000E+00
     -7.710  0.0000E+00  0.0000E+00  0.0000E+00
     -7.433  0.0000E+00  0.0000E+00  0.0000E+00
     -7.156  0.0000E+00  0.0000E+00  0.0000E+00
     -6.879  0.0000E+00  0.0000E+00  0.0000E+00
     -6.602  0.0000E+00  0.0000E+00  0.0000E+00
     -6.325  0.0000E+00  0.0000E+00  0.0000E+00
     -6.048  0.0000E+00  0.0000E+00  0.0000E+00
     -5.772  0.0000E+00  0.0000E+00  0.0000E+00
     -5.495  0.0000E+00  0.0000E+00  0.0000E+00
     -5.218  0.0000E+00  0.0000E+00  0.0000E+00
     -4.941  0.0000E+00  0.0000E+00  0.0000E+00
     -4.664  0.0000E+00  0.0000E+00  0.0000E+00
     -4.387  0.0000E+00  0.0000E+00  0.0000E+00
     -4.110  0.0000E+00  0.0000E+00  0.0000E+00
     -3.833  0.0000E+00  0.0000E+00  0.0000E+00
     -3.556  0.8224E-19  0.1061E-10  0.2025E-09
     -3.279  0.5593E-02  0.3858E-02  0.1054E-01
     -3.002  0.0000E+00  0.0000E+00  0.0000E+00
     -2.725  0.0000E+00  0.0000E+00  0.0000E+00
     -2.448  0.1472E-01  0.3724E-02  0.9102E-02
     -2.171  0.1803E-02  0.1097E-02  0.3512E-02
     -1.894  0.0000E+00  0.0000E+00  0.0000E+00
     -1.617  0.1734E-05  0.2888E-06  0.8544E-07
     -1.341  0.2545E-02  0.1704E-02  0.4514E-02
     -1.064  0.3451E-01  0.2704E-02  0.3586E-01
     -0.787  0.3197E-01  0.2582E-02  0.1425E-01
     -0.510  0.3641E-01  0.1358E-02  0.1798E-01
     -0.233  0.3818E-01  0.5033E-02  0.6208E-01
      0.044  0.1356E-01  0.1337E-01  0.8826E-01
      0.321  0.9900E-02  0.1255E-01  0.1079E+00
      0.598  0.2079E-01  0.1394E-01  0.1830E+00
      0.875  0.1071E-01  0.3757E-01  0.4731E+00
      1.152  0.2168E-02  0.2037E-02  0.6021E-01
      1.429  0.2439E-02  0.3121E-01  0.7865E+00
      1.706  0.2270E-02  0.2175E-02  0.1436E+00
      1.983  0.0000E+00  0.0000E+00  0.0000E+00
      2.260  0.0000E+00  0.0000E+00  0.0000E+00
      2.537  0.7788E-05  0.5113E-05  0.2333E-01
      2.814  0.3784E-02  0.2616E-02  0.2896E+01
      3.090  0.1217E-02  0.5031E-02  0.7034E+00
      3.367  0.3794E-02  0.1290E-01  0.9295E+00
      3.644  0.4757E-02  0.1301E-01  0.7904E+00
      3.921  0.4281E-02  0.1472E-01  0.6848E+00
      4.198  0.8248E-03  0.1348E-01  0.4746E+00
      4.475  0.5043E-05  0.5694E-03  0.2756E-01
      4.752  0.0000E+00  0.0000E+00  0.0000E+00
      5.029  0.0000E+00  0.0000E+00  0.0000E+00
      5.306  0.0000E+00  0.0000E+00  0.0000E+00
      5.583  0.7127E-03  0.1491E-03  0.3203E-02
      5.860  0.1379E-02  0.8164E-03  0.1389E-01
      6.137  0.6946E-03  0.1624E-02  0.4228E-01
      6.414  0.2611E-03  0.5201E-03  0.6166E-02
      6.691  0.6041E-19  0.2057E-18  0.1051E-17
      6.968  0.2305E-04  0.4456E-03  0.3261E-02
      7.245  0.2129E-01  0.5713E-02  0.2095E-01
      7.521  0.8015E-02  0.5745E-02  0.2632E-01
      7.798  0.6464E-02  0.6092E-02  0.2135E-01
      8.075  0.2388E-01  0.7618E-02  0.1381E-01
      8.352  0.1790E-01  0.2639E-02  0.8831E-02
      8.629  0.1666E-01  0.5480E-02  0.1487E-01
      8.906  0.1701E-01  0.5009E-02  0.1357E-01
      9.183  0.5139E-01  0.1407E-01  0.1908E-01
      9.460  0.3873E-01  0.2817E-02  0.8845E-02
      9.737  0.3631E-01  0.1741E-01  0.1397E-01
     10.014  0.1726E-01  0.1398E-01  0.1135E-01
     10.291  0.4491E-01  0.2267E-01  0.2608E-01
     10.568  0.8359E-01  0.4109E-01  0.3313E-01
     10.845  0.2500E-01  0.8205E-02  0.8085E-02
     11.122  0.0000E+00  0.0000E+00  0.0000E+00
     11.399  0.0000E+00  0.0000E+00  0.0000E+00
     11.676  0.0000E+00  0.0000E+00  0.0000E+00
     11.952  0.0000E+00  0.0000E+00  0.0000E+00
     12.229  0.0000E+00  0.0000E+00  0.0000E+00
     12.506  0.0000E+00  0.0000E+00  0.0000E+00
     12.783  0.0000E+00  0.0000E+00  0.0000E+00
     13.060  0.0000E+00  0.0000E+00  0.0000E+00
     13.337  0.0000E+00  0.0000E+00  0.0000E+00
     13.614  0.0000E+00  0.0000E+00  0.0000E+00
     13.891  0.0000E+00  0.0000E+00  0.0000E+00
     14.168  0.0000E+00  0.0000E+00  0.0000E+00
     14.445  0.0000E+00  0.0000E+00  0.0000E+00
     14.722  0.0000E+00  0.0000E+00  0.0000E+00
     14.999  0.0000E+00  0.0000E+00  0.0000E+00
     14.99875633    -68.08244632  301      4.71745750      1.00000000
    -68.082  0.0000E+00  0.0000E+00  0.0000E+00
    -67.806  0.0000E+00  0.0000E+00  0.0000E+00
    -67.529  0.0000E+00  0.0000E+00  0.0000E+00
    -67.252  0.0000E+00  0.0000E+00  0.0000E+00
    -66.975  0.0000E+00  0.0000E+00  0.0000E+00
    -66.698  0.0000E+00  0.0000E+00  0.0000E+00
    -66.421  0.0000E+00  0.0000E+00  0.0000E+00
    -66.144  0.0000E+00  0.0000E+00  0.0000E+00
    -65.867  0.0000E+00  0.0000E+00  0.0000E+00
    -65.590  0.0000E+00  0.0000E+00  0.0000E+00
    -65.313  0.0000E+00  0.0000E+00  0.0000E+00
    -65.036  0.0000E+00  0.0000E+00  0.0000E+00
    -64.759  0.0000E+00  0.0000E+00  0.0000E+00
    -64.482  0.0000E+00  0.0000E+00  0.0000E+00
    -64.205  0.2510E-08  0.1439E+02  0.4146E-05
    -63.928  0.0000E+00  0.0000E+00  0.0000E+00
    -63.651  0.0000E+00  0.0000E+00  0.0000E+00
    -63.375  0.0000E+00  0.0000E+00  0.0000E+00
    -63.098  0.0000E+00  0.0000E+00  0.0000E+00
    -62.821  0.0000E+00  0.0000E+00  0.0000E+00
    -62.544  0.0000E+00  0.0000E+00  0.0000E+00
    -62.267  0.0000E+00  0.0000E+00  0.0000E+00
    -61.990  0.0000E+00  0.0000E+00  0.0000E+00
    -61.713  0.0000E+00  0.0000E+00  0.0000E+00
    -61.436  0.0000E+00  0.0000E+00  0.0000E+00
    -61.159  0.0000E+00  0.0000E+00  0.0000E+00
    -60.882  0.0000E+00  0.0000E+00  0.0000E+00
    -60.605  0.0000E+00  0.0000E+00  0.0000E+00
    -60.328  0.0000E+00  0.0000E+00  0.0000E+00
    -60.051  0.0000E+00  0.0000E+00  0.0000E+00
    -59.774  0.0000E+00  0.0000E+00  0.0000E+00
    -59.497  0.0000E+00  0.0000E+00  0.0000E+00
    -59.220  0.0000E+00  0.0000E+00  0.0000E+00
    -58.944  0.0000E+00  0.0000E+00  0.0000E+00
    -58.667  0.0000E+00  0.0000E+00  0.0000E+00
    -58.390  0.0000E+00  0.0000E+00  0.0000E+00
    -58.113  0.0000E+00  0.0000E+00  0.0000E+00
    -57.836  0.0000E+00  0.0000E+00  0.0000E+00
    -57.559  0.0000E+00  0.0000E+00  0.0000E+00
    -57.282  0.0000E+00  0.0000E+00  0.0000E+00
    -57.005  0.0000E+00  0.0000E+00  0.0000E+00
    -56.728  0.0000E+00  0.0000E+00  0.0000E+00
    -56.451  0.0000E+00  0.0000E+00  0.0000E+00
    -56.174  0.0000E+00  0.0000E+00  0.0000E+00
    -55.897  0.0000E+00  0.0000E+00  0.0000E+00
    -55.620  0.0000E+00  0.0000E+00  0.0000E+00
    -55.343  0.0000E+00  0.0000E+00  0.0000E+00
    -55.066  0.0000E+00  0.0000E+00  0.0000E+00
    -54.789  0.0000E+00  0.0000E+00  0.0000E+00
    -54.513  0.0000E+00  0.0000E+00  0.0000E+00
    -54.236  0.0000E+00  0.0000E+00  0.0000E+00
    -53.959  0.0000E+00  0.0000E+00  0.0000E+00
    -53.682  0.0000E+00  0.0000E+00  0.0000E+00
    -53.405  0.0000E+00  0.0000E+00  0.0000E+00
    -53.128  0.0000E+00  0.0000E+00  0.0000E+00
    -52.851  0.0000E+00  0.0000E+00  0.0000E+00
    -52.574  0.0000E+00  0.0000E+00  0.0000E+00
    -52.297  0.0000E+00  0.0000E+00  0.0000E+00
    -52.020  0.0000E+00  0.0000E+00  0.0000E+00
    -51.743  0.0000E+00  0.0000E+00  0.0000E+00
    -51.466  0.0000E+00  0.0000E+00  0.0000E+00
    -51.189  0.0000E+00  0.0000E+00  0.0000E+00
    -50.912  0.0000E+00  0.0000E+00  0.0000E+00
    -50.635  0.0000E+00  0.0000E+00  0.0000E+00
    -50.358  0.0000E+00  0.0000E+00  0.0000E+00
    -50.082  0.0000E+00  0.0000E+00  0.0000E+00
    -49.805  0.0000E+00  0.0000E+00  0.0000E+00
    -49.528  0.0000E+00  0.0000E+00  0.0000E+00
    -49.251  0.0000E+00  0.0000E+00  0.0000E+00
    -48.974  0.0000E+00  0.0000E+00  0.0000E+00
    -48.697  0.0000E+00  0.0000E+00  0.0000E+00
    -48.420  0.0000E+00  0.0000E+00  0.0000E+00
    -48.143  0.0000E+00  0.0000E+00  0.0000E+00
    -47.866  0.0000E+00  0.0000E+00  0.0000E+00
    -47.589  0.0000E+00  0.0000E+00  0.0000E+00
    -47.312  0.0000E+00  0.0000E+00  0.0000E+00
    -47.035  0.0000E+00  0.0000E+00  0.0000E+00
    -46.758  0.0000E+00  0.0000E+00  0.0000E+00
    -46.481  0.0000E+00  0.0000E+00  0.0000E+00
    -46.204  0.0000E+00  0.0000E+00  0.0000E+00
    -45.927  0.0000E+00  0.0000E+00  0.0000E+00
    -45.651  0.0000E+00  0.0000E+00  0.0000E+00
    -45.374  0.0000E+00  0.0000E+00  0.0000E+00
    -45.097  0.0000E+00  0.0000E+00  0.0000E+00
    -44.820  0.0000E+00  0.0000E+00  0.0000E+00
    -44.543  0.0000E+00  0.0000E+00  0.0000E+00
    -44.266  0.0000E+00  0.0000E+00  0.0000E+00
    -43.989  0.0000E+00  0.0000E+00  0.0000E+00
    -43.712  0.0000E+00  0.0000E+00  0.0000E+00
    -43.435  0.0000E+00  0.0000E+00  0.0000E+00