 running on   96 total cores
 distrk:  each k-point on   24 cores,    4 groups
 distr:  one band on    6 cores,    4 groups
 using from now: INCAR     
 vasp.5.4.1 24Jun15 (build Nov 25 2015 16:01:35) complex                        
  
 POSCAR found type information on POSCAR  Cu Zn Sn S 
 POSCAR found :  4 types and       8 ions
 scaLAPACK will be used

 ----------------------------------------------------------------------------- 
|                                                                             |
|           W    W    AA    RRRRR   N    N  II  N    N   GGGG   !!!           |
|           W    W   A  A   R    R  NN   N  II  NN   N  G    G  !!!           |
|           W    W  A    A  R    R  N N  N  II  N N  N  G       !!!           |
|           W WW W  AAAAAA  RRRRR   N  N N  II  N  N N  G  GGG   !            |
|           WW  WW  A    A  R   R   N   NN  II  N   NN  G    G                |
|           W    W  A    A  R    R  N    N  II  N    N   GGGG   !!!           |
|                                                                             |
|      You have enabled k-point parallelism (KPAR>1).                         |
|      This developmental code was originally  written by Paul Kent at ORNL,  |
|      and carefully double checked in Vienna.                                |
|      GW as well as linear response parallelism added by Martijn Marsman     |
|      and Georg Kresse.                                                      |
|      Carefully verify results versus KPAR=1.                                |
|      Report problems to Paul Kent and Vienna.                               |
|                                                                             |
 ----------------------------------------------------------------------------- 


 ----------------------------------------------------------------------------- 
|                                                                             |
|  ADVICE TO THIS USER RUNNING 'VASP/VAMP'   (HEAR YOUR MASTER'S VOICE ...):  |
|                                                                             |
|      You enforced a specific xc-type in the INCAR file,                     |
|      a different type was found on the POTCAR file                          |
|          I HOPE YOU KNOW, WHAT YOU ARE  DOING                               |
|                                                                             |
 ----------------------------------------------------------------------------- 

 LDA part: xc-table for Pade appr. of Perdew
 WARNING: stress and forces are not correct
 POSCAR, INCAR and KPOINTS ok, starting setup
 WARNING: small aliasing (wrap around) errors must be expected
 FFT: planning ...
 WAVECAR not read
 charge-density read from file: Name                                    
 WARNING: random wavefunctions but no delay for mixing, default for NELMDL
 entering main loop
       N       E                     dE             d eps       ncg     rms          rms(c)
DAV:   1     0.962457607512E+03    0.96246E+03   -0.44490E+04 74600   0.198E+03
DAV:   2     0.100520666943E+03   -0.86194E+03   -0.83622E+03 62680   0.595E+02
DAV:   3    -0.273856068526E+02   -0.12791E+03   -0.12441E+03 69060   0.207E+02
DAV:   4    -0.355334442627E+02   -0.81478E+01   -0.80601E+01 74060   0.506E+01
DAV:   5    -0.357673234836E+02   -0.23388E+00   -0.23338E+00 78100   0.949E+00
DAV:   6    -0.357763909629E+02   -0.90675E-02   -0.90640E-02 80268   0.168E+00
DAV:   7    -0.357768356298E+02   -0.44467E-03   -0.44463E-03 86784   0.335E-01
DAV:   8    -0.357768498730E+02   -0.14243E-04   -0.14243E-04 79896   0.500E-02
DAV:   9    -0.357768505383E+02   -0.66524E-06   -0.66518E-06 56136   0.915E-03
   1 F= -.35776851E+02 E0= -.35776851E+02  d E =-.672683E-19
 writing wavefunctions
Application 21789322 resources: utime ~9828s, stime ~78s, Rss ~345408, inblocks ~856497, outblocks ~2913015
