       N       E                     dE             d eps       ncg     rms          rms(c)
DAV:   1     0.358454244476E+04    0.35845E+04   -0.18927E+05  7176   0.170E+03
DAV:   2     0.195679448988E+03   -0.33889E+04   -0.31781E+04  8040   0.354E+02
DAV:   3    -0.396576642117E+03   -0.59226E+03   -0.58370E+03  9456   0.171E+02
DAV:   4    -0.436980458640E+03   -0.40404E+02   -0.40226E+02  9680   0.491E+01
DAV:   5    -0.438483702181E+03   -0.15032E+01   -0.15005E+01  9808   0.909E+00    0.286E+01
DAV:   6    -0.418735405020E+03    0.19748E+02   -0.38219E+01 10296   0.135E+01    0.151E+01
DAV:   7    -0.416478467438E+03    0.22569E+01   -0.18124E+01  9992   0.716E+00    0.770E+00
DAV:   8    -0.416314333004E+03    0.16413E+00   -0.37163E+00  8792   0.349E+00    0.202E+00
DAV:   9    -0.416215202663E+03    0.99130E-01   -0.88355E-01  9216   0.191E+00    0.717E-01
DAV:  10    -0.416229650538E+03   -0.14448E-01   -0.14265E-01  8984   0.671E-01    0.564E-01
DAV:  11    -0.416228365394E+03    0.12851E-02   -0.20594E-02  9568   0.325E-01    0.236E-01
DAV:  12    -0.416229772201E+03   -0.14068E-02   -0.12581E-02  9952   0.181E-01    0.114E-01
DAV:  13    -0.416230045365E+03   -0.27316E-03   -0.18942E-03  8312   0.915E-02    0.884E-02
DAV:  14    -0.416230084601E+03   -0.39235E-04   -0.27769E-04  8928   0.317E-02    0.519E-02
DAV:  15    -0.416230139998E+03   -0.55397E-04   -0.34747E-04  8056   0.307E-02    0.157E-02
DAV:  16    -0.416230149213E+03   -0.92147E-05   -0.42307E-05 10552   0.127E-02    0.211E-02
DAV:  17    -0.416230148218E+03    0.99505E-06   -0.17353E-06  8352   0.272E-03    0.154E-02
DAV:  18    -0.416230146534E+03    0.16836E-05   -0.23879E-05  8544   0.797E-03    0.317E-03
DAV:  19    -0.416230147156E+03   -0.62144E-06   -0.39630E-06  8720   0.413E-03    0.481E-03
DAV:  20    -0.416230147117E+03    0.38603E-07   -0.19938E-07  8680   0.105E-03    0.324E-03
DAV:  21    -0.416230147217E+03   -0.10023E-06   -0.87087E-07  8616   0.164E-03    0.119E-03
DAV:  22    -0.416230147201E+03    0.15723E-07   -0.12157E-07  7176   0.823E-04    0.631E-04
DAV:  23    -0.416230147185E+03    0.16313E-07   -0.19924E-08  5960   0.310E-04    0.325E-04
DAV:  24    -0.416230147179E+03    0.63737E-08   -0.87810E-10  4504   0.224E-04
   1 F= -.41623015E+03 E0= -.41623015E+03  d E =0.000000E+00
