       N       E                     dE             d eps       ncg     rms          ort
DAV:   1     0.485591482106E+04    0.48559E+04   -0.15913E+05  6396   0.709E+03
DAV:   2     0.132669061432E+04   -0.35292E+04   -0.34528E+04  6396   0.210E+03
DAV:   3     0.383845933363E+03   -0.94284E+03   -0.91565E+03  6396   0.502E+02
DAV:   4     0.208804594945E+03   -0.17504E+03   -0.16548E+03  6396   0.206E+02
DAV:   5     0.188948787486E+03   -0.19856E+02   -0.18970E+02  6396   0.650E+01
SDA:   6     0.184092131652E+03   -0.48567E+01   -0.18970E+02  6396   0.491E+04 0.000E+00
CGA:   7     0.758699259580E+01   -0.17651E+03   -0.47524E+03  6396   0.398E+03-0.900E+03
CGA:   8    -0.314928399344E+02   -0.39080E+02   -0.35607E+02  6396   0.222E+02 0.187E+02
CGA:   9    -0.347977683608E+02   -0.33049E+01   -0.32667E+01  6396   0.125E+02-0.171E+00
CGA:  10    -0.372961852367E+02   -0.24984E+01   -0.24838E+01  6396   0.437E+01 0.667E+00
CGA:  11    -0.379846641575E+02   -0.68848E+00   -0.69755E+00  6396   0.131E+01 0.579E-01
CGA:  12    -0.383487420073E+02   -0.36408E+00   -0.36318E+00  6396   0.781E+00 0.732E-02
CGA:  13    -0.385045762003E+02   -0.15583E+00   -0.15585E+00  6396   0.210E+00-0.176E-02
CGA:  14    -0.385520906276E+02   -0.47514E-01   -0.47484E-01  6396   0.995E-01 0.538E-03
CGA:  15    -0.385752796238E+02   -0.23189E-01   -0.23194E-01  6396   0.308E-01-0.121E-03
CGA:  16    -0.385822621556E+02   -0.69825E-02   -0.69815E-02  6396   0.101E-01 0.290E-04
CGA:  17    -0.385849454586E+02   -0.26833E-02   -0.26824E-02  6396   0.360E-02 0.148E-04
CGA:  18    -0.385859650879E+02   -0.10196E-02   -0.10207E-02  6396   0.123E-02-0.126E-04
CGA:  19    -0.385863100551E+02   -0.34497E-03   -0.34493E-03  6396   0.369E-03 0.752E-06
CGA:  20    -0.385864106779E+02   -0.10062E-03   -0.10048E-03  6396   0.120E-03 0.239E-05
CGA:  21    -0.385864406203E+02   -0.29942E-04   -0.29853E-04  6396   0.342E-04 0.246E-05
CGA:  22    -0.385864499244E+02   -0.93041E-05   -0.91993E-05  6396   0.120E-04 0.208E-05
CGA:  23    -0.385864538053E+02   -0.38809E-05   -0.39721E-05  6396   0.562E-05-0.952E-06
CGA:  24    -0.385864550149E+02   -0.12097E-05   -0.12028E-05  6396   0.223E-05 0.572E-06
CGA:  25    -0.385864556298E+02   -0.61489E-06   -0.61010E-06  6396   0.767E-06 0.181E-06
   1 F= -.38586456E+02 E0= -.38586456E+02  d E =-.486551E-34
