PROCAR new format
# of k-points:  123         # of bands:  52         # of ions:   8

 k-point    1 :    0.00000000 0.00000000 0.00000000     weight = 0.00694444

band   1 # energy  -68.51385479 # occ.  2.00000000
 
ion      s      p      d    tot
  1  0.000  0.000  0.000  0.000
  2  0.000  0.998  0.000  0.998
  3  0.000  0.000  0.000  0.000
  4  0.000  0.000  0.000  0.000
  5  0.000  0.000  0.000  0.000
  6  0.000  0.000  0.000  0.000
  7  0.000  0.000  0.000  0.000
  8  0.000  0.000  0.000  0.000
tot  0.000  0.998  0.000  0.998
 
band   2 # energy  -68.48039504 # occ.  2.00000000
 
ion      s      p      d    tot
  1  0.000  0.997  0.000  0.997
  2  0.000  0.000  0.000  0.000
  3  0.000  0.000  0.000  0.000
  4  0.000  0.000  0.000  0.000
  5  0.000  0.000  0.000  0.000
  6  0.000  0.000  0.000  0.000
  7  0.000  0.000  0.000  0.000
  8  0.000  0.000  0.000  0.000
tot  0.000  0.998  0.000  0.998
 
band   3 # energy  -68.48039637 # occ.  2.00000000
 
ion      s      p      d    tot
  1  0.000  0.997  0.000  0.997
  2  0.000  0.000  0.000  0.000
  3  0.000  0.000  0.000  0.000
  4  0.000  0.000  0.000  0.000
  5  0.000  0.000  0.000  0.000
  6  0.000  0.000  0.000  0.000
  7  0.000  0.000  0.000  0.000
  8  0.000  0.000  0.000  0.000
tot  0.000  0.998  0.000  0.998
 
band   4 # energy  -68.46121331 # occ.  2.00000000
 
ion      s      p      d    tot
  1  0.000  0.998  0.000  0.998
  2  0.000  0.000  0.000  0.000
  3  0.000  0.000  0.000  0.000
  4  0.000  0.000  0.000  0.000
  5  0.000  0.000  0.000  0.000
  6  0.000  0.000  0.000  0.000
  7  0.000  0.000  0.000  0.000
  8  0.000  0.000  0.000  0.000
tot  0.000  0.998  0.000  0.998
 
band   5 # energy  -68.45814984 # occ.  2.00000000
 
ion      s      p      d    tot
  1  0.000  0.000  0.000  0.000
  2  0.000  0.997  0.000  0.997
  3  0.000  0.000  0.000  0.000
  4  0.000  0.000  0.000  0.000
  5  0.000  0.000  0.000  0.000
  6  0.000  0.000  0.000  0.000
  7  0.000  0.000  0.000  0.000
  8  0.000  0.000  0.000  0.000
tot  0.000  0.998  0.000  0.998
 
band   6 # energy  -68.45814826 # occ.  2.00000000
 
ion      s      p      d    tot
  1  0.000  0.000  0.000  0.000
  2  0.000  0.997  0.000  0.997
  3  0.000  0.000  0.000  0.000
  4  0.000  0.000  0.000  0.000
  5  0.000  0.000  0.000  0.000
  6  0.000  0.000  0.000  0.000
  7  0.000  0.000  0.000  0.000
  8  0.000  0.000  0.000  0.000
tot  0.000  0.998  0.000  0.998
 
band   7 # energy  -20.16029037 # occ.  2.00000000
 
ion      s      p      d    tot
  1  0.000  0.000  0.000  0.000
  2  0.000  0.000  0.000  0.000
  3  0.000  0.000  0.000  0.000
  4  0.000  0.000  0.984  0.985
  5  0.001  0.000  0.000  0.001
  6  0.001  0.000  0.000  0.001
  7  0.001  0.000  0.000  0.001
  8  0.001  0.000  0.000  0.001
tot  0.003  0.002  0.984  0.989
 
band   8 # energy  -20.15636680 # occ.  2.00000000
 
ion      s      p      d    tot
  1  0.000  0.000  0.000  0.000
  2  0.000  0.000  0.000  0.000
  3  0.000  0.000  0.000  0.000
  4  0.000  0.000  0.984  0.985
  5  0.002  0.001  0.000  0.002
  6  0.002  0.001  0.000  0.002
  7  0.000  0.000  0.000  0.000
  8  0.000  0.000  0.000  0.000
tot  0.003  0.002  0.984  0.989
 
band   9 # energy  -20.15636459 # occ.  2.00000000
 
ion      s      p      d    tot
  1  0.000  0.000  0.000  0.000
  2  0.000  0.000  0.000  0.000
  3  0.000  0.000  0.000  0.000
  4  0.000  0.000  0.984  0.985
  5  0.000  0.000  0.000  0.000
  6  0.000  0.000  0.000  0.000
  7  0.002  0.001  0.000  0.002
  8  0.002  0.001  0.000  0.002
tot  0.003  0.002  0.984  0.989
 
band  10 # energy  -20.06274205 # occ.  2.00000000
 
ion      s      p      d    tot
  1  0.000  0.000  0.000  0.000
  2  0.000  0.000  0.000  0.000
  3  0.000  0.000  0.000  0.000
  4  0.000  0.000  0.991  0.991
  5  0.000  0.000  0.000  0.000
  6  0.000  0.000  0.000  0.000
  7  0.000  0.000  0.000  0.000
  8  0.000  0.000  0.000  0.000
tot  0.000  0.000  0.991  0.991
 
band  11 # energy  -20.05733383 # occ.  2.00000000
 
ion      s      p      d    tot
  1  0.000  0.000  0.000  0.000
  2  0.000  0.000  0.000  0.000
  3  0.000  0.000  0.000  0.000
  4  0.000  0.000  0.991  0.991
  5  0.000  0.000  0.000  0.000
  6  0.000  0.000  0.000  0.000
  7  0.000  0.000  0.000  0.000
  8  0.000  0.000  0.000  0.000
tot  0.000  0.000  0.991  0.991
 
band  12 # energy  -11.72133192 # occ.  2.00000000
 
ion      s      p      d    tot
  1  0.008  0.000  0.000  0.008
  2  0.008  0.000  0.000  0.008
  3  0.022  0.000  0.000  0.022
  4  0.087  0.000  0.000  0.087
  5  0.130  0.001  0.000  0.130
  6  0.130  0.001  0.000  0.130
  7  0.130  0.001  0.000  0.130
  8  0.130  0.001  0.000  0.130
tot  0.644  0.003  0.000  0.646
 
band  13 # energy  -10.07685038 # occ.  2.00000000
 
ion      s      p      d    tot
  1  0.000  0.003  0.004  0.007
  2  0.000  0.003  0.004  0.007
  3  0.000  0.009  0.017  0.025
  4  0.000  0.022  0.010  0.032
  5  0.162  0.000  0.000  0.162
  6  0.162  0.000  0.000  0.162
  7  0.162  0.000  0.000  0.162
  8  0.162  0.000  0.000  0.162
tot  0.647  0.037  0.034  0.718
 
band  14 # energy  -10.06644631 # occ.  2.00000000
 
ion      s      p      d    tot
  1  0.000  0.003  0.004  0.007
  2  0.000  0.003  0.004  0.007
  3  0.000  0.009  0.017  0.025
  4  0.000  0.022  0.010  0.032
  5  0.034  0.000  0.000  0.034
  6  0.034  0.000  0.000  0.034
  7  0.290  0.000  0.000  0.290
  8  0.290  0.000  0.000  0.290
tot  0.648  0.036  0.036  0.720
 
band  15 # energy  -10.06644678 # occ.  2.00000000
 
ion      s      p      d    tot
  1  0.000  0.003  0.004  0.007
  2  0.000  0.003  0.004  0.007
  3  0.000  0.009  0.017  0.025
  4  0.000  0.022  0.010  0.032
  5  0.290  0.000  0.000  0.290
  6  0.290  0.000  0.000  0.290
  7  0.034  0.000  0.000  0.034
  8  0.034  0.000  0.000  0.034
tot  0.648  0.036  0.036  0.720
 
band  16 # energy   -4.71361619 # occ.  2.00000000
 
ion      s      p      d    tot
  1  0.004  0.000  0.001  0.006
  2  0.000  0.000  0.002  0.003
  3  0.010  0.000  0.604  0.614
  4  0.132  0.000  0.000  0.133
  5  0.003  0.020  0.000  0.023
  6  0.003  0.020  0.000  0.023
  7  0.003  0.020  0.000  0.023
  8  0.003  0.020  0.000  0.023
tot  0.160  0.080  0.607  0.848
 
band  17 # energy   -4.64367406 # occ.  2.00000000
 
ion      s      p      d    tot
  1  0.000  0.000  0.000  0.000
  2  0.000  0.000  0.001  0.001
  3  0.000  0.000  0.916  0.916
  4  0.000  0.004  0.001  0.005
  5  0.002  0.006  0.000  0.007
  6  0.002  0.006  0.000  0.007
  7  0.002  0.006  0.000  0.007
  8  0.002  0.006  0.000  0.007
tot  0.007  0.027  0.918  0.952
 
band  18 # energy   -4.59821575 # occ.  2.00000000
 
ion      s      p      d    tot
  1  0.000  0.000  0.001  0.002
  2  0.000  0.000  0.001  0.001
  3  0.000  0.000  0.924  0.924
  4  0.000  0.002  0.001  0.002
  5  0.004  0.009  0.000  0.013
  6  0.004  0.009  0.000  0.013
  7  0.000  0.001  0.000  0.001
  8  0.000  0.001  0.000  0.001
tot  0.009  0.022  0.927  0.959
 
band  19 # energy   -4.59821439 # occ.  2.00000000
 
ion      s      p      d    tot
  1  0.000  0.000  0.001  0.002
  2  0.000  0.000  0.001  0.001
  3  0.000  0.000  0.924  0.924
  4  0.000  0.002  0.001  0.002
  5  0.000  0.001  0.000  0.001
  6  0.000  0.001  0.000  0.001
  7  0.004  0.009  0.000  0.013
  8  0.004  0.009  0.000  0.013
tot  0.009  0.022  0.927  0.959
 
band  20 # energy   -4.59111241 # occ.  2.00000000
 
ion      s      p      d    tot
  1  0.000  0.000  0.000  0.000
  2  0.000  0.000  0.000  0.001
  3  0.000  0.000  0.937  0.937
  4  0.000  0.001  0.000  0.001
  5  0.000  0.003  0.000  0.003
  6  0.000  0.003  0.000  0.003
  7  0.000  0.003  0.000  0.003
  8  0.000  0.003  0.000  0.003
tot  0.001  0.013  0.938  0.952
 
band  21 # energy   -4.24247150 # occ.  2.00000000
 
ion      s      p      d    tot
  1  0.003  0.000  0.001  0.004
  2  0.005  0.000  0.003  0.008
  3  0.022  0.000  0.346  0.369
  4  0.272  0.000  0.000  0.272
  5  0.006  0.030  0.000  0.036
  6  0.006  0.030  0.000  0.036
  7  0.006  0.030  0.000  0.036
  8  0.006  0.030  0.000  0.036
tot  0.327  0.121  0.351  0.798
 
band  22 # energy   -1.86036144 # occ.  2.00000000
 
ion      s      p      d    tot
  1  0.009  0.000  0.020  0.029
  2  0.037  0.000  0.000  0.037
  3  0.150  0.000  0.001  0.151
  4  0.013  0.000  0.003  0.016
  5  0.002  0.078  0.000  0.080
  6  0.002  0.078  0.000  0.080
  7  0.002  0.078  0.000  0.080
  8  0.002  0.078  0.000  0.080
tot  0.216  0.311  0.024  0.551
 
band  23 # energy   -1.23014284 # occ.  2.00000000
 
ion      s      p      d    tot
  1  0.000  0.000  0.069  0.069
  2  0.000  0.011  0.034  0.045
  3  0.000  0.000  0.041  0.041
  4  0.000  0.106  0.004  0.110
  5  0.001  0.079  0.000  0.080
  6  0.001  0.079  0.000  0.080
  7  0.001  0.079  0.000  0.080
  8  0.001  0.079  0.000  0.080
tot  0.003  0.432  0.148  0.583
 
band  24 # energy   -1.18059921 # occ.  2.00000000
 
ion      s      p      d    tot
  1  0.072  0.000  0.002  0.073
  2  0.040  0.000  0.003  0.043
  3  0.015  0.000  0.025  0.040
  4  0.001  0.000  0.004  0.005
  5  0.000  0.086  0.000  0.086
  6  0.000  0.086  0.000  0.086
  7  0.000  0.086  0.000  0.086
  8  0.000  0.086  0.000  0.086
tot  0.128  0.344  0.033  0.506
 
band  25 # energy   -0.74505719 # occ.  2.00000000
 
ion      s      p      d    tot
  1  0.000  0.012  0.089  0.102
  2  0.000  0.001  0.096  0.096
  3  0.000  0.031  0.008  0.040
  4  0.000  0.000  0.009  0.009
  5  0.000  0.080  0.000  0.080
  6  0.000  0.080  0.000  0.080
  7  0.000  0.080  0.000  0.080
  8  0.000  0.080  0.000  0.080
tot  0.000  0.365  0.202  0.567
 
band  26 # energy   -0.61586401 # occ.  2.00000000
 
ion      s      p      d    tot
  1  0.000  0.008  0.019  0.026
  2  0.000  0.000  0.012  0.012
  3  0.000  0.023  0.002  0.025
  4  0.000  0.152  0.005  0.157
  5  0.000  0.049  0.000  0.049
  6  0.000  0.049  0.000  0.049
  7  0.001  0.131  0.000  0.132
  8  0.001  0.131  0.000  0.132
tot  0.003  0.542  0.038  0.583
 
band  27 # energy   -0.61586236 # occ.  2.00000000
 
ion      s      p      d    tot
  1  0.000  0.008  0.019  0.026
  2  0.000  0.000  0.012  0.012
  3  0.000  0.023  0.002  0.025
  4  0.000  0.152  0.005  0.157
  5  0.001  0.131  0.000  0.132
  6  0.001  0.131  0.000  0.132
  7  0.000  0.049  0.000  0.049
  8  0.000  0.049  0.000  0.049
tot  0.003  0.542  0.038  0.583
 
band  28 # energy   -0.00307388 # occ.  2.00000000
 
ion      s      p      d    tot
  1  0.000  0.007  0.101  0.108
  2  0.000  0.011  0.248  0.260
  3  0.000  0.005  0.000  0.006
  4  0.000  0.004  0.002  0.006
  5  0.000  0.083  0.000  0.083
  6  0.000  0.083  0.000  0.083
  7  0.000  0.072  0.000  0.073
  8  0.000  0.072  0.000  0.073
tot  0.000  0.338  0.352  0.691
 
band  29 # energy   -0.00307261 # occ.  2.00000000
 
ion      s      p      d    tot
  1  0.000  0.007  0.101  0.108
  2  0.000  0.011  0.248  0.260
  3  0.000  0.005  0.000  0.006
  4  0.000  0.004  0.002  0.006
  5  0.000  0.072  0.000  0.073
  6  0.000  0.072  0.000  0.073
  7  0.000  0.083  0.000  0.083
  8  0.000  0.083  0.000  0.083
tot  0.000  0.338  0.352  0.691
 
band  30 # energy    0.34512904 # occ.  2.00000000
 
ion      s      p      d    tot
  1  0.000  0.000  0.211  0.211
  2  0.000  0.001  0.276  0.277
  3  0.000  0.010  0.026  0.036
  4  0.000  0.007  0.008  0.015
  5  0.000  0.055  0.000  0.055
  6  0.000  0.055  0.000  0.055
  7  0.000  0.055  0.000  0.055
  8  0.000  0.055  0.000  0.055
tot  0.001  0.238  0.521  0.760
 
band  31 # energy    0.38026873 # occ.  2.00000000
 
ion      s      p      d    tot
  1  0.000  0.002  0.257  0.259
  2  0.000  0.004  0.090  0.095
  3  0.000  0.032  0.027  0.059
  4  0.000  0.001  0.004  0.004
  5  0.001  0.118  0.000  0.119
  6  0.001  0.118  0.000  0.119
  7  0.000  0.019  0.000  0.019
  8  0.000  0.019  0.000  0.019
tot  0.001  0.314  0.377  0.693
 
band  32 # energy    0.38026739 # occ.  2.00000000
 
ion      s      p      d    tot
  1  0.000  0.002  0.257  0.259
  2  0.000  0.004  0.090  0.095
  3  0.000  0.032  0.027  0.059
  4  0.000  0.001  0.004  0.004
  5  0.000  0.019  0.000  0.019
  6  0.000  0.019  0.000  0.019
  7  0.001  0.118  0.000  0.119
  8  0.001  0.118  0.000  0.119
tot  0.001  0.314  0.377  0.693
 
band  33 # energy    1.40986349 # occ.  2.00000000
 
ion      s      p      d    tot
  1  0.000  0.000  0.449  0.449
  2  0.000  0.000  0.414  0.415
  3  0.000  0.001  0.000  0.002
  4  0.000  0.005  0.000  0.005
  5  0.000  0.000  0.000  0.000
  6  0.000  0.000  0.000  0.000
  7  0.000  0.000  0.000  0.000
  8  0.000  0.000  0.000  0.000
tot  0.001  0.008  0.864  0.872
 
band  34 # energy    1.47403495 # occ.  2.00000000
 
ion      s      p      d    tot
  1  0.001  0.000  0.053  0.054
  2  0.002  0.000  0.793  0.795
  3  0.005  0.000  0.000  0.005
  4  0.026  0.000  0.000  0.026
  5  0.001  0.002  0.000  0.003
  6  0.001  0.002  0.000  0.003
  7  0.001  0.002  0.000  0.003
  8  0.001  0.002  0.000  0.003
tot  0.036  0.008  0.846  0.890
 
band  35 # energy    1.62710580 # occ.  2.00000000
 
ion      s      p      d    tot
  1  0.000  0.000  0.817  0.817
  2  0.003  0.000  0.070  0.073
  3  0.011  0.000  0.000  0.011
  4  0.000  0.000  0.000  0.001
  5  0.000  0.001  0.000  0.001
  6  0.000  0.001  0.000  0.001
  7  0.000  0.001  0.000  0.001
  8  0.000  0.001  0.000  0.001
tot  0.015  0.005  0.888  0.907
 
band  36 # energy    1.95465616 # occ.  2.00000000
 
ion      s      p      d    tot
  1  0.000  0.000  0.529  0.529
  2  0.000  0.002  0.293  0.294
  3  0.000  0.006  0.004  0.010
  4  0.000  0.016  0.002  0.019
  5  0.000  0.013  0.000  0.013
  6  0.000  0.013  0.000  0.013
  7  0.000  0.013  0.000  0.013
  8  0.000  0.013  0.000  0.013
tot  0.001  0.076  0.827  0.905
 
band  37 # energy    2.01549918 # occ.  2.00000000
 
ion      s      p      d    tot
  1  0.000  0.006  0.330  0.336
  2  0.000  0.007  0.365  0.371
  3  0.000  0.002  0.002  0.004
  4  0.000  0.002  0.001  0.003
  5  0.002  0.019  0.000  0.021
  6  0.002  0.019  0.000  0.021
  7  0.001  0.022  0.000  0.023
  8  0.001  0.022  0.000  0.023
tot  0.005  0.100  0.697  0.802
 
band  38 # energy    2.01549655 # occ.  2.00000000
 
ion      s      p      d    tot
  1  0.000  0.006  0.330  0.336
  2  0.000  0.007  0.365  0.371
  3  0.000  0.002  0.002  0.004
  4  0.000  0.002  0.001  0.003
  5  0.001  0.022  0.000  0.023
  6  0.001  0.022  0.000  0.023
  7  0.002  0.019  0.000  0.021
  8  0.002  0.019  0.000  0.021
tot  0.005  0.100  0.697  0.802
 
band  39 # energy    2.17316943 # occ.  2.00000000
 
ion      s      p      d    tot
  1  0.000  0.005  0.255  0.261
  2  0.000  0.003  0.502  0.505
  3  0.000  0.006  0.004  0.010
  4  0.000  0.002  0.003  0.005
  5  0.000  0.017  0.000  0.017
  6  0.000  0.017  0.000  0.017
  7  0.000  0.017  0.000  0.017
  8  0.000  0.017  0.000  0.017
tot  0.002  0.085  0.764  0.851
 
band  40 # energy    3.91362920 # occ.  2.00000000
 
ion      s      p      d    tot
  1  0.000  0.004  0.200  0.205
  2  0.000  0.004  0.192  0.196
  3  0.000  0.004  0.019  0.022
  4  0.000  0.002  0.017  0.019
  5  0.000  0.090  0.000  0.090
  6  0.000  0.090  0.000  0.090
  7  0.001  0.079  0.000  0.080
  8  0.001  0.079  0.000  0.080
tot  0.004  0.351  0.428  0.783
 
band  41 # energy    3.91363323 # occ.  2.00000000
 
ion      s      p      d    tot
  1  0.000  0.004  0.200  0.205
  2  0.000  0.004  0.192  0.196
  3  0.000  0.004  0.019  0.022
  4  0.000  0.002  0.017  0.019
  5  0.001  0.079  0.000  0.080
  6  0.001  0.079  0.000  0.080
  7  0.000  0.090  0.000  0.090
  8  0.000  0.090  0.000  0.090
tot  0.004  0.351  0.428  0.783
 
band  42 # energy    3.97340838 # occ.  2.00000000
 
ion      s      p      d    tot
  1  0.000  0.004  0.209  0.213
  2  0.000  0.005  0.202  0.207
  3  0.000  0.002  0.016  0.019
  4  0.000  0.003  0.014  0.017
  5  0.000  0.083  0.000  0.083
  6  0.000  0.083  0.000  0.083
  7  0.000  0.083  0.000  0.083
  8  0.000  0.083  0.000  0.083
tot  0.001  0.346  0.442  0.789
 
band  43 # energy    5.37267730 # occ.  0.00000000
 
ion      s      p      d    tot
  1  0.017  0.000  0.004  0.021
  2  0.026  0.000  0.023  0.049
  3  0.037  0.000  0.001  0.039
  4  0.153  0.000  0.000  0.153
  5  0.047  0.037  0.000  0.084
  6  0.047  0.037  0.000  0.084
  7  0.047  0.037  0.000  0.084
  8  0.047  0.037  0.000  0.084
tot  0.420  0.149  0.028  0.597
 
band  44 # energy    6.99749315 # occ.  0.00000000
 
ion      s      p      d    tot
  1  0.000  0.005  0.036  0.042
  2  0.000  0.015  0.035  0.051
  3  0.000  0.015  0.013  0.028
  4  0.000  0.118  0.030  0.148
  5  0.013  0.006  0.000  0.019
  6  0.013  0.006  0.000  0.019
  7  0.013  0.006  0.000  0.019
  8  0.013  0.006  0.000  0.019
tot  0.051  0.177  0.115  0.343
 
band  45 # energy    8.04387095 # occ.  0.00000000
 
ion      s      p      d    tot
  1  0.037  0.000  0.028  0.065
  2  0.000  0.000  0.038  0.039
  3  0.123  0.000  0.007  0.130
  4  0.067  0.000  0.010  0.076
  5  0.009  0.029  0.000  0.038
  6  0.009  0.029  0.000  0.038
  7  0.009  0.029  0.000  0.038
  8  0.009  0.029  0.000  0.038
tot  0.264  0.115  0.083  0.462
 
band  46 # energy    8.92979759 # occ.  0.00000000
 
ion      s      p      d    tot
  1  0.000  0.007  0.013  0.020
  2  0.000  0.001  0.022  0.023
  3  0.000  0.021  0.006  0.026
  4  0.000  0.199  0.033  0.232
  5  0.004  0.051  0.000  0.055
  6  0.004  0.051  0.000  0.055
  7  0.001  0.029  0.000  0.030
  8  0.001  0.029  0.000  0.030
tot  0.009  0.389  0.073  0.470
 
band  47 # energy    8.92982269 # occ.  0.00000000
 
ion      s      p      d    tot
  1  0.000  0.007  0.013  0.020
  2  0.000  0.001  0.022  0.023
  3  0.000  0.021  0.006  0.026
  4  0.000  0.200  0.033  0.233
  5  0.001  0.029  0.000  0.030
  6  0.001  0.029  0.000  0.030
  7  0.004  0.051  0.000  0.055
  8  0.004  0.052  0.000  0.055
tot  0.009  0.389  0.073  0.471
 
band  48 # energy   10.22497152 # occ.  0.00000000
 
ion      s      p      d    tot
  1  0.002  0.029  0.006  0.036
  2  0.015  0.010  0.001  0.027
  3  0.000  0.096  0.004  0.099
  4  0.005  0.145  0.005  0.155
  5  0.000  0.011  0.000  0.011
  6  0.002  0.009  0.000  0.010
  7  0.000  0.008  0.000  0.008
  8  0.001  0.008  0.000  0.009
tot  0.025  0.316  0.016  0.357
 
band  49 # energy   10.44805083 # occ.  0.00000000
 
ion      s      p      d    tot
  1  0.000  0.008  0.011  0.019
  2  0.075  0.009  0.005  0.088
  3  0.008  0.034  0.007  0.049
  4  0.031  0.037  0.022  0.089
  5  0.010  0.017  0.000  0.027
  6  0.000  0.040  0.000  0.040
  7  0.004  0.025  0.000  0.028
  8  0.002  0.028  0.000  0.029
tot  0.129  0.197  0.044  0.370
 
band  50 # energy   10.52321348 # occ.  0.00000000
 
ion      s      p      d    tot
  1  0.006  0.017  0.017  0.041
  2  0.007  0.017  0.008  0.032
  3  0.012  0.058  0.012  0.082
  4  0.004  0.071  0.009  0.083
  5  0.002  0.010  0.000  0.012
  6  0.002  0.009  0.000  0.011
  7  0.002  0.030  0.000  0.032
  8  0.007  0.014  0.000  0.022
tot  0.041  0.227  0.046  0.314
 
band  51 # energy   10.94905814 # occ.  0.00000000
 
ion      s      p      d    tot
  1  0.006  0.011  0.010  0.026
  2  0.025  0.022  0.008  0.055
  3  0.016  0.057  0.006  0.079
  4  0.013  0.028  0.024  0.065
  5  0.001  0.035  0.000  0.036
  6  0.002  0.022  0.000  0.024
  7  0.003  0.009  0.000  0.012
  8  0.001  0.014  0.000  0.014
tot  0.067  0.197  0.048  0.312
 
band  52 # energy   11.67298118 # occ.  0.00000000
 
ion      s      p      d    tot
  1  0.063  0.018  0.006  0.087
  2  0.005  0.020  0.003  0.028
  3  0.067  0.017  0.010  0.093
  4  0.000  0.010  0.009  0.020
  5  0.007  0.037  0.000  0.044
  6  0.008  0.040  0.000  0.048
  7  0.001  0.023  0.000  0.023
  8  0.002  0.013  0.000  0.014
tot  0.152  0.177  0.029  0.357
 

 k-point    2 :    0.16666667 0.00000000 0.00000000     weight = 0.02777778

band   1 # energy  -68.51385782 # occ.  2.00000000
 
ion      s      p      d    tot
  1  0.000  0.000  0.000  0.000
  2  0.000  0.998  0.000  0.998
  3  0.000  0.000  0.000  0.000
  4  0.000  0.000  0.000  0.000
  5  0.000  0.000  0.000  0.000
  6  0.000  0.000  0.000  0.000
  7  0.000  0.000  0.000  0.000
  8  0.000  0.000  0.000  0.000
tot  0.000  0.998  0.000  0.998
 
band   2 # energy  -68.48043542 # occ.  2.00000000
 
ion      s      p      d    tot
  1  0.000  0.998  0.000  0.998
  2  0.000  0.000  0.000  0.000
  3  0.000  0.000  0.000  0.000
  4  0.000  0.000  0.000  0.000
  5  0.000  0.000  0.000  0.000
  6  0.000  0.000  0.000  0.000
  7  0.000  0.000  0.000  0.000
  8  0.000  0.000  0.000  0.000
tot  0.000  0.998  0.000  0.998
 
band   3 # energy  -68.48034006 # occ.  2.00000000
 
ion      s      p      d    tot
  1  0.000  0.997  0.000  0.997
  2  0.000  0.000  0.000  0.000
  3  0.000  0.000  0.000  0.000
  4  0.000  0.000  0.000  0.000
  5  0.000  0.000  0.000  0.000
  6  0.000  0.000  0.000  0.000
  7  0.000  0.000  0.000  0.000
  8  0.000  0.000  0.000  0.000
tot  0.000  0.998  0.000  0.998
 
band   4 # energy  -68.46121520 # occ.  2.00000000
 
ion      s      p      d    tot
  1  0.000  0.997  0.000  0.997
  2  0.000  0.000  0.000  0.000
  3  0.000  0.000  0.000  0.000
  4  0.000  0.000  0.000  0.000
  5  0.000  0.000  0.000  0.000
  6  0.000  0.000  0.000  0.000
  7  0.000  0.000  0.000  0.000
  8  0.000  0.000  0.000  0.000
tot  0.000  0.998  0.000  0.998
 
band   5 # energy  -68.45818865 # occ.  2.00000000
 
ion      s      p      d    tot
  1  0.000  0.000  0.000  0.000
  2  0.000  0.997  0.000  0.997
  3  0.000  0.000  0.000  0.000
  4  0.000  0.000  0.000  0.000
  5  0.000  0.000  0.000  0.000
  6  0.000  0.000  0.000  0.000
  7  0.000  0.000  0.000  0.000
  8  0.000  0.000  0.000  0.000
tot  0.000  0.998  0.000  0.998
 
band   6 # energy  -68.45809651 # occ.  2.00000000
 
ion      s      p      d    tot
  1  0.000  0.000  0.000  0.000
  2  0.000  0.997  0.000  0.997
  3  0.000  0.000  0.000  0.000
  4  0.000  0.000  0.000  0.000
  5  0.000  0.000  0.000  0.000
  6  0.000  0.000  0.000  0.000
  7  0.000  0.000  0.000  0.000
  8  0.000  0.000  0.000  0.000
tot  0.000  0.998  0.000  0.998
 
band   7 # energy  -20.16042021 # occ.  2.00000000
 
ion      s      p      d    tot
  1  0.000  0.000  0.000  0.000
  2  0.000  0.000  0.000  0.000
  3  0.000  0.000  0.000  0.000
  4  0.000  0.000  0.984  0.985
  5  0.001  0.000  0.000  0.001
  6  0.001  0.000  0.000  0.001
  7  0.001  0.000  0.000  0.001
  8  0.001  0.000  0.000  0.001
tot  0.003  0.002  0.984  0.989
 
band   8 # energy  -20.15648683 # occ.  2.00000000
 
ion      s      p      d    tot
  1  0.000  0.000  0.000  0.000
  2  0.000  0.000  0.000  0.000
  3  0.000  0.000  0.000  0.000
  4  0.000  0.000  0.984  0.985
  5  0.001  0.000  0.000  0.001
  6  0.001  0.000  0.000  0.001
  7  0.001  0.000  0.000  0.001
  8  0.001  0.000  0.000  0.001
tot  0.003  0.002  0.984  0.989
 
band   9 # energy  -20.15635472 # occ.  2.00000000
 
ion      s      p      d    tot
  1  0.000  0.000  0.000  0.000
  2  0.000  0.000  0.000  0.000
  3  0.000  0.000  0.000  0.000
  4  0.000  0.000  0.984  0.985
  5  0.001  0.000  0.000  0.001
  6  0.001  0.000  0.000  0.001
  7  0.001  0.000  0.000  0.001
  8  0.001  0.000  0.000  0.001
tot  0.003  0.002  0.984  0.989
 
band  10 # energy  -20.06259819 # occ.  2.00000000
 
ion      s      p      d    tot
  1  0.000  0.000  0.000  0.000
  2  0.000  0.000  0.000  0.000
  3  0.000  0.000  0.000  0.000
  4  0.000  0.000  0.991  0.991
  5  0.000  0.000  0.000  0.000
  6  0.000  0.000  0.000  0.000
  7  0.000  0.000  0.000  0.000
  8  0.000  0.000  0.000  0.000
tot  0.000  0.000  0.991  0.991
 
band  11 # energy  -20.05726827 # occ.  2.00000000
 
ion      s      p      d    tot
  1  0.000  0.000  0.000  0.000
  2  0.000  0.000  0.000  0.000
  3  0.000  0.000  0.000  0.000
  4  0.000  0.000  0.991  0.991
  5  0.000  0.000  0.000  0.000
  6  0.000  0.000  0.000  0.000
  7  0.000  0.000  0.000  0.000
  8  0.000  0.000  0.000  0.000
tot  0.000  0.000  0.991  0.991
 
band  12 # energy  -11.62181570 # occ.  2.00000000
 
ion      s      p      d    tot
  1  0.007  0.000  0.000  0.008
  2  0.007  0.000  0.000  0.008
  3  0.021  0.001  0.001  0.022
  4  0.086  0.001  0.000  0.087
  5  0.133  0.001  0.000  0.134
  6  0.129  0.001  0.000  0.130
  7  0.128  0.001  0.000  0.129
  8  0.133  0.001  0.000  0.134
tot  0.645  0.005  0.001  0.651
 
band  13 # energy  -10.15406376 # occ.  2.00000000
 
ion      s      p      d    tot
  1  0.000  0.003  0.004  0.007
  2  0.001  0.002  0.004  0.007
  3  0.001  0.008  0.015  0.025
  4  0.006  0.021  0.010  0.036
  5  0.062  0.000  0.000  0.062
  6  0.237  0.000  0.000  0.237
  7  0.267  0.000  0.000  0.267
  8  0.072  0.000  0.000  0.073
tot  0.647  0.035  0.033  0.714
 
band  14 # energy  -10.11037030 # occ.  2.00000000
 
ion      s      p      d    tot
  1  0.001  0.003  0.004  0.007
  2  0.000  0.003  0.004  0.007
  3  0.002  0.008  0.015  0.025
  4  0.001  0.021  0.010  0.032
  5  0.185  0.000  0.000  0.185
  6  0.177  0.000  0.000  0.177
  7  0.188  0.000  0.000  0.188
  8  0.096  0.000  0.000  0.096
tot  0.648  0.035  0.034  0.716
 
band  15 # energy  -10.09584711 # occ.  2.00000000
 
ion      s      p      d    tot
  1  0.000  0.003  0.004  0.007
  2  0.001  0.003  0.004  0.007
  3  0.000  0.008  0.016  0.025
  4  0.000  0.022  0.010  0.032
  5  0.234  0.000  0.000  0.234
  6  0.069  0.000  0.000  0.070
  7  0.029  0.000  0.000  0.030
  8  0.312  0.000  0.000  0.312
tot  0.646  0.037  0.034  0.717
 
band  16 # energy   -4.77410954 # occ.  2.00000000
 
ion      s      p      d    tot
  1  0.002  0.000  0.001  0.003
  2  0.000  0.000  0.002  0.002
  3  0.007  0.001  0.673  0.681
  4  0.108  0.001  0.000  0.109
  5  0.003  0.018  0.000  0.020
  6  0.003  0.017  0.000  0.020
  7  0.003  0.021  0.000  0.024
  8  0.003  0.012  0.000  0.016
tot  0.128  0.071  0.676  0.875
 
band  17 # energy   -4.62185219 # occ.  2.00000000
 
ion      s      p      d    tot
  1  0.000  0.000  0.001  0.001
  2  0.000  0.000  0.001  0.001
  3  0.000  0.000  0.919  0.919
  4  0.001  0.002  0.001  0.003
  5  0.000  0.002  0.000  0.002
  6  0.003  0.007  0.000  0.011
  7  0.000  0.001  0.000  0.002
  8  0.004  0.011  0.000  0.015
tot  0.009  0.024  0.921  0.954
 
band  18 # energy   -4.60931461 # occ.  2.00000000
 
ion      s      p      d    tot
  1  0.000  0.000  0.001  0.001
  2  0.000  0.000  0.001  0.001
  3  0.000  0.000  0.920  0.920
  4  0.002  0.002  0.000  0.004
  5  0.005  0.009  0.000  0.014
  6  0.001  0.006  0.000  0.006
  7  0.000  0.001  0.000  0.001
  8  0.001  0.005  0.000  0.007
tot  0.010  0.024  0.922  0.955
 
band  19 # energy   -4.58841668 # occ.  2.00000000
 
ion      s      p      d    tot
  1  0.001  0.000  0.000  0.001
  2  0.000  0.000  0.001  0.001
  3  0.000  0.000  0.917  0.917
  4  0.005  0.001  0.000  0.006
  5  0.001  0.004  0.000  0.004
  6  0.002  0.003  0.000  0.005
  7  0.004  0.008  0.000  0.012
  8  0.001  0.003  0.000  0.004
tot  0.012  0.019  0.919  0.950
 
band  20 # energy   -4.58224397 # occ.  2.00000000
 
ion      s      p      d    tot
  1  0.000  0.000  0.000  0.001
  2  0.000  0.000  0.000  0.001
  3  0.000  0.000  0.936  0.937
  4  0.001  0.001  0.000  0.002
  5  0.000  0.003  0.000  0.004
  6  0.001  0.003  0.000  0.004
  7  0.000  0.003  0.000  0.003
  8  0.000  0.003  0.000  0.003
tot  0.002  0.014  0.937  0.954
 
band  21 # energy   -4.14429362 # occ.  2.00000000
 
ion      s      p      d    tot
  1  0.004  0.000  0.002  0.006
  2  0.004  0.000  0.005  0.010
  3  0.020  0.001  0.288  0.309
  4  0.285  0.001  0.000  0.286
  5  0.009  0.033  0.000  0.042
  6  0.009  0.031  0.000  0.039
  7  0.013  0.033  0.000  0.045
  8  0.008  0.036  0.000  0.044
tot  0.352  0.134  0.295  0.781
 
band  22 # energy   -1.92923708 # occ.  2.00000000
 
ion      s      p      d    tot
  1  0.011  0.000  0.019  0.030
  2  0.023  0.001  0.008  0.031
  3  0.148  0.001  0.003  0.153
  4  0.008  0.015  0.003  0.025
  5  0.003  0.079  0.000  0.082
  6  0.003  0.077  0.000  0.080
  7  0.001  0.073  0.000  0.074
  8  0.002  0.075  0.000  0.077
tot  0.198  0.322  0.033  0.552
 
band  23 # energy   -1.37201420 # occ.  2.00000000
 
ion      s      p      d    tot
  1  0.032  0.001  0.027  0.059
  2  0.025  0.004  0.012  0.041
  3  0.004  0.007  0.022  0.032
  4  0.001  0.056  0.004  0.061
  5  0.001  0.073  0.000  0.074
  6  0.000  0.072  0.000  0.073
  7  0.001  0.100  0.000  0.101
  8  0.001  0.081  0.000  0.081
tot  0.064  0.395  0.064  0.523
 
band  24 # energy   -1.17767183 # occ.  2.00000000
 
ion      s      p      d    tot
  1  0.019  0.003  0.037  0.059
  2  0.010  0.006  0.036  0.053
  3  0.004  0.006  0.029  0.039
  4  0.000  0.071  0.004  0.076
  5  0.001  0.100  0.000  0.101
  6  0.000  0.083  0.000  0.083
  7  0.000  0.044  0.000  0.044
  8  0.002  0.098  0.000  0.099
tot  0.036  0.411  0.106  0.553
 
band  25 # energy   -0.84266532 # occ.  2.00000000
 
ion      s      p      d    tot
  1  0.005  0.008  0.051  0.063
  2  0.008  0.002  0.060  0.070
  3  0.003  0.019  0.007  0.030
  4  0.001  0.065  0.005  0.070
  5  0.000  0.074  0.000  0.074
  6  0.001  0.096  0.000  0.096
  7  0.002  0.109  0.000  0.111
  8  0.000  0.054  0.000  0.054
tot  0.020  0.426  0.123  0.569
 
band  26 # energy   -0.46552747 # occ.  2.00000000
 
ion      s      p      d    tot
  1  0.005  0.006  0.046  0.057
  2  0.006  0.001  0.034  0.040
  3  0.005  0.016  0.006  0.027
  4  0.000  0.119  0.007  0.125
  5  0.001  0.102  0.000  0.102
  6  0.001  0.085  0.000  0.086
  7  0.001  0.077  0.000  0.078
  8  0.001  0.092  0.000  0.093
tot  0.019  0.496  0.092  0.608
 
band  27 # energy   -0.39053288 # occ.  2.00000000
 
ion      s      p      d    tot
  1  0.001  0.007  0.117  0.124
  2  0.005  0.001  0.071  0.077
  3  0.002  0.018  0.004  0.024
  4  0.000  0.063  0.008  0.071
  5  0.000  0.063  0.000  0.063
  6  0.001  0.101  0.000  0.102
  7  0.000  0.086  0.000  0.086
  8  0.001  0.085  0.000  0.086
tot  0.010  0.423  0.199  0.632
 
band  28 # energy   -0.10721031 # occ.  2.00000000
 
ion      s      p      d    tot
  1  0.001  0.006  0.124  0.131