 running on   96 total cores
 distrk:  each k-point on   24 cores,    4 groups
 distr:  one band on    6 cores,    4 groups
 using from now: INCAR     
 vasp.5.4.1 24Jun15 (build Nov 25 2015 16:01:35) complex                        
  
 POSCAR found type information on POSCAR  Cu Zn Sn S 
 POSCAR found :  4 types and       8 ions
 scaLAPACK will be used

 ----------------------------------------------------------------------------- 
|                                                                             |
|           W    W    AA    RRRRR   N    N  II  N    N   GGGG   !!!           |
|           W    W   A  A   R    R  NN   N  II  NN   N  G    G  !!!           |
|           W    W  A    A  R    R  N N  N  II  N N  N  G       !!!           |
|           W WW W  AAAAAA  RRRRR   N  N N  II  N  N N  G  GGG   !            |
|           WW  WW  A    A  R   R   N   NN  II  N   NN  G    G                |
|           W    W  A    A  R    R  N    N  II  N    N   GGGG   !!!           |
|                                                                             |
|      You have enabled k-point parallelism (KPAR>1).                         |
|      This developmental code was originally  written by Paul Kent at ORNL,  |
|      and carefully double checked in Vienna.                                |
|      GW as well as linear response parallelism added by Martijn Marsman     |
|      and Georg Kresse.                                                      |
|      Carefully verify results versus KPAR=1.                                |
|      Report problems to Paul Kent and Vienna.                               |
|                                                                             |
 ----------------------------------------------------------------------------- 


 ----------------------------------------------------------------------------- 
|                                                                             |
|           W    W    AA    RRRRR   N    N  II  N    N   GGGG   !!!           |
|           W    W   A  A   R    R  NN   N  II  NN   N  G    G  !!!           |
|           W    W  A    A  R    R  N N  N  II  N N  N  G       !!!           |
|           W WW W  AAAAAA  RRRRR   N  N N  II  N  N N  G  GGG   !            |
|           WW  WW  A    A  R   R   N   NN  II  N   NN  G    G                |
|           W    W  A    A  R    R  N    N  II  N    N   GGGG   !!!           |
|                                                                             |
|      You have selected ISYM=2 for HF type calculation. This will symmetrize |
|      the charge density but not the exchange potential.                     |
|      I suggest to use ISYM=3 instead. This uses symmetry to obtain          |
|      the orbitals at all k-points in the Brillouine zone, but does not      |
|      apply symmetry to the Hartree potential directly.                      |
|      The resultant charge might have lower symmetry than the crystal,       |
|      but at least, Hartree and exchange are fully compatible.               |
|                                                                             |
 ----------------------------------------------------------------------------- 

 LDA part: xc-table for Pade appr. of Perdew

 ----------------------------------------------------------------------------- 
|                                                                             |
|           W    W    AA    RRRRR   N    N  II  N    N   GGGG   !!!           |
|           W    W   A  A   R    R  NN   N  II  NN   N  G    G  !!!           |
|           W    W  A    A  R    R  N N  N  II  N N  N  G       !!!           |
|           W WW W  AAAAAA  RRRRR   N  N N  II  N  N N  G  GGG   !            |
|           WW  WW  A    A  R   R   N   NN  II  N   NN  G    G                |
|           W    W  A    A  R    R  N    N  II  N    N   GGGG   !!!           |
|                                                                             |
|      Your generating k-point grid is not commensurate to the symmetry       |
|      of the lattice.  This can cause   slow convergence with respect        |
|      to k-points for HF type calculations                                   |
|      suggested SOLUTIONS:                                                   |
|       ) if not already the case, use automatic k-point generation           |
|       ) shift your grid to Gamma (G) (e.g. required for hex or fcc lattice) |
|                                                                             |
 ----------------------------------------------------------------------------- 

 POSCAR, INCAR and KPOINTS ok, starting setup
 WARNING: small aliasing (wrap around) errors must be expected
 FFT: planning ...
 WAVECAR not read
 WARNING: random wavefunctions but no delay for mixing, default for NELMDL
 entering main loop
       N       E                     dE             d eps       ncg     rms          ort
DAV:   1     0.485591482106E+04    0.48559E+04   -0.15913E+05  6396   0.709E+03
DAV:   2     0.132669061432E+04   -0.35292E+04   -0.34528E+04  6396   0.210E+03
DAV:   3     0.383845933363E+03   -0.94284E+03   -0.91565E+03  6396   0.502E+02
DAV:   4     0.208804594945E+03   -0.17504E+03   -0.16548E+03  6396   0.206E+02
DAV:   5     0.188948787486E+03   -0.19856E+02   -0.18970E+02  6396   0.650E+01
 gam= 0.000 g(H,U,f)=  0.190E+04 0.298E+04 0.229E+02 ort(H,U,f) = 0.000E+00 0.000E+00 0.000E+00
SDA:   6     0.184092131652E+03   -0.48567E+01   -0.18970E+02  6396   0.491E+04 0.000E+00
 gam= 0.000 trial= 0.400  step= 0.194 mean= 0.400
 gam= 0.081 g(H,U,f)=  0.357E+03 0.404E+02 0.891E-22 ort(H,U,f) =-0.784E+03-0.116E+03 0.313E-21
CGA:   7     0.758699259580E+01   -0.17651E+03   -0.47524E+03  6396   0.398E+03-0.900E+03
 gam= 0.081 trial= 0.390  step= 0.219 mean= 0.390
 gam= 0.056 g(H,U,f)=  0.206E+02 0.156E+01 0.111E-09 ort(H,U,f) = 0.232E+02-0.455E+01 0.947E-09
CGA:   8    -0.314928399344E+02   -0.39080E+02   -0.35607E+02  6396   0.222E+02 0.187E+02
 gam= 0.056 trial= 0.381  step= 0.281 mean= 0.381
 gam= 0.565 g(H,U,f)=  0.691E+01 0.562E+01 0.137E-10 ort(H,U,f) =-0.205E+01 0.188E+01-0.946E-11
CGA:   9    -0.347977683608E+02   -0.33049E+01   -0.32667E+01  6396   0.125E+02-0.171E+00
 gam= 0.565 trial= 0.376  step= 0.399 mean= 0.376
 gam= 0.349 g(H,U,f)=  0.342E+01 0.949E+00 0.683E-93 ort(H,U,f) =-0.151E+01 0.218E+01 0.173E-92
CGA:  10    -0.372961852367E+02   -0.24984E+01   -0.24838E+01  6396   0.437E+01 0.667E+00
 gam= 0.349 trial= 0.377  step= 0.303 mean= 0.377
 gam= 0.301 g(H,U,f)=  0.112E+01 0.194E+00 0.137E-97 ort(H,U,f) =-0.529E+00 0.587E+00 0.509E-97
CGA:  11    -0.379846641575E+02   -0.68848E+00   -0.69755E+00  6396   0.131E+01 0.579E-01
 gam= 0.301 trial= 0.374  step= 0.545 mean= 0.374
 gam= 0.594 g(H,U,f)=  0.725E+00 0.560E-01 0.247E-56 ort(H,U,f) =-0.170E+00 0.177E+00 0.874E-56
CGA:  12    -0.383487420073E+02   -0.36408E+00   -0.36318E+00  6396   0.781E+00 0.732E-02
 gam= 0.594 trial= 0.382  step= 0.397 mean= 0.382
 gam= 0.269 g(H,U,f)=  0.188E+00 0.224E-01 0.197-289 ort(H,U,f) =-0.989E-01 0.971E-01 0.980-289
CGA:  13    -0.385045762003E+02   -0.15583E+00   -0.15585E+00  6396   0.210E+00-0.176E-02
 gam= 0.269 trial= 0.383  step= 0.453 mean= 0.383
 gam= 0.474 g(H,U,f)=  0.902E-01 0.930E-02 0.413E-36 ort(H,U,f) =-0.184E-01 0.189E-01 0.354E-35
CGA:  14    -0.385520906276E+02   -0.47514E-01   -0.47484E-01  6396   0.995E-01 0.538E-03
 gam= 0.474 trial= 0.386  step= 0.465 mean= 0.386
 gam= 0.309 g(H,U,f)=  0.283E-01 0.242E-02 0.268E-42 ort(H,U,f) =-0.104E-01 0.103E-01 0.254E-41
CGA:  15    -0.385752796238E+02   -0.23189E-01   -0.23194E-01  6396   0.308E-01-0.121E-03
 gam= 0.309 trial= 0.390  step= 0.454 mean= 0.390
 gam= 0.328 g(H,U,f)=  0.878E-02 0.130E-02 0.272E-29 ort(H,U,f) =-0.287E-02 0.290E-02-0.436E-28
CGA:  16    -0.385822621556E+02   -0.69825E-02   -0.69815E-02  6396   0.101E-01 0.290E-04
 gam= 0.328 trial= 0.394  step= 0.532 mean= 0.394
 gam= 0.358 g(H,U,f)=  0.329E-02 0.313E-03 0.438-305 ort(H,U,f) =-0.105E-02 0.107E-02-0.303-304
CGA:  17    -0.385849454586E+02   -0.26833E-02   -0.26824E-02  6396   0.360E-02 0.148E-04
 gam= 0.358 trial= 0.400  step= 0.565 mean= 0.400
 gam= 0.342 g(H,U,f)=  0.111E-02 0.124E-03 0.327-213 ort(H,U,f) =-0.339E-03 0.327E-03-0.249-213
CGA:  18    -0.385859650879E+02   -0.10196E-02   -0.10207E-02  6396   0.123E-02-0.126E-04
 gam= 0.342 trial= 0.409  step= 0.562 mean= 0.409
 gam= 0.299 g(H,U,f)=  0.346E-03 0.230E-04 0.775-143 ort(H,U,f) =-0.902E-04 0.910E-04 0.846-143
CGA:  19    -0.385863100551E+02   -0.34497E-03   -0.34493E-03  6396   0.369E-03 0.752E-06
 gam= 0.299 trial= 0.416  step= 0.544 mean= 0.416
 gam= 0.324 g(H,U,f)=  0.111E-03 0.831E-05 0.119E-95 ort(H,U,f) =-0.233E-04 0.257E-04 0.194E-95
CGA:  20    -0.385864106779E+02   -0.10062E-03   -0.10048E-03  6396   0.120E-03 0.239E-05
 gam= 0.324 trial= 0.423  step= 0.496 mean= 0.423
 gam= 0.285 g(H,U,f)=  0.313E-04 0.285E-05 0.718E-65 ort(H,U,f) =-0.393E-05 0.639E-05 0.222E-64
CGA:  21    -0.385864406203E+02   -0.29942E-04   -0.29853E-04  6396   0.342E-04 0.246E-05
 gam= 0.285 trial= 0.426  step= 0.528 mean= 0.426
 gam= 0.352 g(H,U,f)=  0.108E-04 0.126E-05 0.166E-42 ort(H,U,f) =-0.915E-06 0.299E-05 0.403E-42
CGA:  22    -0.385864499244E+02   -0.93041E-05   -0.91993E-05  6396   0.120E-04 0.208E-05
 gam= 0.352 trial= 0.431  step= 0.623 mean= 0.431
 gam= 0.467 g(H,U,f)=  0.501E-05 0.604E-06 0.984E-92 ort(H,U,f) =-0.166E-05 0.711E-06 0.808E-91
CGA:  23    -0.385864538053E+02   -0.38809E-05   -0.39721E-05  6396   0.562E-05-0.952E-06
 gam= 0.467 trial= 0.441  step= 0.465 mean= 0.441
 gam= 0.398 g(H,U,f)=  0.211E-05 0.119E-06 0.111E-68 ort(H,U,f) = 0.187E-06 0.385E-06 0.502E-68
CGA:  24    -0.385864550149E+02   -0.12097E-05   -0.12028E-05  6396   0.223E-05 0.572E-06
 gam= 0.398 trial= 0.442  step= 0.496 mean= 0.442
 gam= 0.343 g(H,U,f)=  0.729E-06 0.385E-07 0.107E-51 ort(H,U,f) = 0.822E-07 0.993E-07 0.111E-50
CGA:  25    -0.385864556298E+02   -0.61489E-06   -0.61010E-06  6396   0.767E-06 0.181E-06
 gam= 0.343 trial= 0.445  step= 0.569 mean= 0.445
   1 F= -.38586456E+02 E0= -.38586456E+02  d E =-.486551E-34
 writing wavefunctions
Application 21643074 resources: utime ~5124395s, stime ~7570s, Rss ~285876, inblocks ~857495, outblocks ~1240418
