 running on  672 total cores
 distrk:  each k-point on   96 cores,    7 groups
 distr:  one band on   24 cores,    4 groups
 using from now: INCAR     
 vasp.5.4.1 05Feb16 (build Jun 25 2016 17:05:53) complex                        
  
 POSCAR found type information on POSCAR  C  N  H  Pb I 
 POSCAR found :  5 types and      96 ions
 scaLAPACK will be used

 ----------------------------------------------------------------------------- 
|                                                                             |
|           W    W    AA    RRRRR   N    N  II  N    N   GGGG   !!!           |
|           W    W   A  A   R    R  NN   N  II  NN   N  G    G  !!!           |
|           W    W  A    A  R    R  N N  N  II  N N  N  G       !!!           |
|           W WW W  AAAAAA  RRRRR   N  N N  II  N  N N  G  GGG   !            |
|           WW  WW  A    A  R   R   N   NN  II  N   NN  G    G                |
|           W    W  A    A  R    R  N    N  II  N    N   GGGG   !!!           |
|                                                                             |
|      You have enabled k-point parallelism (KPAR>1).                         |
|      This developmental code was originally  written by Paul Kent at ORNL,  |
|      and carefully double checked in Vienna.                                |
|      GW as well as linear response parallelism added by Martijn Marsman     |
|      and Georg Kresse.                                                      |
|      Carefully verify results versus KPAR=1.                                |
|      Report problems to Paul Kent and Vienna.                               |
|                                                                             |
 ----------------------------------------------------------------------------- 


 ----------------------------------------------------------------------------- 
|                                                                             |
|  ADVICE TO THIS USER RUNNING 'VASP/VAMP'   (HEAR YOUR MASTER'S VOICE ...):  |
|                                                                             |
|      You have a (more or less) 'large supercell' and for larger cells       |
|      it might be more efficient to use real space projection opertators     |
|      So try LREAL= Auto  in the INCAR   file.                               |
|      Mind: At the moment your POTCAR file does not contain real space       |
|       projectors, and has to be modified,  BUT if you                       |
|      want to do an extremely  accurate calculation you might also keep the  |
|      reciprocal projection scheme          (i.e. LREAL=.FALSE.)             |
|                                                                             |
 ----------------------------------------------------------------------------- 

 LDA part: xc-table for Pade appr. of Perdew
 POSCAR, INCAR and KPOINTS ok, starting setup
 WARNING: small aliasing (wrap around) errors must be expected
 FFT: planning ...
 WAVECAR not read
 entering main loop
       N       E                     dE             d eps       ncg     rms          ort
DAV:   1     0.393013771515E+05    0.39301E+05   -0.10863E+06  3528   0.494E+03
DAV:   2     0.964542262373E+04   -0.29656E+05   -0.29045E+05  3528   0.168E+03
DAV:   3     0.215407787561E+04   -0.74913E+04   -0.73085E+04  3528   0.534E+02
DAV:   4     0.495013947498E+03   -0.16591E+04   -0.15854E+04  3528   0.223E+02
DAV:   5     0.276240824380E+03   -0.21877E+03   -0.21494E+03  3528   0.863E+01
 gam= 0.000 g(H,U,f)=  0.120E+03 0.506E+01 0.000E+00 ort(H,U,f) = 0.000E+00 0.000E+00 0.000E+00
SDA:   6    -0.444726481576E+03   -0.72097E+03   -0.21494E+03  3528   0.125E+03 0.000E+00
 gam= 0.000 trial= 0.400  step= 0.345 mean= 0.400
 gam= 0.358 g(H,U,f)=  0.431E+02 0.157E+01 0.102-117 ort(H,U,f) =-0.168E+01 0.247E+01 0.154-117
CGA:   7    -0.466167730131E+03   -0.21441E+02   -0.21510E+02  3528   0.447E+02 0.797E+00
 gam= 0.358 trial= 0.397  step= 0.384 mean= 0.397
 gam= 0.208 g(H,U,f)=  0.894E+01 0.372E+00 0.000E+00 ort(H,U,f) =-0.906E+00 0.892E+00 0.000E+00
CGA:   8    -0.474794982449E+03   -0.86273E+01   -0.86277E+01  3528   0.931E+01-0.140E-01
 gam= 0.208 trial= 0.397  step= 0.658 mean= 0.397
 gam= 0.323 g(H,U,f)=  0.286E+01 0.146E+00 0.151E-86 ort(H,U,f) =-0.325E+00 0.314E+00 0.328E-86
CGA:   9    -0.477858012948E+03   -0.30630E+01   -0.30630E+01  3528   0.300E+01-0.113E-01
 gam= 0.323 trial= 0.410  step= 0.626 mean= 0.410
 gam= 0.378 g(H,U,f)=  0.109E+01 0.461E-01 0.000E+00 ort(H,U,f) =-0.136E+00 0.127E+00 0.000E+00
CGA:  10    -0.478796442597E+03   -0.93843E+00   -0.93937E+00  3528   0.113E+01-0.941E-02
 gam= 0.378 trial= 0.420  step= 0.435 mean= 0.420
 gam= 0.396 g(H,U,f)=  0.429E+00 0.200E-01 0.000E+00 ort(H,U,f) =-0.570E-01 0.551E-01 0.000E+00
CGA:  11    -0.479042443186E+03   -0.24600E+00   -0.24602E+00  3528   0.449E+00-0.189E-02
 gam= 0.396 trial= 0.421  step= 0.570 mean= 0.421
 gam= 0.255 g(H,U,f)=  0.110E+00 0.436E-02 0.278E-66 ort(H,U,f) =-0.192E-01 0.173E-01 0.153E-65
CGA:  12    -0.479170167441E+03   -0.12772E+00   -0.12787E+00  3528   0.114E+00-0.183E-02
 gam= 0.255 trial= 0.429  step= 0.695 mean= 0.429
 gam= 0.310 g(H,U,f)=  0.345E-01 0.973E-03 0.220-100 ort(H,U,f) =-0.433E-02 0.383E-02 0.150E-99
CGA:  13    -0.479209692476E+03   -0.39525E-01   -0.39597E-01  3528   0.355E-01-0.496E-03
 gam= 0.310 trial= 0.442  step= 0.621 mean= 0.442
 gam= 0.450 g(H,U,f)=  0.157E-01 0.304E-03 0.000E+00 ort(H,U,f) =-0.100E-02 0.102E-02 0.000E+00
CGA:  14    -0.479220676262E+03   -0.10984E-01   -0.10984E-01  3528   0.160E-01 0.181E-04
 gam= 0.450 trial= 0.451  step= 0.431 mean= 0.451
 gam= 0.407 g(H,U,f)=  0.641E-02 0.861E-04 0.000E+00 ort(H,U,f) =-0.524E-03 0.261E-03 0.000E+00
CGA:  15    -0.479224124178E+03   -0.34479E-02   -0.34453E-02  3528   0.650E-02-0.263E-03
 gam= 0.407 trial= 0.450  step= 0.567 mean= 0.450
 gam= 0.321 g(H,U,f)=  0.206E-02 0.301E-04 0.000E+00 ort(H,U,f) =-0.212E-04 0.513E-04 0.000E+00
CGA:  16    -0.479225936929E+03   -0.18128E-02   -0.18111E-02  3528   0.209E-02 0.301E-04
 gam= 0.321 trial= 0.456  step= 0.744 mean= 0.456
 gam= 0.393 g(H,U,f)=  0.804E-03 0.143E-04 0.113-212 ort(H,U,f) =-0.581E-04 0.330E-05-0.204-213
CGA:  17    -0.479226708623E+03   -0.77169E-03   -0.77964E-03  3528   0.819E-03-0.548E-04
 gam= 0.393 trial= 0.470  step= 0.643 mean= 0.470
 gam= 0.394 g(H,U,f)=  0.315E-03 0.746E-05 0.000E+00 ort(H,U,f) = 0.133E-04 0.521E-05 0.000E+00
CGA:  18    -0.479226966351E+03   -0.25773E-03   -0.25615E-03  3528   0.322E-03 0.185E-04
 gam= 0.394 trial= 0.479  step= 0.610 mean= 0.479
 gam= 0.519 g(H,U,f)=  0.163E-03 0.475E-05 0.000E+00 ort(H,U,f) =-0.222E-04 0.580E-05 0.000E+00
CGA:  19    -0.479227065793E+03   -0.99442E-04   -0.10052E-03  3528   0.167E-03-0.164E-04
 gam= 0.519 trial= 0.485  step= 0.405 mean= 0.485
 gam= 0.336 g(H,U,f)=  0.542E-04 0.208E-05 0.000E+00 ort(H,U,f) = 0.131E-04 0.446E-05 0.000E+00
CGA:  20    -0.479227097232E+03   -0.31439E-04   -0.32151E-04  3528   0.563E-04 0.176E-04
 gam= 0.336 trial= 0.481  step= 0.701 mean= 0.481
 gam= 0.444 g(H,U,f)=  0.243E-04 0.666E-06 0.000E+00 ort(H,U,f) =-0.514E-05 0.173E-05 0.000E+00
CGA:  21    -0.479227118652E+03   -0.21420E-04   -0.21795E-04  3528   0.250E-04-0.341E-05
 gam= 0.444 trial= 0.492  step= 0.821 mean= 0.492
 gam= 0.683 g(H,U,f)=  0.169E-04 0.113E-06 0.000E+00 ort(H,U,f) =-0.557E-05 0.359E-06 0.000E+00
CGA:  22    -0.479227127436E+03   -0.87837E-05   -0.96415E-05  3528   0.171E-04-0.522E-05
 gam= 0.683 trial= 0.509  step= 0.301 mean= 0.509
 gam= 0.377 g(H,U,f)=  0.638E-05 0.530E-07 0.796-201 ort(H,U,f) = 0.325E-05 0.272E-07-0.454-200
CGA:  23    -0.479227129130E+03   -0.16941E-05   -0.20342E-05  3528   0.644E-05 0.328E-05
 gam= 0.377 trial= 0.498  step= 0.341 mean= 0.498
 gam= 0.449 g(H,U,f)=  0.284E-05 0.556E-07 0.330E-98 ort(H,U,f) = 0.131E-05 0.546E-08-0.302E-98
CGA:  24    -0.479227130335E+03   -0.12049E-05   -0.13083E-05  3528   0.289E-05 0.131E-05
 gam= 0.449 trial= 0.491  step= 0.969 mean= 0.491
 gam= 0.000 g(H,U,f)=  0.740E-05 0.325E-07 0.000E+00 ort(H,U,f) =-0.426E-05-0.376E-08 0.000E+00
CGA:  25    -0.479227131000E+03   -0.66585E-06   -0.16861E-05  3528   0.743E-05-0.427E-05
 gam= 0.000 trial= 0.514  step= 0.276 mean= 0.514
 gam= 0.148 g(H,U,f)=  0.108E-05 0.215E-07 0.000E+00 ort(H,U,f) = 0.187E-05 0.199E-07 0.000E+00
CGA:  26    -0.479227131801E+03   -0.80083E-06   -0.10260E-05  3528   0.110E-05 0.189E-05
 gam= 0.148 trial= 0.503  step= 0.600 mean= 0.503
 gam= 0.465 g(H,U,f)=  0.501E-06 0.118E-07 0.000E+00 ort(H,U,f) =-0.325E-06 0.170E-07 0.000E+00
CGA:  27    -0.479227132201E+03   -0.39928E-06   -0.41429E-06  3528   0.512E-06-0.308E-06
 gam= 0.465 trial= 0.507  step=-0.563 mean= 0.507
 BOPT < 0, no correction made
 gam= 0.530 g(H,U,f)=  0.268E-06 0.385E-08 0.000E+00 ort(H,U,f) =-0.759E-07 0.110E-07 0.000E+00
CGA:  28    -0.479227132472E+03   -0.27156E-06    0.10383E-06  3528   0.272E-06-0.649E-07
 gam= 0.530 trial= 0.507  step= 0.357 mean= 0.507
 gam= 0.528 g(H,U,f)=  0.142E-06 0.168E-08 0.000E+00 ort(H,U,f) = 0.588E-07 0.628E-08 0.000E+00
CGA:  29    -0.479227132510E+03   -0.37471E-07   -0.42402E-07  3528   0.143E-06 0.651E-07
 gam= 0.528 trial= 0.500  step= 0.145 mean= 0.500
 gam= 0.000 g(H,U,f)=  0.818E-07 0.120E-08 0.000E+00 ort(H,U,f) = 0.113E-06 0.426E-08 0.000E+00
CGA:  30    -0.479227132502E+03    0.78217E-08   -0.12905E-07  3528   0.830E-07 0.117E-06
 gam= 0.000 trial= 0.482  step= 0.214 mean= 0.482
   1 F= -.47922713E+03 E0= -.47922713E+03  d E =0.000000E+00
Application 4208539 resources: utime ~24862654s, stime ~41547s, Rss ~454560, inblocks ~15359755, outblocks ~5738606
