  96  96   0   0
  0.2080188E+02  0.1257760E-08  0.1245754E-08  0.1274818E-08  0.5000000E-15
  1.000000000000000E-004
  CAR 
 MAPbI3-Cubic                            
      9.83334518    -22.13228555  301      1.04279673      1.00000000
    -22.132  0.0000E+00  0.0000E+00
    -22.026  0.0000E+00  0.0000E+00
    -21.919  0.0000E+00  0.0000E+00
    -21.813  0.0000E+00  0.0000E+00
    -21.706  0.0000E+00  0.0000E+00
    -21.600  0.0000E+00  0.0000E+00
    -21.493  0.0000E+00  0.0000E+00
    -21.386  0.0000E+00  0.0000E+00
    -21.280  0.0000E+00  0.0000E+00
    -21.173  0.0000E+00  0.0000E+00
    -21.067  0.0000E+00  0.0000E+00
    -20.960  0.0000E+00  0.0000E+00
    -20.854  0.0000E+00  0.0000E+00
    -20.747  0.0000E+00  0.0000E+00
    -20.641  0.5333E-05  0.8000E+01
    -20.534  0.0000E+00  0.1600E+02
    -20.427  0.0000E+00  0.1600E+02
    -20.321  0.0000E+00  0.1600E+02
    -20.214  0.0000E+00  0.1600E+02
    -20.108  0.0000E+00  0.1600E+02
    -20.001  0.0000E+00  0.1600E+02
    -19.895  0.0000E+00  0.1600E+02
    -19.788  0.0000E+00  0.1600E+02
    -19.682  0.0000E+00  0.1600E+02
    -19.575  0.0000E+00  0.1600E+02
    -19.468  0.0000E+00  0.1600E+02
    -19.362  0.0000E+00  0.1600E+02
    -19.255  0.0000E+00  0.1600E+02
    -19.149  0.0000E+00  0.1600E+02
    -19.042  0.0000E+00  0.1600E+02
    -18.936  0.0000E+00  0.1600E+02
    -18.829  0.0000E+00  0.1600E+02
    -18.723  0.0000E+00  0.1600E+02
    -18.616  0.0000E+00  0.1600E+02
    -18.510  0.0000E+00  0.1600E+02
    -18.403  0.0000E+00  0.1600E+02
    -18.296  0.0000E+00  0.1600E+02
    -18.190  0.0000E+00  0.1600E+02
    -18.083  0.0000E+00  0.1600E+02
    -17.977  0.0000E+00  0.1600E+02
    -17.870  0.0000E+00  0.1600E+02
    -17.764  0.0000E+00  0.1600E+02
    -17.657  0.0000E+00  0.1600E+02
    -17.551  0.0000E+00  0.1600E+02
    -17.444  0.0000E+00  0.1600E+02
    -17.337  0.0000E+00  0.1600E+02
    -17.231  0.9065E+02  0.4344E+02
    -17.124  0.0000E+00  0.9600E+02
    -17.018  0.0000E+00  0.9600E+02
    -16.911  0.0000E+00  0.9600E+02
    -16.805  0.0000E+00  0.9600E+02
    -16.698  0.0000E+00  0.9600E+02
    -16.592  0.0000E+00  0.9600E+02
    -16.485  0.0000E+00  0.9600E+02
    -16.378  0.0000E+00  0.9600E+02
    -16.272  0.0000E+00  0.9600E+02
    -16.165  0.0000E+00  0.9600E+02
    -16.059  0.0000E+00  0.9600E+02
    -15.952  0.0000E+00  0.9600E+02
    -15.846  0.0000E+00  0.9600E+02
    -15.739  0.0000E+00  0.9600E+02
    -15.633  0.0000E+00  0.9600E+02
    -15.526  0.0000E+00  0.9600E+02
    -15.420  0.0000E+00  0.9600E+02
    -15.313  0.0000E+00  0.9600E+02
    -15.206  0.0000E+00  0.9600E+02
    -15.100  0.0000E+00  0.9600E+02
    -14.993  0.0000E+00  0.9600E+02
    -14.887  0.0000E+00  0.9600E+02
    -14.780  0.0000E+00  0.9600E+02
    -14.674  0.0000E+00  0.9600E+02
    -14.567  0.0000E+00  0.9600E+02
    -14.461  0.0000E+00  0.9600E+02
    -14.354  0.0000E+00  0.9600E+02
    -14.247  0.0000E+00  0.9600E+02
    -14.141  0.0000E+00  0.9600E+02
    -14.034  0.0000E+00  0.9600E+02
    -13.928  0.0000E+00  0.9600E+02
    -13.821  0.0000E+00  0.9600E+02
    -13.715  0.0000E+00  0.9600E+02
    -13.608  0.0000E+00  0.9600E+02
    -13.502  0.0000E+00  0.9600E+02
    -13.395  0.0000E+00  0.9600E+02
    -13.288  0.1929E+01  0.9621E+02
    -13.182  0.0000E+00  0.1040E+03
    -13.075  0.0000E+00  0.1120E+03
    -12.969  0.0000E+00  0.1120E+03
    -12.862  0.0000E+00  0.1120E+03
    -12.756  0.0000E+00  0.1120E+03
    -12.649  0.0000E+00  0.1120E+03
    -12.543  0.0000E+00  0.1120E+03
    -12.436  0.0000E+00  0.1120E+03
    -12.329  0.0000E+00  0.1121E+03
    -12.223  0.2779E+01  0.1140E+03
    -12.116  0.5562E+01  0.1187E+03
    -12.010  0.3920E+01  0.1243E+03
    -11.903  0.8975E-02  0.1285E+03
    -11.797  0.1676E+02  0.1342E+03
    -11.690  0.2916E+01  0.1397E+03
    -11.584  0.1390E+01  0.1438E+03
    -11.477  0.1110E+02  0.1540E+03
    -11.371  0.7119E+00  0.1596E+03
    -11.264  0.0000E+00  0.1600E+03
    -11.157  0.0000E+00  0.1600E+03
    -11.051  0.0000E+00  0.1600E+03
    -10.944  0.0000E+00  0.1600E+03
    -10.838  0.0000E+00  0.1600E+03
    -10.731  0.0000E+00  0.1600E+03
    -10.625  0.0000E+00  0.1600E+03
    -10.518  0.0000E+00  0.1600E+03
    -10.412  0.0000E+00  0.1600E+03
    -10.305  0.0000E+00  0.1600E+03
    -10.198  0.0000E+00  0.1600E+03
    -10.092  0.0000E+00  0.1600E+03
     -9.985  0.0000E+00  0.1600E+03
     -9.879  0.0000E+00  0.1600E+03
     -9.772  0.0000E+00  0.1600E+03
     -9.666  0.0000E+00  0.1600E+03
     -9.559  0.0000E+00  0.1600E+03
     -9.453  0.0000E+00  0.1600E+03
     -9.346  0.0000E+00  0.1600E+03
     -9.239  0.0000E+00  0.1600E+03
     -9.133  0.0000E+00  0.1600E+03
     -9.026  0.1544E-14  0.1680E+03
     -8.920  0.2641E+02  0.1869E+03
     -8.813  0.0000E+00  0.1920E+03
     -8.707  0.0000E+00  0.1920E+03
     -8.600  0.0000E+00  0.1920E+03
     -8.494  0.0000E+00  0.1920E+03
     -8.387  0.0000E+00  0.1920E+03
     -8.281  0.0000E+00  0.1920E+03
     -8.174  0.0000E+00  0.1920E+03
     -8.067  0.0000E+00  0.1920E+03
     -7.961  0.0000E+00  0.1921E+03
     -7.854  0.1390E+01  0.1925E+03
     -7.748  0.0000E+00  0.1925E+03
     -7.641  0.0000E+00  0.1934E+03
     -7.535  0.1381E+01  0.1944E+03
     -7.428  0.2263E+01  0.1954E+03
     -7.322  0.2781E+01  0.1967E+03
     -7.215  0.0000E+00  0.1991E+03
     -7.108  0.1059E+01  0.2009E+03
     -7.002  0.6257E+01  0.2089E+03
     -6.895  0.7702E-04  0.2119E+03
     -6.789  0.1565E+00  0.2205E+03
     -6.682  0.2781E+01  0.2221E+03
     -6.576  0.0000E+00  0.2226E+03
     -6.469  0.0000E+00  0.2235E+03
     -6.363  0.1390E+01  0.2236E+03
     -6.256  0.0000E+00  0.2239E+03
     -6.149  0.0000E+00  0.2240E+03
     -6.043  0.0000E+00  0.2240E+03
     -5.936  0.0000E+00  0.2240E+03
     -5.830  0.0000E+00  0.2240E+03
     -5.723  0.0000E+00  0.2240E+03
     -5.617  0.0000E+00  0.2240E+03
     -5.510  0.0000E+00  0.2240E+03
     -5.404  0.0000E+00  0.2240E+03
     -5.297  0.0000E+00  0.2240E+03
     -5.191  0.0000E+00  0.2240E+03
     -5.084  0.0000E+00  0.2240E+03
     -4.977  0.0000E+00  0.2240E+03
     -4.871  0.0000E+00  0.2240E+03
     -4.764  0.1561E+02  0.2317E+03
     -4.658  0.9733E+01  0.2560E+03
     -4.551  0.0000E+00  0.2560E+03
     -4.445  0.0000E+00  0.2560E+03
     -4.338  0.0000E+00  0.2560E+03
     -4.232  0.0000E+00  0.2560E+03
     -4.125  0.0000E+00  0.2560E+03
     -4.018  0.0000E+00  0.2560E+03
     -3.912  0.0000E+00  0.2560E+03
     -3.805  0.0000E+00  0.2560E+03
     -3.699  0.0000E+00  0.2560E+03
     -3.592  0.0000E+00  0.2560E+03
     -3.486  0.0000E+00  0.2560E+03
     -3.379  0.0000E+00  0.2560E+03
     -3.273  0.0000E+00  0.2560E+03
     -3.166  0.0000E+00  0.2560E+03
     -3.059  0.0000E+00  0.2560E+03
     -2.953  0.0000E+00  0.2560E+03
     -2.846  0.0000E+00  0.2560E+03
     -2.740  0.4878E-02  0.2567E+03
     -2.633  0.2867E+01  0.2594E+03
     -2.527  0.2496E-03  0.2616E+03
     -2.420  0.3679E+01  0.2642E+03
     -2.314  0.3066E-01  0.2667E+03
     -2.207  0.4171E+01  0.2708E+03
     -2.100  0.4424E+00  0.2735E+03
     -1.994  0.6593E-05  0.2773E+03
     -1.887  0.0000E+00  0.2796E+03
     -1.781  0.0000E+00  0.2800E+03
     -1.674  0.0000E+00  0.2802E+03
     -1.568  0.6976E+01  0.2831E+03
     -1.461  0.1065E+01  0.2877E+03
     -1.355  0.1391E+01  0.2950E+03
     -1.248  0.4857E+01  0.3014E+03
     -1.142  0.1152E+01  0.3051E+03
     -1.035  0.0000E+00  0.3097E+03
     -0.928  0.3678E+00  0.3141E+03
     -0.822  0.0000E+00  0.3211E+03
     -0.715  0.2462E+01  0.3289E+03
     -0.609  0.4128E+01  0.3354E+03
     -0.502  0.3708E+01  0.3423E+03
     -0.396  0.8342E+01  0.3527E+03
     -0.289  0.2911E+01  0.3623E+03
     -0.183  0.6952E+00  0.3700E+03
     -0.076  0.5709E+01  0.3785E+03
      0.031  0.6942E+01  0.3853E+03
      0.137  0.4158E+01  0.3901E+03
      0.244  0.1482E+00  0.3932E+03
      0.350  0.1235E-14  0.3953E+03
      0.457  0.1390E+01  0.3973E+03
      0.563  0.2781E+01  0.3985E+03
      0.670  0.0000E+00  0.3993E+03
      0.776  0.5709E+00  0.3995E+03
      0.883  0.0000E+00  0.3999E+03
      0.990  0.0000E+00  0.3999E+03
      1.096  0.0000E+00  0.4000E+03
      1.203  0.0000E+00  0.4000E+03
      1.309  0.0000E+00  0.4000E+03
      1.416  0.0000E+00  0.4000E+03
      1.522  0.0000E+00  0.4000E+03
      1.629  0.0000E+00  0.4000E+03
      1.735  0.0000E+00  0.4000E+03
      1.842  0.0000E+00  0.4000E+03
      1.948  0.0000E+00  0.4000E+03
      2.055  0.0000E+00  0.4000E+03
      2.162  0.0000E+00  0.4000E+03
      2.268  0.0000E+00  0.4000E+03
      2.375  0.0000E+00  0.4000E+03
      2.481  0.0000E+00  0.4000E+03
      2.588  0.0000E+00  0.4000E+03
      2.694  0.0000E+00  0.4000E+03
      2.801  0.0000E+00  0.4000E+03
      2.907  0.0000E+00  0.4000E+03
      3.014  0.0000E+00  0.4000E+03
      3.121  0.0000E+00  0.4000E+03
      3.227  0.0000E+00  0.4000E+03
      3.334  0.1388E+01  0.4007E+03
      3.440  0.0000E+00  0.4007E+03
      3.547  0.0000E+00  0.4026E+03
      3.653  0.1390E+01  0.4035E+03
      3.760  0.4603E+01  0.4055E+03
      3.866  0.6952E+00  0.4067E+03
      3.973  0.0000E+00  0.4077E+03
      4.080  0.4119E-04  0.4081E+03
      4.186  0.1307E+01  0.4092E+03
      4.293  0.2781E+01  0.4105E+03
      4.399  0.1390E+01  0.4121E+03
      4.506  0.0000E+00  0.4145E+03
      4.612  0.8884E-02  0.4167E+03
      4.719  0.1390E+01  0.4194E+03
      4.825  0.0000E+00  0.4227E+03
      4.932  0.0000E+00  0.4239E+03
      5.039  0.1390E+01  0.4240E+03
      5.145  0.0000E+00  0.4240E+03
      5.252  0.0000E+00  0.4240E+03
      5.358  0.0000E+00  0.4240E+03
      5.465  0.0000E+00  0.4240E+03
      5.571  0.9340E-01  0.4241E+03
      5.678  0.0000E+00  0.4253E+03
      5.784  0.2497E-01  0.4287E+03
      5.891  0.5561E+01  0.4319E+03
      5.997  0.2781E+01  0.4353E+03
      6.104  0.5562E+01  0.4387E+03
      6.211  0.2781E+01  0.4412E+03
      6.317  0.1407E+01  0.4428E+03
      6.424  0.4669E-11  0.4451E+03
      6.530  0.0000E+00  0.4485E+03
      6.637  0.2665E+01  0.4518E+03
      6.743  0.5561E+01  0.4567E+03
      6.850  0.1302E+01  0.4601E+03
      6.956  0.6601E-07  0.4624E+03
      7.063  0.1497E+01  0.4670E+03
      7.170  0.1889E+01  0.4719E+03
      7.276  0.7505E-02  0.4765E+03
      7.383  0.4171E+01  0.4805E+03
      7.489  0.1861E+01  0.4842E+03
      7.596  0.1056E+01  0.4868E+03
      7.702  0.2790E+01  0.4899E+03
      7.809  0.3480E+00  0.4934E+03
      7.915  0.4415E+01  0.4968E+03
      8.022  0.3523E+01  0.4998E+03
      8.129  0.3947E+01  0.5018E+03
      8.235  0.2012E+01  0.5033E+03
      8.342  0.0000E+00  0.5039E+03
      8.448  0.0000E+00  0.5040E+03
      8.555  0.0000E+00  0.5040E+03
      8.661  0.0000E+00  0.5040E+03
      8.768  0.0000E+00  0.5040E+03
      8.874  0.0000E+00  0.5040E+03
      8.981  0.0000E+00  0.5040E+03
      9.087  0.0000E+00  0.5040E+03
      9.194  0.0000E+00  0.5040E+03
      9.301  0.0000E+00  0.5040E+03
      9.407  0.0000E+00  0.5040E+03
      9.514  0.0000E+00  0.5040E+03
      9.620  0.0000E+00  0.5040E+03
      9.727  0.0000E+00  0.5040E+03
      9.833  0.0000E+00  0.5040E+03
