       N       E                     dE             d eps       ncg     rms          ort
DAV:   1     0.393582708553E+05    0.39358E+05   -0.10842E+06  3528   0.494E+03
DAV:   2     0.962363330980E+04   -0.29735E+05   -0.29126E+05  3528   0.168E+03
DAV:   3     0.216253180891E+04   -0.74611E+04   -0.72791E+04  3528   0.532E+02
DAV:   4     0.497359616987E+03   -0.16652E+04   -0.15910E+04  3528   0.222E+02
DAV:   5     0.276060430936E+03   -0.22130E+03   -0.21734E+03  3528   0.861E+01
SDA:   6    -0.444477925131E+03   -0.72054E+03   -0.21734E+03  3528   0.125E+03 0.000E+00
CGA:   7    -0.465970250600E+03   -0.21492E+02   -0.21563E+02  3528   0.452E+02 0.808E+00
CGA:   8    -0.474668131835E+03   -0.86979E+01   -0.86985E+01  3528   0.931E+01-0.718E-02
CGA:   9    -0.477741333579E+03   -0.30732E+01   -0.30730E+01  3528   0.300E+01-0.101E-01
CGA:  10    -0.478676455794E+03   -0.93512E+00   -0.93603E+00  3528   0.116E+01-0.916E-02
CGA:  11    -0.478924731067E+03   -0.24828E+00   -0.24829E+00  3528   0.450E+00-0.189E-02
CGA:  12    -0.479054407312E+03   -0.12968E+00   -0.12983E+00  3528   0.115E+00-0.186E-02
CGA:  13    -0.479094272130E+03   -0.39865E-01   -0.39942E-01  3528   0.360E-01-0.534E-03
CGA:  14    -0.479105286702E+03   -0.11015E-01   -0.11014E-01  3528   0.167E-01 0.249E-04
CGA:  15    -0.479108867985E+03   -0.35813E-02   -0.35782E-02  3528   0.654E-02-0.274E-03
CGA:  16    -0.479110736964E+03   -0.18690E-02   -0.18676E-02  3528   0.215E-02 0.231E-04
CGA:  17    -0.479111525807E+03   -0.78884E-03   -0.79704E-03  3528   0.852E-03-0.577E-04
CGA:  18    -0.479111787100E+03   -0.26129E-03   -0.25974E-03  3528   0.335E-03 0.201E-04
CGA:  19    -0.479111889771E+03   -0.10267E-03   -0.10376E-03  3528   0.172E-03-0.170E-04
CGA:  20    -0.479111921898E+03   -0.32127E-04   -0.32888E-04  3528   0.569E-04 0.183E-04
CGA:  21    -0.479111944031E+03   -0.22133E-04   -0.22441E-04  3528   0.246E-04-0.265E-05
CGA:  22    -0.479111952893E+03   -0.88625E-05   -0.98144E-05  3528   0.182E-04-0.550E-05
CGA:  23    -0.479111954550E+03   -0.16569E-05   -0.20385E-05  3528   0.692E-05 0.345E-05
CGA:  24    -0.479111955641E+03   -0.10914E-05   -0.12531E-05  3528   0.338E-05 0.167E-05
CGA:  25    -0.479111956745E+03   -0.11033E-05   -0.15376E-05  3528   0.539E-05-0.355E-05
CGA:  26    -0.479111957306E+03   -0.56167E-06   -0.71684E-06  3528   0.820E-06 0.132E-05
CGA:  27    -0.479111957217E+03    0.89567E-07   -0.67604E-06  3528   0.440E-05-0.183E-05
CGA:  28    -0.479111957859E+03   -0.64180E-06   -0.71537E-06  3528   0.377E-06 0.715E-06
CGA:  29    -0.479111957990E+03   -0.13129E-06   -0.14861E-06  3528   0.237E-06-0.220E-06
CGA:  30    -0.479111957987E+03    0.26048E-08   -0.20550E-07  3528   0.756E-07 0.130E-06
CGA:  31    -0.479111958004E+03   -0.16931E-07   -0.17259E-07  3528   0.160E-07 0.101E-07
CGA:  32    -0.479111958057E+03   -0.52441E-07    0.49057E-09  3528   0.127E-07 0.846E-08
CGA:  33    -0.479111958054E+03    0.24556E-08   -0.28852E-09  3528   0.119E-07 0.119E-07
   1 F= -.47911196E+03 E0= -.47911196E+03  d E =-.164262-170
