       N       E                     dE             d eps       ncg     rms          ort
DAV:   1     0.206218214827E+03    0.20622E+03   -0.19823E+04  4776   0.129E+03
DAV:   2     0.611965070777E+01   -0.20010E+03   -0.19347E+03  4776   0.375E+02
DAV:   3    -0.142931586022E+01   -0.75490E+01   -0.69212E+01  4776   0.516E+01
DAV:   4    -0.149285339007E+01   -0.63538E-01   -0.63254E-01  4776   0.606E+00
DAV:   5    -0.149309161171E+01   -0.23822E-03   -0.23838E-03  4776   0.356E-01
SDA:   6    -0.123881217945E+02   -0.10895E+02   -0.23838E-03  4776   0.179E+00 0.000E+00
CGA:   7    -0.124907952662E+02   -0.10267E+00   -0.95281E-01  4776   0.524E-01 0.194E-01
CGA:   8    -0.125271310706E+02   -0.36336E-01   -0.35398E-01  4776   0.178E-01 0.261E-02
CGA:   9    -0.125360878926E+02   -0.89568E-02   -0.89057E-02  4776   0.212E-02 0.210E-03
CGA:  10    -0.125369690407E+02   -0.88115E-03   -0.88085E-03  4776   0.265E-03 0.127E-05
CGA:  11    -0.125370778063E+02   -0.10877E-03   -0.10907E-03  4776   0.340E-04-0.198E-05
CGA:  12    -0.125370942700E+02   -0.16464E-04   -0.16625E-04  4776   0.679E-05-0.704E-06
CGA:  13    -0.125370976578E+02   -0.33878E-05   -0.34384E-05  4776   0.177E-05-0.208E-06
CGA:  14    -0.125370985271E+02   -0.86931E-06   -0.90749E-06  4776   0.455E-06-0.158E-06
   1 F= -.12537099E+02 E0= -.12537099E+02  d E =-.125371E+02
