    2    2    1    1
  0.2002393E+02  0.3840297E-09  0.3840297E-09  0.3840297E-09  0.5000000E-15
  1.000000000000000E-004
  CAR 
 Name                                    
      8    214      8
 
  0.0000000E+00  0.0000000E+00  0.0000000E+00  0.4901961E-02
    1       -6.181781   1.000000
    2        5.776692   1.000000
    3        5.776692   1.000000
    4        5.776692   1.000000
    5        8.296693   0.000000
    6        8.296693   0.000000
    7        8.296693   0.000000
    8        8.983474   0.000000
 
  0.1666667E+00  0.0000000E+00  0.0000000E+00  0.3921569E-01
    1       -5.820430   1.000000
    2        3.379793   1.000000
    3        5.325482   1.000000
    4        5.325482   1.000000
    5        8.034505   0.000000
    6        8.943160   0.000000
    7        8.943160   0.000000
    8       11.092704   0.000000
 
  0.3333333E+00  0.0000000E+00  0.0000000E+00  0.3921569E-01
    1       -4.803316   1.000000
    2        0.424724   1.000000
    3        4.777655   1.000000
    4        4.777655   1.000000
    5        7.430393   0.000000
    6        9.233449   0.000000
    7        9.233449   0.000000
    8       13.449996   0.000000
 
  0.5000000E+00  0.0000000E+00  0.0000000E+00  0.1960784E-01
    1       -3.842898   1.000000
    2       -1.215787   1.000000
    3        4.580873   1.000000
    4        4.580873   1.000000
    5        7.202297   0.000000
    6        9.063763   0.000000
    7        9.063763   0.000000
    8       13.283848   0.000000
 
  0.1666667E+00  0.1666667E+00  0.0000000E+00  0.2941176E-01
    1       -5.697537   1.000000
    2        3.724355   1.000000
    3        4.579709   1.000000
    4        4.579709   1.000000
    5        7.403583   0.000000
    6        9.965692   0.000000
    7       10.073982   0.000000
    8       10.073983   0.000000
 
  0.3333333E+00  0.1666667E+00  0.0000000E+00  0.1176471E+00
    1       -4.881615   1.000000
    2        1.328899   1.000000
    3        3.767853   1.000000
    4        4.027906   1.000000
    5        7.657179   0.000000
    6        9.750742   0.000000
    7       10.222048   0.000000
    8       10.799006   0.000000
 
  0.5000000E+00  0.1666667E+00  0.0000000E+00  0.1176471E+00
    1       -3.685753   1.000000
    2       -0.844678   1.000000
    3        2.980171   1.000000
    4        3.999838   1.000000
    5        7.725253   0.000000
    6        9.804639   0.000000
    7       10.345441   0.000000
    8       12.101718   0.000000
 
 -0.3333333E+00  0.1666667E+00  0.0000000E+00  0.1176471E+00
    1       -4.072771   1.000000
    2       -0.243252   1.000000
    3        2.707655   1.000000
    4        4.480611   1.000000
    5        8.139622   0.000000
    6        9.807179   0.000000
    7        9.953570   0.000000
    8       12.962467   0.000000
 
 -0.1666667E+00  0.1666667E+00  0.0000000E+00  0.5882353E-01
    1       -5.231765   1.000000
    2        2.048432   1.000000
    3        3.343083   1.000000
    4        5.214066   1.000000
    5        8.740725   0.000000
    6        9.287243   0.000000
    7        9.540844   0.000000
    8       11.323564   0.000000
 
  0.3333333E+00  0.3333333E+00  0.0000000E+00  0.2941176E-01
    1       -4.277213   1.000000
    2        0.762224   1.000000
    3        3.356039   1.000000
    4        3.356039   1.000000
    5        6.401847   0.000000
    6        7.659218   0.000000
    7       12.965727   0.000000
    8       12.965730   0.000000
 
  0.5000000E+00  0.3333333E+00  0.0000000E+00  0.1176471E+00
    1       -3.112010   1.000000
    2       -0.788093   1.000000
    3        2.119516   1.000000
    4        3.220351   1.000000
    5        6.733686   0.000000
    6        8.400006   0.000000
    7       13.154740   0.000000
    8       13.159625   0.000000
 
 -0.3333333E+00  0.3333333E+00  0.0000000E+00  0.5882353E-01
    1       -2.912294   1.000000
    2       -0.995297   1.000000
    3        1.328780   1.000000
    4        3.663740   1.000000
    5        7.241221   0.000000
    6       11.481027   0.000000
    7       12.188036   0.000000
    8       12.753045   0.000000
 
  0.5000000E+00  0.5000000E+00  0.0000000E+00  0.1470588E-01
    1       -2.038015   1.000000
    2       -2.038015   1.000000
    3        2.922032   1.000000
    4        2.922032   1.000000
    5        6.375227   0.000000
    6        6.375227   0.000000
    7       15.751262   0.000000
    8       15.751766   0.000000
 
  0.5000000E+00  0.3333333E+00  0.1666667E+00  0.1176471E+00
    1       -3.890546   1.000000
    2        0.130271   1.000000
    3        2.180692   1.000000
    4        3.469288   1.000000
    5        8.548697   0.000000
    6        9.393330   0.000000
    7        9.933890   0.000000
    8       12.765268   0.000000
 
 -0.3333333E+00  0.3333333E+00  0.1666667E+00  0.1176471E+00
    1       -2.901876   1.000000
    2       -1.070962   1.000000
    3        1.737903   1.000000
    4        2.998084   1.000000
    5        9.041705   0.000000
    6        9.251513   0.000000
    7       11.784033   0.000000
    8       12.206036   0.000000
 
  0.0000000E+00  0.0000000E+00  0.0000000E+00  0.0000000E+00
    1       -6.181781   1.000000
    2        5.776692   1.000000
    3        5.776692   1.000000
    4        5.776692   1.000000
    5        8.296693   0.000000
    6        8.296693   0.000000
    7        8.296693   0.000000
    8        8.983474   0.000000
 
  0.0000000E+00  0.0000000E+00  0.5025130E-02  0.0000000E+00
    1       -6.181452   1.000000
    2        5.772551   1.000000
    3        5.776107   1.000000
    4        5.776107   1.000000
    5        8.297544   0.000000
    6        8.297544   0.000000
    7        8.297854   0.000000
    8        8.985809   0.000000
 
  0.0000000E+00  0.0000000E+00  0.1005025E-01  0.0000000E+00
    1       -6.180459   1.000000
    2        5.760200   1.000000
    3        5.774354   1.000000
    4        5.774354   1.000000
    5        8.300093   0.000000
    6        8.300093   0.000000
    7        8.301220   0.000000
    8        8.992858   0.000000
 
  0.0000000E+00  0.0000000E+00  0.1507538E-01  0.0000000E+00
    1       -6.178803   1.000000
    2        5.739846   1.000000
    3        5.771443   1.000000
    4        5.771443   1.000000
    5        8.304327   0.000000
    6        8.304327   0.000000
    7        8.306456   0.000000
    8        9.004753   0.000000
 
  0.0000000E+00  0.0000000E+00  0.2010050E-01  0.0000000E+00
    1       -6.176482   1.000000
    2        5.711820   1.000000
    3        5.767389   1.000000
    4        5.767389   1.000000
    5        8.310228   0.000000
    6        8.310228   0.000000
    7        8.313055   0.000000
    8        9.021684   0.000000
 
  0.0000000E+00  0.0000000E+00  0.2512563E-01  0.0000000E+00
    1       -6.173499   1.000000
    2        5.676547   1.000000
    3        5.762213   1.000000
    4        5.762213   1.000000
    5        8.317768   0.000000
    6        8.317768   0.000000
    7        8.320393   0.000000
    8        9.043867   0.000000
 
  0.0000000E+00  0.0000000E+00  0.3015075E-01  0.0000000E+00
    1       -6.169853   1.000000
    2        5.634517   1.000000
    3        5.755940   1.000000
    4        5.755940   1.000000
    5        8.326913   0.000000
    6        8.326913   0.000000
    7        8.327793   0.000000
    8        9.071489   0.000000
 
  0.0000000E+00  0.0000000E+00  0.3517588E-01  0.0000000E+00
    1       -6.165546   1.000000
    2        5.586266   1.000000
    3        5.748599   1.000000
    4        5.748599   1.000000
    5        8.334640   0.000000
    6        8.337621   0.000000
    7        8.337621   0.000000
    8        9.104676   0.000000
 
  0.0000000E+00  0.0000000E+00  0.4020100E-01  0.0000000E+00
    1       -6.160575   1.000000
    2        5.532351   1.000000
    3        5.740229   1.000000
    4        5.740229   1.000000
    5        8.340377   0.000000
    6        8.349848   0.000000
    7        8.349848   0.000000
    8        9.143451   0.000000
 
  0.0000000E+00  0.0000000E+00  0.4522613E-01  0.0000000E+00
    1       -6.154941   1.000000
    2        5.473314   1.000000
    3        5.730868   1.000000
    4        5.730868   1.000000
    5        8.344597   0.000000
    6        8.363539   0.000000
    7        8.363539   0.000000
    8        9.187714   0.000000
 
  0.0000000E+00  0.0000000E+00  0.5025126E-01  0.0000000E+00
    1       -6.148646   1.000000
    2        5.409674   1.000000
    3        5.720557   1.000000
    4        5.720557   1.000000
    5        8.347020   0.000000
    6        8.378638   0.000000
    7        8.378638   0.000000
    8        9.237251   0.000000
 
  0.0000000E+00  0.0000000E+00  0.5527638E-01  0.0000000E+00
    1       -6.141692   1.000000
    2        5.341922   1.000000
    3        5.709339   1.000000
    4        5.709339   1.000000
    5        8.347495   0.000000
    6        8.395080   0.000000
    7        8.395080   0.000000
    8        9.291750   0.000000
 
  0.0000000E+00  0.0000000E+00  0.6030151E-01  0.0000000E+00
    1       -6.134076   1.000000
    2        5.270516   1.000000
    3        5.697265   1.000000
    4        5.697265   1.000000
    5        8.345993   0.000000
    6        8.412801   0.000000
    7        8.412801   0.000000
    8        9.350833   0.000000
 
  0.0000000E+00  0.0000000E+00  0.6532663E-01  0.0000000E+00
    1       -6.125797   1.000000
    2        5.195871   1.000000
    3        5.684382   1.000000
    4        5.684382   1.000000
    5        8.342548   0.000000
    6        8.431731   0.000000
    7        8.431731   0.000000
    8        9.414086   0.000000
 
  0.0000000E+00  0.0000000E+00  0.7035176E-01  0.0000000E+00
    1       -6.116867   1.000000
    2        5.118338   1.000000
    3        5.670732   1.000000
    4        5.670732   1.000000
    5        8.337243   0.000000
    6        8.451786   0.000000
    7        8.451786   0.000000
    8        9.481073   0.000000
 
  0.0000000E+00  0.0000000E+00  0.7537688E-01  0.0000000E+00
    1       -6.107276   1.000000
    2        5.038305   1.000000
    3        5.656379   1.000000
    4        5.656379   1.000000
    5        8.330213   0.000000
    6        8.472908   0.000000
    7        8.472908   0.000000
    8        9.551395   0.000000
 
  0.0000000E+00  0.0000000E+00  0.8040201E-01  0.0000000E+00
    1       -6.097029   1.000000
    2        4.956050   1.000000
    3        5.641367   1.000000
    4        5.641367   1.000000
    5        8.321586   0.000000
    6        8.495010   0.000000
    7        8.495010   0.000000
    8        9.624651   0.000000
 
  0.0000000E+00  0.0000000E+00  0.8542714E-01  0.0000000E+00
    1       -6.086127   1.000000
    2        4.871843   1.000000
    3        5.625745   1.000000
    4        5.625745   1.000000
    5        8.311503   0.000000
    6        8.518012   0.000000
    7        8.518013   0.000000
    8        9.700476   0.000000
 
  0.0000000E+00  0.0000000E+00  0.9045226E-01  0.0000000E+00
    1       -6.074571   1.000000
    2        4.785926   1.000000
    3        5.609562   1.000000
    4        5.609562   1.000000
    5        8.300096   0.000000
    6        8.541834   0.000000
    7        8.541834   0.000000
    8        9.778540   0.000000
 
  0.0000000E+00  0.0000000E+00  0.9547739E-01  0.0000000E+00
    1       -6.062363   1.000000
    2        4.698513   1.000000
    3        5.592866   1.000000
    4        5.592866   1.000000
    5        8.287494   0.000000
    6        8.566390   0.000000
    7        8.566390   0.000000
    8        9.858546   0.000000
 
  0.0000000E+00  0.0000000E+00  0.1005025E+00  0.0000000E+00
    1       -6.049506   1.000000
    2        4.609791   1.000000
    3        5.575702   1.000000
    4        5.575702   1.000000
    5        8.273817   0.000000
    6        8.591597   0.000000
    7        8.591597   0.000000
    8        9.940231   0.000000
 
  0.0000000E+00  0.0000000E+00  0.1055276E+00  0.0000000E+00
    1       -6.036003   1.000000
    2        4.519937   1.000000
    3        5.558121   1.000000
    4        5.558121   1.000000
    5        8.259175   0.000000
    6        8.617370   0.000000
    7        8.617370   0.000000
    8       10.023362   0.000000
 
  0.0000000E+00  0.0000000E+00  0.1105528E+00  0.0000000E+00
    1       -6.021853   1.000000
    2        4.429098   1.000000
    3        5.540163   1.000000
    4        5.540163   1.000000
    5        8.243670   0.000000
    6        8.643621   0.000000
    7        8.643622   0.000000
    8       10.107732   0.000000
 
  0.0000000E+00  0.0000000E+00  0.1155779E+00  0.0000000E+00
    1       -6.007058   1.000000
    2        4.337409   1.000000
    3        5.521873   1.000000
    4        5.521873   1.000000
    5        8.227395   0.000000
    6        8.670266   0.000000
    7        8.670266   0.000000
    8       10.193158   0.000000
 
  0.0000000E+00  0.0000000E+00  0.1206030E+00  0.0000000E+00
    1       -5.991617   1.000000
    2        4.244995   1.000000
    3        5.503290   1.000000
    4        5.503290   1.000000
    5        8.210433   0.000000
    6        8.697214   0.000000
    7        8.697214   0.000000
    8       10.279480   0.000000
 
  0.0000000E+00  0.0000000E+00  0.1256281E+00  0.0000000E+00
    1       -5.975528   1.000000
    2        4.151964   1.000000
    3        5.484454   1.000000
    4        5.484454   1.000000
    5        8.192862   0.000000
    6        8.724382   0.000000
    7        8.724382   0.000000
    8       10.366558   0.000000
 
  0.0000000E+00  0.0000000E+00  0.1306533E+00  0.0000000E+00
    1       -5.958805   1.000000
    2        4.058414   1.000000
    3        5.465400   1.000000
    4        5.465400   1.000000
    5        8.174754   0.000000
    6        8.751676   0.000000
    7        8.751676   0.000000
    8       10.454261   0.000000
 
  0.0000000E+00  0.0000000E+00  0.1356784E+00  0.0000000E+00
    1       -5.941444   1.000000
    2        3.964437   1.000000
    3        5.446166   1.000000
    4        5.446166   1.000000
    5        8.156175   0.000000
    6        8.779010   0.000000
    7        8.779010   0.000000
    8       10.542481   0.000000
 
  0.0000000E+00  0.0000000E+00  0.1407035E+00  0.0000000E+00
    1       -5.923447   1.000000
    2        3.870112   1.000000
    3        5.426787   1.000000
    4        5.426787   1.000000
    5        8.137185   0.000000
    6        8.806295   0.000000
    7        8.806295   0.000000
    8       10.631118   0.000000
 
  0.0000000E+00  0.0000000E+00  0.1457286E+00  0.0000000E+00
    1       -5.904816   1.000000
    2        3.775513   1.000000
    3        5.407292   1.000000
    4        5.407292   1.000000
    5        8.117841   0.000000
    6        8.833443   0.000000
    7        8.833443   0.000000
    8       10.720084   0.000000
 
  0.0000000E+00  0.0000000E+00  0.1507538E+00  0.0000000E+00
    1       -5.885554   1.000000
    2        3.680708   1.000000
    3        5.387714   1.000000
    4        5.387714   1.000000
    5        8.098194   0.000000
    6        8.860367   0.000000
    7        8.860368   0.000000
    8       10.809310   0.000000
 
  0.0000000E+00  0.0000000E+00  0.1557789E+00  0.0000000E+00
    1       -5.865665   1.000000
    2        3.585757   1.000000
    3        5.368081   1.000000
    4        5.368081   1.000000
    5        8.078292   0.000000
    6        8.886979   0.000000
    7        8.886979   0.000000
    8       10.898697   0.000000
 
  0.0000000E+00  0.0000000E+00  0.1608040E+00  0.0000000E+00
    1       -5.845150   1.000000
    2        3.490717   1.000000
    3        5.348421   1.000000
    4        5.348421   1.000000
    5        8.058180   0.000000
    6        8.913193   0.000000
    7        8.913193   0.000000
    8       10.988207   0.000000
 
  0.0000000E+00  0.0000000E+00  0.1658291E+00  0.0000000E+00
    1       -5.824013   1.000000
    2        3.395640   1.000000
    3        5.328758   1.000000
    4        5.328758   1.000000
    5        8.037899   0.000000
    6        8.938924   0.000000
    7        8.938924   0.000000
    8       11.077774   0.000000
 
  0.0000000E+00  0.0000000E+00  0.1708543E+00  0.0000000E+00
    1       -5.802258   1.000000
    2        3.300573   1.000000
    3        5.309117   1.000000
    4        5.309117   1.000000
    5        8.017488   0.000000
    6        8.964090   0.000000
    7        8.964090   0.000000
    8       11.167346   0.000000
 
  0.0000000E+00  0.0000000E+00  0.1758794E+00  0.0000000E+00
    1       -5.779890   1.000000
    2        3.205557   1.000000
    3        5.289519   1.000000
    4        5.289519   1.000000
    5        7.996982   0.000000
    6        8.988602   0.000000
    7        8.988602   0.000000
    8       11.256894   0.000000
 
  0.0000000E+00  0.0000000E+00  0.1809045E+00  0.0000000E+00
    1       -5.756908   1.000000
    2        3.110641   1.000000
    3        5.269989   1.000000
    4        5.269989   1.000000
    5        7.976415   0.000000
    6        9.012398   0.000000
    7        9.012398   0.000000
    8       11.346291   0.000000
 
  0.0000000E+00  0.0000000E+00  0.1859296E+00  0.0000000E+00
    1       -5.733318   1.000000
    2        3.015861   1.000000
    3        5.250546   1.000000
    4        5.250546   1.000000
    5        7.955820   0.000000
    6        9.035395   0.000000
    7        9.035395   0.000000
    8       11.435579   0.000000
 
  0.0000000E+00  0.0000000E+00  0.1909548E+00  0.0000000E+00
    1       -5.709127   1.000000
    2        2.921248   1.000000
    3        5.231207   1.000000
    4        5.231207   1.000000
    5        7.935215   0.000000
    6        9.057521   0.000000
    7        9.057521   0.000000
    8       11.524678   0.000000
 
  0.0000000E+00  0.0000000E+00  0.1959799E+00  0.0000000E+00
    1       -5.684335   1.000000
    2        2.826842   1.000000
    3        5.211992   1.000000
    4        5.211992   1.000000
    5        7.914647   0.000000
    6        9.078714   0.000000
    7        9.078714   0.000000
    8       11.613550   0.000000
 
  0.0000000E+00  0.0000000E+00  0.2010050E+00  0.0000000E+00
    1       -5.658953   1.000000
    2        2.732674   1.000000
    3        5.192917   1.000000
    4        5.192917   1.000000
    5        7.894132   0.000000
    6        9.098911   0.000000
    7        9.098911   0.000000
    8       11.702142   0.000000
 
  0.0000000E+00  0.0000000E+00  0.2060301E+00  0.0000000E+00
    1       -5.632983   1.000000
    2        2.638773   1.000000
    3        5.173997   1.000000
    4        5.173997   1.000000
    5        7.873695   0.000000
    6        9.118056   0.000000
    7        9.118056   0.000000
    8       11.790420   0.000000
 
  0.0000000E+00  0.0000000E+00  0.2110553E+00  0.0000000E+00
    1       -5.606430   1.000000
    2        2.545165   1.000000
    3        5.155247   1.000000
    4        5.155247   1.000000
    5        7.853358   0.000000
    6        9.136102   0.000000
    7        9.136102   0.000000
    8       11.878288   0.000000
 
  0.0000000E+00  0.0000000E+00  0.2160804E+00  0.0000000E+00
    1       -5.579298   1.000000
    2        2.451880   1.000000
    3        5.136679   1.000000
    4        5.136679   1.000000
    5        7.833142   0.000000
    6        9.153005   0.000000
    7        9.153005   0.000000
    8       11.965744   0.000000
 
  0.0000000E+00  0.0000000E+00  0.2211055E+00  0.0000000E+00
    1       -5.551594   1.000000
    2        2.358945   1.000000
    3        5.118308   1.000000
    4        5.118308   1.000000
    5        7.813067   0.000000
    6        9.168731   0.000000
    7        9.168731   0.000000
    8       12.052685   0.000000
 
  0.0000000E+00  0.0000000E+00  0.2261306E+00  0.0000000E+00
    1       -5.523324   1.000000
    2        2.266386   1.000000
    3        5.100146   1.000000
    4        5.100146   1.000000
    5        7.793152   0.000000
    6        9.183252   0.000000
    7        9.183252   0.000000
    8       12.139141   0.000000
 
  0.0000000E+00  0.0000000E+00  0.2311558E+00  0.0000000E+00
    1       -5.494493   1.000000
    2        2.174228   1.000000
    3        5.082204   1.000000
    4        5.082204   1.000000
    5        7.773414   0.000000
    6        9.196550   0.000000
    7        9.196550   0.000000
    8       12.224833   0.000000
 
  0.0000000E+00  0.0000000E+00  0.2361809E+00  0.0000000E+00
    1       -5.465110   1.000000
    2        2.082496   1.000000
    3        5.064492   1.000000
    4        5.064492   1.000000
    5        7.753870   0.000000
    6        9.208612   0.000000
    7        9.208612   0.000000
    8       12.309784   0.000000
 
  0.0000000E+00  0.0000000E+00  0.2412060E+00  0.0000000E+00
    1       -5.435181   1.000000
    2        1.991212   1.000000
    3        5.047020   1.000000
    4        5.047020   1.000000
    5        7.734534   0.000000
    6        9.219434   0.000000
    7        9.219434   0.000000
    8       12.393917   0.000000
 
  0.0000000E+00  0.0000000E+00  0.2462312E+00  0.0000000E+00
    1       -5.404716   1.000000
    2        1.900399   1.000000
    3        5.029798   1.000000
    4        5.029798   1.000000
    5        7.715421   0.000000
    6        9.229021   0.000000
    7        9.229021   0.000000
    8       12.477076   0.000000
 
  0.0000000E+00  0.0000000E+00  0.2512563E+00  0.0000000E+00
    1       -5.373722   1.000000
    2        1.810081   1.000000
    3        5.012833   1.000000
    4        5.012833   1.000000
    5        7.696545   0.000000
    6        9.237383   0.000000
    7        9.237383   0.000000
    8       12.559193   0.000000
 
  0.0000000E+00  0.0000000E+00  0.2562814E+00  0.0000000E+00
    1       -5.342215   1.000000
    2        1.720274   1.000000
    3        4.996134   1.000000
    4        4.996134   1.000000
    5        7.677907   0.000000
    6        9.244532   0.000000
    7        9.244532   0.000000
    8       12.640228   0.000000
 
  0.0000000E+00  0.0000000E+00  0.2613065E+00  0.0000000E+00
    1       -5.310191   1.000000
    2        1.631011   1.000000
    3        4.979709   1.000000
    4        4.979709   1.000000
    5        7.659541   0.000000
    6        9.250509   0.000000
    7        9.250509   0.000000
    8       12.719941   0.000000
 
  0.0000000E+00  0.0000000E+00  0.2663316E+00  0.0000000E+00
    1       -5.277664   1.000000
    2        1.542311   1.000000
    3        4.963564   1.000000
    4        4.963564   1.000000
    5        7.641451   0.000000
    6        9.255339   0.000000
    7        9.255339   0.000000
    8       12.798733   0.000000
 
  0.0000000E+00  0.0000000E+00  0.2713568E+00  0.0000000E+00
    1       -5.244654   1.000000
    2        1.454191   1.000000
    3        4.947706   1.000000
    4        4.947706   1.000000
    5        7.623628   0.000000
    6        9.259055   0.000000
    7        9.259055   0.000000
    8       12.876542   0.000000
 
  0.0000000E+00  0.0000000E+00  0.2763819E+00  0.0000000E+00
    1       -5.211168   1.000000
    2        1.366678   1.000000
    3        4.932140   1.000000
    4        4.932140   1.000000
    5        7.606108   0.000000
    6        9.261703   0.000000
    7        9.261703   0.000000
    8       12.954596   0.000000
 
  0.0000000E+00  0.0000000E+00  0.2814070E+00  0.0000000E+00
    1       -5.177218   1.000000
    2        1.279794   1.000000
    3        4.916873   1.000000
    4        4.916873   1.000000
    5        7.588890   0.000000
    6        9.263327   0.000000
    7        9.263327   0.000000
    8       13.015587   0.000000
 
  0.0000000E+00  0.0000000E+00  0.2864321E+00  0.0000000E+00
    1       -5.142819   1.000000
    2        1.193559   1.000000
    3        4.901910   1.000000
    4        4.901910   1.000000
    5        7.571978   0.000000
    6        9.263980   0.000000
    7        9.263980   0.000000
    8       13.081000   0.000000
 
  0.0000000E+00  0.0000000E+00  0.2914573E+00  0.0000000E+00
    1       -5.107986   1.000000
    2        1.108000   1.000000
    3        4.887255   1.000000
    4        4.887255   1.000000
    5        7.555387   0.000000
    6        9.263713   0.000000
    7        9.263713   0.000000
    8       13.151733   0.000000
 
  0.0000000E+00  0.0000000E+00  0.2964824E+00  0.0000000E+00
    1       -5.072735   1.000000
    2        1.023142   1.000000
    3        4.872913   1.000000
    4        4.872913   1.000000
    5        7.539121   0.000000
    6        9.262583   0.000000
    7        9.262583   0.000000
    8       13.203311   0.000000
 
  0.0000000E+00  0.0000000E+00  0.3015075E+00  0.0000000E+00
    1       -5.037087   1.000000
    2        0.939008   1.000000
    3        4.858888   1.000000
    4        4.858888   1.000000
    5        7.523188   0.000000
    6        9.260647   0.000000
    7        9.260647   0.000000
    8       13.254019   0.000000
 
  0.0000000E+00  0.0000000E+00  0.3065327E+00  0.0000000E+00
    1       -5.001052   1.000000
    2        0.855627   1.000000
    3        4.845184   1.000000
    4        4.845184   1.000000
    5        7.507594   0.000000
    6        9.257963   0.000000
    7        9.257963   0.000000
    8       13.333694   0.000000
 
  0.0000000E+00  0.0000000E+00  0.3115578E+00  0.0000000E+00
    1       -4.964655   1.000000
    2        0.773001   1.000000
    3        4.831809   1.000000
    4        4.831809   1.000000
    5        7.492348   0.000000
    6        9.254589   0.000000
    7        9.254589   0.000000
    8       13.342592   0.000000
 
  0.0000000E+00  0.0000000E+00  0.3165829E+00  0.0000000E+00
    1       -4.927921   1.000000
    2        0.691196   1.000000
    3        4.818757   1.000000
    4        4.818757   1.000000
    5        7.477450   0.000000
    6        9.250587   0.000000
    7        9.250587   0.000000
    8       13.383410   0.000000
 
  0.0000000E+00  0.0000000E+00  0.3216080E+00  0.0000000E+00
    1       -4.890868   1.000000
    2        0.610226   1.000000
    3        4.806036   1.000000
    4        4.806036   1.000000
    5        7.462909   0.000000
    6        9.246014   0.000000
    7        9.246014   0.000000
    8       13.410266   0.000000
 
  0.0000000E+00  0.0000000E+00  0.3266332E+00  0.0000000E+00
    1       -4.853521   1.000000
    2        0.530123   1.000000
    3        4.793648   1.000000
    4        4.793648   1.000000
    5        7.448729   0.000000
    6        9.240929   0.000000
    7        9.240929   0.000000
    8       13.435441   0.000000
 
  0.0000000E+00  0.0000000E+00  0.3316583E+00  0.0000000E+00
    1       -4.815908   1.000000
    2        0.450920   1.000000
    3        4.781597   1.000000
    4        4.781597   1.000000
    5        7.434915   0.000000
    6        9.235388   0.000000
    7        9.235388   0.000000
    8       13.446989   0.000000
 
  0.0000000E+00  0.0000000E+00  0.3366834E+00  0.0000000E+00
    1       -4.778058   1.000000
    2        0.372651   1.000000
    3        4.769884   1.000000
    4        4.769884   1.000000
    5        7.421472   0.000000
    6        9.229447   0.000000
    7        9.229447   0.000000
    8       13.457292   0.000000
 
  0.0000000E+00  0.0000000E+00  0.3417085E+00  0.0000000E+00
    1       -4.740002   1.000000
    2        0.295354   1.000000
    3        4.758511   1.000000
    4        4.758511   1.000000
    5        7.408404   0.000000
    6        9.223161   0.000000
    7        9.223161   0.000000
    8       13.466052   0.000000
 
  0.0000000E+00  0.0000000E+00  0.3467337E+00  0.0000000E+00
    1       -4.701775   1.000000
    2        0.219068   1.000000
    3        4.747482   1.000000
    4        4.747482   1.000000
    5        7.395715   0.000000
    6        9.216582   0.000000
    7        9.216582   0.000000
    8       13.469683   0.000000
 
  0.0000000E+00  0.0000000E+00  0.3517588E+00  0.0000000E+00
    1       -4.663415   1.000000
    2        0.143836   1.000000
    3        4.736796   1.000000
    4        4.736796   1.000000
    5        7.383408   0.000000
    6        9.209760   0.000000
    7        9.209760   0.000000
    8       13.470548   0.000000
 
  0.0000000E+00  0.0000000E+00  0.3567839E+00  0.0000000E+00
    1       -4.624963   1.000000
    2        0.069702   1.000000
    3        4.726457   1.000000
    4        4.726457   1.000000
    5        7.371486   0.000000
    6        9.202746   0.000000
    7        9.202746   0.000000
    8       13.468898   0.000000
 
  0.0000000E+00  0.0000000E+00  0.3618091E+00  0.0000000E+00
    1       -4.586462   1.000000
    2       -0.003285   1.000000
    3        4.716460   1.000000
    4        4.716460   1.000000
    5        7.359943   0.000000
    6        9.195584   0.000000
    7        9.195584   0.000000
    8       13.465122   0.000000
 
  0.0000000E+00  0.0000000E+00  0.3668342E+00  0.0000000E+00
    1       -4.547962   1.000000
    2       -0.075071   1.000000
    3        4.706816   1.000000
    4        4.706816   1.000000
    5        7.348801   0.000000
    6        9.188320   0.000000
    7        9.188320   0.000000
    8       13.459578   0.000000
 
  0.0000000E+00  0.0000000E+00  0.3718593E+00  0.0000000E+00
    1       -4.509514   1.000000
    2       -0.145607   1.000000
    3        4.697521   1.000000
    4        4.697521   1.000000
    5        7.338050   0.000000
    6        9.180997   0.000000
    7        9.180997   0.000000
    8       13.452750   0.000000
 
  0.0000000E+00  0.0000000E+00  0.3768844E+00  0.0000000E+00
    1       -4.471175   1.000000
    2       -0.214820   1.000000
    3        4.688579   1.000000
    4        4.688579   1.000000
    5        7.327698   0.000000
    6        9.173655   0.000000
    7        9.173655   0.000000
    8       13.444940   0.000000
 