 vasp.5.4.1 24Jun15 (build Nov 25 2015 16:01:35) complex                        
  
 executed on         CrayXC-Intel date 2016.09.07  12:49:16
 running on   96 total cores
 distrk:  each k-point on   24 cores,    4 groups
 distr:  one band on NCORES_PER_BAND=   6 cores,    4 groups


--------------------------------------------------------------------------------------------------------


 INCAR:
 POTCAR:   PAW Si 02Apr1999                       

 ----------------------------------------------------------------------------- 
|                                                                             |
|           W    W    AA    RRRRR   N    N  II  N    N   GGGG   !!!           |
|           W    W   A  A   R    R  NN   N  II  NN   N  G    G  !!!           |
|           W    W  A    A  R    R  N N  N  II  N N  N  G       !!!           |
|           W WW W  AAAAAA  RRRRR   N  N N  II  N  N N  G  GGG   !            |
|           WW  WW  A    A  R   R   N   NN  II  N   NN  G    G                |
|           W    W  A    A  R    R  N    N  II  N    N   GGGG   !!!           |
|                                                                             |
|      You have enabled k-point parallelism (KPAR>1).                         |
|      This developmental code was originally  written by Paul Kent at ORNL,  |
|      and carefully double checked in Vienna.                                |
|      GW as well as linear response parallelism added by Martijn Marsman     |
|      and Georg Kresse.                                                      |
|      Carefully verify results versus KPAR=1.                                |
|      Report problems to Paul Kent and Vienna.                               |
|                                                                             |
 ----------------------------------------------------------------------------- 

 POTCAR:   PAW Si 02Apr1999                       
   VRHFIN =Si: s2p2                                                             
   LEXCH  = CA                                                                  
   EATOM  =   103.4338 eV,    7.6022 Ry                                         
                                                                                
   TITEL  = PAW Si 02Apr1999                                                    
   LULTRA =        F    use ultrasoft PP ?                                      
   IUNSCR =        1    unscreen: 0-lin 1-nonlin 2-no                           
   RPACOR =    1.500    partial core radius                                     
   POMASS =   28.085; ZVAL   =    4.000    mass and valenz                      
   RCORE  =    1.900    outmost cutoff radius                                   
   RWIGS  =    2.480; RWIGS  =    1.312    wigner-seitz radius (au A)           
   ENMAX  =  245.704; ENMIN  =  184.278 eV                                      
   ICORE  =        2    local potential                                         
   LCOR   =        T    correct aug charges                                     
   LPAW   =        T    paw PP                                                  
   EAUG   =  322.069                                                            
   DEXC   =    -.006                                                            
   RMAX   =    2.941    core radius for proj-oper                               
   RAUG   =    1.300    factor for augmentation sphere                          
   RDEP   =    1.993    core radius for depl-charge                             
   QCUT   =   -4.250; QGAM   =    8.499    optimization parameters              
                                                                                
   Description                                                                  
     l     E      TYP  RCUT    TYP  RCUT                                        
     0   .000     23  1.900                                                     
     0   .000     23  1.900                                                     
     1   .000     23  1.900                                                     
     1   .000     23  1.900                                                     
     2   .000      7  1.900                                                     
  local pseudopotential read in
  partial core-charges read in
  atomic valenz-charges read in
  non local Contribution for L=           0  read in
    real space projection operators read in
  non local Contribution for L=           0  read in
    real space projection operators read in
  non local Contribution for L=           1  read in
    real space projection operators read in
  non local Contribution for L=           1  read in
    real space projection operators read in
    PAW grid and wavefunctions read in
 
   number of l-projection  operators is LMAX  =           4
   number of lm-projection operators is LMMAX =           8
 
 PAW Si 02Apr1999                       :
 energy of atom  1       EATOM= -103.4338
 kinetic energy error for atom=    0.0006 (will be added to EATOM!!)
 
 
 POSCAR: Si (Madelung Handbook, 295.7K)          
  positions in direct lattice
  velocities in cartesian coordinates
 exchange correlation table for  LEXCH =        2
   RHO(1)=    0.500       N(1)  =     2000
   RHO(2)=  100.500       N(2)  =     4000
 


--------------------------------------------------------------------------------------------------------


 ion  position               nearest neighbor table
   1  0.000  0.000  0.000-   2 2.35   2 2.35   2 2.35   2 2.35
   2  0.250  0.250  0.250-   1 2.35   1 2.35   1 2.35   1 2.35
 
  LATTYP: Found a face centered cubic cell.
 ALAT       =     5.4310000000
  
  Lattice vectors:
  
 A1 = (   2.7155000000,   2.7155000000,   0.0000000000)
 A2 = (   2.7155000000,   0.0000000000,  -2.7155000000)
 A3 = (   0.0000000000,   2.7155000000,  -2.7155000000)


Analysis of symmetry for initial positions (statically):
=====================================================================
 Subroutine PRICEL returns:
 Original cell was already a primitive cell.
 

 Routine SETGRP: Setting up the symmetry group for a 
 face centered cubic supercell.


 Subroutine GETGRP returns: Found 48 space group operations
 (whereof 24 operations were pure point group operations)
 out of a pool of 48 trial point group operations.


The static configuration has the point symmetry T_d .
 The point group associated with its full space group is O_h .


Analysis of symmetry for dynamics (positions and initial velocities):
=====================================================================
 Subroutine PRICEL returns:
 Original cell was already a primitive cell.
 

 Routine SETGRP: Setting up the symmetry group for a 
 face centered cubic supercell.


 Subroutine GETGRP returns: Found 48 space group operations
 (whereof 24 operations were pure point group operations)
 out of a pool of 48 trial point group operations.


The dynamic configuration has the point symmetry T_d .
 The point group associated with its full space group is O_h .


 Subroutine INISYM returns: Found 48 space group operations
 (whereof 24 operations are pure point group operations),
 and found     1 'primitive' translations

 
 
 KPOINTS: Automatically generated mesh: SCF=15,199
  k-points in reciprocal lattice
Space group operators:
 irot       det(A)        alpha          n_x          n_y          n_z        tau_x        tau_y        tau_z
    1     1.000000     0.000001     1.000000     0.000000     0.000000     0.000000     0.000000     0.000000
    2     1.000000   120.000000    -0.577350    -0.577350     0.577350     0.000000     0.000000     0.000000
    3     1.000000   120.000000     0.577350     0.577350    -0.577350     0.000000     0.000000     0.000000
    4    -1.000000    90.000000    -1.000000     0.000000     0.000000     0.000000     0.000000     0.000000
    5    -1.000000   180.000000     0.707107     0.707107     0.000000     0.000000     0.000000     0.000000
    6    -1.000000    90.000000     0.000000     1.000000     0.000000     0.000000     0.000000     0.000000
    7     1.000000   180.000000     1.000000     0.000000     0.000000     0.000000     0.000000     0.000000
    8     1.000000   120.000000     0.577350     0.577350     0.577350     0.000000     0.000000     0.000000
    9     1.000000   120.000000    -0.577350     0.577350     0.577350     0.000000     0.000000     0.000000
   10    -1.000000    90.000000     1.000000     0.000000     0.000000     0.000000     0.000000     0.000000
   11    -1.000000    90.000000     0.000000     0.000000     1.000000     0.000000     0.000000     0.000000
   12    -1.000000   180.000000     0.707107     0.000000    -0.707107     0.000000     0.000000     0.000000
   13     1.000000   120.000000     0.577350    -0.577350    -0.577350     0.000000     0.000000     0.000000
   14     1.000000   120.000000     0.577350    -0.577350     0.577350     0.000000     0.000000     0.000000
   15     1.000000   180.000000     0.000000     0.000000     1.000000     0.000000     0.000000     0.000000
   16    -1.000000    90.000000     0.000000    -1.000000     0.000000     0.000000     0.000000     0.000000
   17    -1.000000   180.000000     0.000000    -0.707107     0.707107     0.000000     0.000000     0.000000
   18    -1.000000    90.000000     0.000000     0.000000    -1.000000     0.000000     0.000000     0.000000
   19     1.000000   120.000000    -0.577350    -0.577350    -0.577350     0.000000     0.000000     0.000000
   20     1.000000   180.000000     0.000000     1.000000     0.000000     0.000000     0.000000     0.000000
   21     1.000000   120.000000    -0.577350     0.577350    -0.577350     0.000000     0.000000     0.000000
   22    -1.000000   180.000000     0.707107    -0.707107     0.000000     0.000000     0.000000     0.000000
   23    -1.000000   180.000000     0.000000     0.707107     0.707107     0.000000     0.000000     0.000000
   24    -1.000000   180.000000     0.707107     0.000000     0.707107     0.000000     0.000000     0.000000
   25    -1.000000     0.000001     1.000000     0.000000     0.000000     0.250000     0.250000     0.250000
   26    -1.000000   120.000000    -0.577350    -0.577350     0.577350     0.250000     0.250000     0.250000
   27    -1.000000   120.000000     0.577350     0.577350    -0.577350     0.250000     0.250000     0.250000
   28     1.000000    90.000000    -1.000000     0.000000     0.000000     0.250000     0.250000     0.250000
   29     1.000000   180.000000     0.707107     0.707107     0.000000     0.250000     0.250000     0.250000
   30     1.000000    90.000000     0.000000     1.000000     0.000000     0.250000     0.250000     0.250000
   31    -1.000000   180.000000     1.000000     0.000000     0.000000     0.250000     0.250000     0.250000
   32    -1.000000   120.000000     0.577350     0.577350     0.577350     0.250000     0.250000     0.250000
   33    -1.000000   120.000000    -0.577350     0.577350     0.577350     0.250000     0.250000     0.250000
   34     1.000000    90.000000     1.000000     0.000000     0.000000     0.250000     0.250000     0.250000
   35     1.000000    90.000000     0.000000     0.000000     1.000000     0.250000     0.250000     0.250000
   36     1.000000   180.000000     0.707107     0.000000    -0.707107     0.250000     0.250000     0.250000
   37    -1.000000   120.000000     0.577350    -0.577350    -0.577350     0.250000     0.250000     0.250000
   38    -1.000000   120.000000     0.577350    -0.577350     0.577350     0.250000     0.250000     0.250000
   39    -1.000000   180.000000     0.000000     0.000000     1.000000     0.250000     0.250000     0.250000
   40     1.000000    90.000000     0.000000    -1.000000     0.000000     0.250000     0.250000     0.250000
   41     1.000000   180.000000     0.000000    -0.707107     0.707107     0.250000     0.250000     0.250000
   42     1.000000    90.000000     0.000000     0.000000    -1.000000     0.250000     0.250000     0.250000
   43    -1.000000   120.000000    -0.577350    -0.577350    -0.577350     0.250000     0.250000     0.250000
   44    -1.000000   180.000000     0.000000     1.000000     0.000000     0.250000     0.250000     0.250000
   45    -1.000000   120.000000    -0.577350     0.577350    -0.577350     0.250000     0.250000     0.250000
   46     1.000000   180.000000     0.707107    -0.707107     0.000000     0.250000     0.250000     0.250000
   47     1.000000   180.000000     0.000000     0.707107     0.707107     0.250000     0.250000     0.250000
   48     1.000000   180.000000     0.707107     0.000000     0.707107     0.250000     0.250000     0.250000


--------------------------------------------------------------------------------------------------------




 Dimension of arrays:
   k-points           NKPTS =    214   k-points in BZ     NKDIM =    214   number of bands    NBANDS=      8
   number of dos      NEDOS =    301   number of ions     NIONS =      2
   non local maximal  LDIM  =      4   non local SUM 2l+1 LMDIM =      8
   total plane-waves  NPLWV =  21952
   max r-space proj   IRMAX =      1   max aug-charges    IRDMAX=  18525
   dimension x,y,z NGX =    28 NGY =   28 NGZ =   28
   dimension x,y,z NGXF=    56 NGYF=   56 NGZF=   56
   support grid    NGXF=    56 NGYF=   56 NGZF=   56
   ions per type =               2
 NGX,Y,Z   is equivalent  to a cutoff of  12.12, 12.12, 12.12 a.u.
 NGXF,Y,Z  is equivalent  to a cutoff of  24.24, 24.24, 24.24 a.u.


 I would recommend the setting:
   dimension x,y,z NGX =    28 NGY =   28 NGZ =   28
 SYSTEM =  Name                                    
 POSCAR =  Si (Madelung Handbook, 295.7K)          

 Startparameter for this run:
   NWRITE =      2    write-flag & timer
   PREC   = accura    normal or accurate (medium, high low for compatibility)
   ISTART =      0    job   : 0-new  1-cont  2-samecut
   ICHARG =     11    charge: 1-file 2-atom 10-const
   ISPIN  =      1    spin polarized calculation?
   LNONCOLLINEAR =      F non collinear calculations
   LSORBIT =      F    spin-orbit coupling
   INIWAV =      1    electr: 0-lowe 1-rand  2-diag
   LASPH  =      F    aspherical Exc in radial PAW
   METAGGA=      F    non-selfconsistent MetaGGA calc.

 Electronic Relaxation 1
   ENCUT  =  500.0 eV  36.75 Ry    6.06 a.u.   7.00  7.00  7.00*2*pi/ulx,y,z
   ENINI  =  500.0     initial cutoff
   ENAUG  =  322.1 eV  augmentation charge cutoff
   NELM   =     60;   NELMIN=  2; NELMDL=  0     # of ELM steps 
   EDIFF  = 0.1E-05   stopping-criterion for ELM
   LREAL  =      F    real-space projection
   NLSPLINE    = F    spline interpolate recip. space projectors
   LCOMPAT=      F    compatible to vasp.4.4
   GGA_COMPAT  = T    GGA compatible to vasp.4.4-vasp.4.6
   LMAXPAW     = -100 max onsite density
   LMAXMIX     =    2 max onsite mixed and CHGCAR
   VOSKOWN=      0    Vosko Wilk Nusair interpolation
   ROPT   =    0.00000
 Ionic relaxation
   EDIFFG = -.5E-02   stopping-criterion for IOM
   NSW    =      1    number of steps for IOM
   NBLOCK =      1;   KBLOCK =      1    inner block; outer block 
   IBRION =      2    ionic relax: 0-MD 1-quasi-New 2-CG
   NFREE  =      1    steps in history (QN), initial steepest desc. (CG)
   ISIF   =      3    stress and relaxation
   IWAVPR =     11    prediction:  0-non 1-charg 2-wave 3-comb
   ISYM   =      2    0-nonsym 1-usesym 2-fastsym
   LCORR  =      T    Harris-Foulkes like correction to forces

   POTIM  = 0.5000    time-step for ionic-motion
   TEIN   =    0.0    initial temperature
   TEBEG  =    0.0;   TEEND  =   0.0 temperature during run
   SMASS  =  -3.00    Nose mass-parameter (am)
   estimated Nose-frequenzy (Omega)   =  0.10E-29 period in steps =****** mass=  -0.337E-27a.u.
   SCALEE = 1.0000    scale energy and forces
   NPACO  =    256;   APACO  = 16.0  distance and # of slots for P.C.
   PSTRESS=    0.0 pullay stress

  Mass of Ions in am
   POMASS =  28.09
  Ionic Valenz
   ZVAL   =   4.00
  Atomic Wigner-Seitz radii
   RWIGS  =  -1.00
  virtual crystal weights 
   VCA    =   1.00
   NELECT =       8.0000    total number of electrons
   NUPDOWN=      -1.0000    fix difference up-down

 DOS related values:
   EMIN   =  10.00;   EMAX   =-10.00  energy-range for DOS
   EFERMI =   0.00
   ISMEAR =     0;   SIGMA  =   0.01  broadening in eV -4-tet -1-fermi 0-gaus

 Electronic relaxation 2 (details)
   IALGO  =     38    algorithm
   LDIAG  =      T    sub-space diagonalisation (order eigenvalues)
   LSUBROT=      F    optimize rotation matrix (better conditioning)
   TURBO    =      0    0=normal 1=particle mesh
   IRESTART =      0    0=no restart 2=restart with 2 vectors
   NREBOOT  =      0    no. of reboots
   NMIN     =      0    reboot dimension
   EREF     =   0.00    reference energy to select bands
   IMIX   =      4    mixing-type and parameters
     AMIX     =   0.40;   BMIX     =  1.00
     AMIX_MAG =   1.60;   BMIX_MAG =  1.00
     AMIN     =   0.01
     WC   =   100.;   INIMIX=   1;  MIXPRE=   1;  MAXMIX= -45

 Intra band minimization:
   WEIMIN = 0.0010     energy-eigenvalue tresh-hold
   EBREAK =  0.31E-07  absolut break condition
   DEPER  =   0.30     relativ break condition  

   TIME   =   0.40     timestep for ELM

  volume/ion in A,a.u.               =      20.02       135.13
  Fermi-wavevector in a.u.,A,eV,Ry     =   0.956999  1.808467 12.460868  0.915848
  Thomas-Fermi vector in A             =   2.085978
 
 Write flags
   LWAVE  =      T    write WAVECAR
   LCHARG =      T    write CHGCAR
   LVTOT  =      F    write LOCPOT, total local potential
   LVHAR  =      F    write LOCPOT, Hartree potential only
   LELF   =      F    write electronic localiz. function (ELF)
   LORBIT =     10    0 simple, 1 ext, 2 COOP (PROOUT)


 Dipole corrections
   LMONO  =      F    monopole corrections only (constant potential shift)
   LDIPOL =      F    correct potential (dipole corrections)
   IDIPOL =      0    1-x, 2-y, 3-z, 4-all directions 
   EPSILON=  1.0000000 bulk dielectric constant

 Core level calculations are selected ICORELEVEL =  1
 Exchange correlation treatment:
   GGA     =    --    GGA type
   LEXCH   =     2    internal setting for exchange type
   VOSKOWN=      0    Vosko Wilk Nusair interpolation
   LHFCALC =     F    Hartree Fock is set to
   LHFONE  =     F    Hartree Fock one center treatment
   AEXX    =    0.0000 exact exchange contribution

 Linear response parameters
   LEPSILON=     F    determine dielectric tensor
   LRPA    =     F    only Hartree local field effects (RPA)
   LNABLA  =     F    use nabla operator in PAW spheres
   LVEL    =     F    velocity operator in full k-point grid
   LINTERFAST=   F  fast interpolation
   KINTER  =     0    interpolate to denser k-point grid
   CSHIFT  =0.1000    complex shift for real part using Kramers Kronig
   OMEGAMAX=  -1.0    maximum frequency
   DEG_THRESHOLD= 0.2000000E-02 threshold for treating states as degnerate
   RTIME   =    0.100 relaxation time in fs

 Orbital magnetization related:
   ORBITALMAG=     F  switch on orbital magnetization
   LCHIMAG   =     F  perturbation theory with respect to B field
   DQ        =  0.001000  dq finite difference perturbation B field



--------------------------------------------------------------------------------------------------------


 conjugate gradient relaxation of ions
 charge density and potential remain constant during run
 non-spin polarized calculation
 Variant of blocked Davidson
 Davidson routine will perform the subspace rotation
 perform sub-space diagonalisation
    after iterative eigenvector-optimisation
 no mixing
 using additional bands            4
 reciprocal scheme for non local part
 use partial core corrections
 calculate Harris-corrections to forces 
   (improved forces if not selfconsistent)
 use of overlap-Matrix (Vanderbilt PP)
 Gauss-broadening in eV      SIGMA  =   0.01


--------------------------------------------------------------------------------------------------------


  energy-cutoff  :      500.00
  volume of cell :       40.05
      direct lattice vectors                 reciprocal lattice vectors
     2.715500000  2.715500000  0.000000000     0.184128153  0.184128153  0.184128153
     2.715500000  0.000000000 -2.715500000     0.184128153 -0.184128153 -0.184128153
     0.000000000  2.715500000 -2.715500000    -0.184128153  0.184128153 -0.184128153

  length of vectors
     3.840296929  3.840296929  3.840296929     0.318919316  0.318919316  0.318919316


 
 k-points in units of 2pi/SCALE and weight: Automatically generated mesh: SCF=15,199
   0.00000000  0.00000000  0.00000000       0.005
   0.16666667  0.16666667  0.16666667       0.039
   0.33333333  0.33333333  0.33333333       0.039
   0.50000000  0.50000000  0.50000000       0.020
   0.33333333  0.00000000  0.00000000       0.029
   0.50000000  0.16666667  0.16666667       0.118
   0.66666667  0.33333333  0.33333333       0.118
  -0.16666667 -0.50000000 -0.50000000       0.118
   0.00000000 -0.33333333 -0.33333333       0.059
   0.66666667  0.00000000  0.00000000       0.029
   0.83333333  0.16666667  0.16666667       0.118
   0.00000000 -0.66666667 -0.66666667       0.059
   1.00000000  0.00000000  0.00000000       0.015
   0.66666667  0.33333333  0.00000000       0.118
  -0.16666667 -0.50000000 -0.83333333       0.118
   0.00000000  0.00000000  0.00000000       0.000
  -0.00502513  0.00502513 -0.00502513       0.000
  -0.01005025  0.01005025 -0.01005025       0.000
  -0.01507538  0.01507538 -0.01507538       0.000
  -0.02010050  0.02010050 -0.02010050       0.000
  -0.02512563  0.02512563 -0.02512563       0.000
  -0.03015075  0.03015075 -0.03015075       0.000
  -0.03517588  0.03517588 -0.03517588       0.000
  -0.04020100  0.04020100 -0.04020100       0.000
  -0.04522613  0.04522613 -0.04522613       0.000
  -0.05025126  0.05025126 -0.05025126       0.000
  -0.05527638  0.05527638 -0.05527638       0.000
  -0.06030151  0.06030151 -0.06030151       0.000
  -0.06532663  0.06532663 -0.06532663       0.000
  -0.07035176  0.07035176 -0.07035176       0.000
  -0.07537688  0.07537688 -0.07537688       0.000
  -0.08040201  0.08040201 -0.08040201       0.000
  -0.08542714  0.08542714 -0.08542714       0.000
  -0.09045226  0.09045226 -0.09045226       0.000
  -0.09547739  0.09547739 -0.09547739       0.000
  -0.10050251  0.10050251 -0.10050251       0.000
  -0.10552764  0.10552764 -0.10552764       0.000
  -0.11055277  0.11055277 -0.11055277       0.000
  -0.11557789  0.11557789 -0.11557789       0.000
  -0.12060301  0.12060301 -0.12060301       0.000
  -0.12562814  0.12562814 -0.12562814       0.000
  -0.13065326  0.13065326 -0.13065326       0.000
  -0.13567840  0.13567840 -0.13567840       0.000
  -0.14070351  0.14070351 -0.14070351       0.000
  -0.14572865  0.14572865 -0.14572865       0.000
  -0.15075377  0.15075377 -0.15075377       0.000
  -0.15577890  0.15577890 -0.15577890       0.000
  -0.16080402  0.16080402 -0.16080402       0.000
  -0.16582914  0.16582914 -0.16582914       0.000
  -0.17085427  0.17085427 -0.17085427       0.000
  -0.17587939  0.17587939 -0.17587939       0.000
  -0.18090452  0.18090452 -0.18090452       0.000
  -0.18592964  0.18592964 -0.18592964       0.000
  -0.19095477  0.19095477 -0.19095477       0.000
  -0.19597989  0.19597989 -0.19597989       0.000
  -0.20100503  0.20100503 -0.20100503       0.000
  -0.20603015  0.20603015 -0.20603015       0.000
  -0.21105528  0.21105528 -0.21105528       0.000
  -0.21608040  0.21608040 -0.21608040       0.000
  -0.22110553  0.22110553 -0.22110553       0.000
  -0.22613065  0.22613065 -0.22613065       0.000
  -0.23115578  0.23115578 -0.23115578       0.000
  -0.23618090  0.23618090 -0.23618090       0.000
  -0.24120602  0.24120602 -0.24120602       0.000
  -0.24623115  0.24623115 -0.24623115       0.000
  -0.25125629  0.25125629 -0.25125629       0.000
  -0.25628141  0.25628141 -0.25628141       0.000
  -0.26130652  0.26130652 -0.26130652       0.000
  -0.26633164  0.26633164 -0.26633164       0.000
  -0.27135679  0.27135679 -0.27135679       0.000
  -0.27638191  0.27638191 -0.27638191       0.000
  -0.28140703  0.28140703 -0.28140703       0.000
  -0.28643215  0.28643215 -0.28643215       0.000
  -0.29145730  0.29145730 -0.29145730       0.000
  -0.29648241  0.29648241 -0.29648241       0.000
  -0.30150753  0.30150753 -0.30150753       0.000
  -0.30653265  0.30653265 -0.30653265       0.000
  -0.31155780  0.31155780 -0.31155780       0.000
  -0.31658292  0.31658292 -0.31658292       0.000
  -0.32160804  0.32160804 -0.32160804       0.000
  -0.32663316  0.32663316 -0.32663316       0.000
  -0.33165827  0.33165827 -0.33165827       0.000
  -0.33668342  0.33668342 -0.33668342       0.000
  -0.34170854  0.34170854 -0.34170854       0.000
  -0.34673366  0.34673366 -0.34673366       0.000
  -0.35175878  0.35175878 -0.35175878       0.000
  -0.35678393  0.35678393 -0.35678393       0.000
  -0.36180905  0.36180905 -0.36180905       0.000
  -0.36683416  0.36683416 -0.36683416       0.000
  -0.37185928  0.37185928 -0.37185928       0.000
  -0.37688443  0.37688443 -0.37688443       0.000
  -0.38190955  0.38190955 -0.38190955       0.000
  -0.38693467  0.38693467 -0.38693467       0.000
  -0.39195979  0.39195979 -0.39195979       0.000
  -0.39698493  0.39698493 -0.39698493       0.000
  -0.40201005  0.40201005 -0.40201005       0.000
  -0.40703517  0.40703517 -0.40703517       0.000
  -0.41206029  0.41206029 -0.41206029       0.000
  -0.41708541  0.41708541 -0.41708541       0.000
  -0.42211056  0.42211056 -0.42211056       0.000
  -0.42713568  0.42713568 -0.42713568       0.000
  -0.43216079  0.43216079 -0.43216079       0.000
  -0.43718591  0.43718591 -0.43718591       0.000
  -0.44221106  0.44221106 -0.44221106       0.000
  -0.44723618  0.44723618 -0.44723618       0.000
  -0.45226130  0.45226130 -0.45226130       0.000
  -0.45728642  0.45728642 -0.45728642       0.000
  -0.46231157  0.46231157 -0.46231157       0.000
  -0.46733668  0.46733668 -0.46733668       0.000
  -0.47236180  0.47236180 -0.47236180       0.000
  -0.47738692  0.47738692 -0.47738692       0.000
  -0.48241204  0.48241204 -0.48241204       0.000
  -0.48743719  0.48743719 -0.48743719       0.000
  -0.49246231  0.49246231 -0.49246231       0.000
  -0.49748743  0.49748743 -0.49748743       0.000
  -0.50251257  0.50251257 -0.50251257       0.000
  -0.50753766  0.50753766 -0.50753766       0.000
  -0.51256281  0.51256281 -0.51256281       0.000
  -0.51758796  0.51758796 -0.51758796       0.000
  -0.52261305  0.52261305 -0.52261305       0.000
  -0.52763820  0.52763820 -0.52763820       0.000
  -0.53266329  0.53266329 -0.53266329       0.000
  -0.53768843  0.53768843 -0.53768843       0.000
  -0.54271358  0.54271358 -0.54271358       0.000
  -0.54773867  0.54773867 -0.54773867       0.000
  -0.55276382  0.55276382 -0.55276382       0.000
  -0.55778897  0.55778897 -0.55778897       0.000
  -0.56281406  0.56281406 -0.56281406       0.000
  -0.56783921  0.56783921 -0.56783921       0.000
  -0.57286429  0.57286429 -0.57286429       0.000
  -0.57788944  0.57788944 -0.57788944       0.000
  -0.58291459  0.58291459 -0.58291459       0.000
  -0.58793968  0.58793968 -0.58793968       0.000
  -0.59296483  0.59296483 -0.59296483       0.000
  -0.59798992  0.59798992 -0.59798992       0.000
  -0.60301507  0.60301507 -0.60301507       0.000
  -0.60804021  0.60804021 -0.60804021       0.000
  -0.61306530  0.61306530 -0.61306530       0.000
  -0.61809045  0.61809045 -0.61809045       0.000
  -0.62311560  0.62311560 -0.62311560       0.000
  -0.62814069  0.62814069 -0.62814069       0.000
  -0.63316584  0.63316584 -0.63316584       0.000
  -0.63819093  0.63819093 -0.63819093       0.000
  -0.64321607  0.64321607 -0.64321607       0.000
  -0.64824122  0.64824122 -0.64824122       0.000
  -0.65326631  0.65326631 -0.65326631       0.000
  -0.65829146  0.65829146 -0.65829146       0.000
  -0.66331655  0.66331655 -0.66331655       0.000
  -0.66834170  0.66834170 -0.66834170       0.000
  -0.67336684  0.67336684 -0.67336684       0.000
  -0.67839193  0.67839193 -0.67839193       0.000
  -0.68341708  0.68341708 -0.68341708       0.000
  -0.68844223  0.68844223 -0.68844223       0.000
  -0.69346732  0.69346732 -0.69346732       0.000
  -0.69849247  0.69849247 -0.69849247       0.000
  -0.70351756  0.70351756 -0.70351756       0.000
  -0.70854270  0.70854270 -0.70854270       0.000
  -0.71356785  0.71356785 -0.71356785       0.000
  -0.71859294  0.71859294 -0.71859294       0.000
  -0.72361809  0.72361809 -0.72361809       0.000
  -0.72864318  0.72864318 -0.72864318       0.000
  -0.73366833  0.73366833 -0.73366833       0.000
  -0.73869348  0.73869348 -0.73869348       0.000
  -0.74371856  0.74371856 -0.74371856       0.000
  -0.74874371  0.74874371 -0.74874371       0.000
  -0.75376886  0.75376886 -0.75376886       0.000
  -0.75879395  0.75879395 -0.75879395       0.000
  -0.76381910  0.76381910 -0.76381910       0.000
  -0.76884419  0.76884419 -0.76884419       0.000
  -0.77386934  0.77386934 -0.77386934       0.000
  -0.77889448  0.77889448 -0.77889448       0.000
  -0.78391957  0.78391957 -0.78391957       0.000
  -0.78894472  0.78894472 -0.78894472       0.000
  -0.79396987  0.79396987 -0.79396987       0.000
  -0.79899496  0.79899496 -0.79899496       0.000
  -0.80402011  0.80402011 -0.80402011       0.000
  -0.80904520  0.80904520 -0.80904520       0.000
  -0.81407034  0.81407034 -0.81407034       0.000
  -0.81909549  0.81909549 -0.81909549       0.000
  -0.82412058  0.82412058 -0.82412058       0.000
  -0.82914573  0.82914573 -0.82914573       0.000
  -0.83417082  0.83417082 -0.83417082       0.000
  -0.83919597  0.83919597 -0.83919597       0.000
  -0.84422112  0.84422112 -0.84422112       0.000
  -0.84924620  0.84924620 -0.84924620       0.000
  -0.85427135  0.85427135 -0.85427135       0.000
  -0.85929650  0.85929650 -0.85929650       0.000
  -0.86432159  0.86432159 -0.86432159       0.000
  -0.86934674  0.86934674 -0.86934674       0.000
  -0.87437183  0.87437183 -0.87437183       0.000
  -0.87939698  0.87939698 -0.87939698       0.000
  -0.88442212  0.88442212 -0.88442212       0.000
  -0.88944721  0.88944721 -0.88944721       0.000
  -0.89447236  0.89447236 -0.89447236       0.000
  -0.89949745  0.89949745 -0.89949745       0.000
  -0.90452260  0.90452260 -0.90452260       0.000
  -0.90954775  0.90954775 -0.90954775       0.000
  -0.91457283  0.91457283 -0.91457283       0.000
  -0.91959798  0.91959798 -0.91959798       0.000
  -0.92462313  0.92462313 -0.92462313       0.000
  -0.92964822  0.92964822 -0.92964822       0.000
  -0.93467337  0.93467337 -0.93467337       0.000
  -0.93969846  0.93969846 -0.93969846       0.000
  -0.94472361  0.94472361 -0.94472361       0.000
  -0.94974875  0.94974875 -0.94974875       0.000
  -0.95477384  0.95477384 -0.95477384       0.000
  -0.95979899  0.95979899 -0.95979899       0.000
  -0.96482408  0.96482408 -0.96482408       0.000
  -0.96984923  0.96984923 -0.96984923       0.000
  -0.97487438  0.97487438 -0.97487438       0.000
  -0.97989947  0.97989947 -0.97989947       0.000
  -0.98492461  0.98492461 -0.98492461       0.000
  -0.98994976  0.98994976 -0.98994976       0.000
  -0.99497485  0.99497485 -0.99497485       0.000
 
 k-points in reciprocal lattice and weights: Automatically generated mesh: SCF=15,199
   0.00000000  0.00000000  0.00000000       0.005
   0.16666667  0.00000000  0.00000000       0.039
   0.33333333  0.00000000  0.00000000       0.039
   0.50000000  0.00000000  0.00000000       0.020
   0.16666667  0.16666667  0.00000000       0.029
   0.33333333  0.16666667  0.00000000       0.118
   0.50000000  0.16666667  0.00000000       0.118
  -0.33333333  0.16666667  0.00000000       0.118
  -0.16666667  0.16666667  0.00000000       0.059
   0.33333333  0.33333333  0.00000000       0.029
   0.50000000  0.33333333  0.00000000       0.118
  -0.33333333  0.33333333  0.00000000       0.059
   0.50000000  0.50000000  0.00000000       0.015
   0.50000000  0.33333333  0.16666667       0.118
  -0.33333333  0.33333333  0.16666667       0.118
   0.00000000  0.00000000  0.00000000       0.000
   0.00000000  0.00000000  0.00502513       0.000
   0.00000000  0.00000000  0.01005025       0.000
   0.00000000  0.00000000  0.01507538       0.000
   0.00000000  0.00000000  0.02010050       0.000
   0.00000000  0.00000000  0.02512563       0.000
   0.00000000  0.00000000  0.03015075       0.000
   0.00000000  0.00000000  0.03517588       0.000
   0.00000000  0.00000000  0.04020100       0.000
   0.00000000  0.00000000  0.04522613       0.000
   0.00000000  0.00000000  0.05025126       0.000
   0.00000000  0.00000000  0.05527638       0.000
   0.00000000  0.00000000  0.06030151       0.000
   0.00000000  0.00000000  0.06532663       0.000
   0.00000000  0.00000000  0.07035176       0.000
   0.00000000  0.00000000  0.07537688       0.000
   0.00000000  0.00000000  0.08040201       0.000
   0.00000000  0.00000000  0.08542714       0.000
   0.00000000  0.00000000  0.09045226       0.000
   0.00000000  0.00000000  0.09547739       0.000
   0.00000000  0.00000000  0.10050251       0.000
   0.00000000  0.00000000  0.10552764       0.000
   0.00000000  0.00000000  0.11055277       0.000
   0.00000000  0.00000000  0.11557789       0.000
   0.00000000  0.00000000  0.12060301       0.000
   0.00000000  0.00000000  0.12562814       0.000
   0.00000000  0.00000000  0.13065326       0.000
   0.00000000  0.00000000  0.13567840       0.000
   0.00000000  0.00000000  0.14070351       0.000
   0.00000000  0.00000000  0.14572865       0.000
   0.00000000  0.00000000  0.15075377       0.000
   0.00000000  0.00000000  0.15577890       0.000
   0.00000000  0.00000000  0.16080402       0.000
   0.00000000  0.00000000  0.16582914       0.000
   0.00000000  0.00000000  0.17085427       0.000
   0.00000000  0.00000000  0.17587939       0.000
   0.00000000  0.00000000  0.18090452       0.000
   0.00000000  0.00000000  0.18592964       0.000
   0.00000000  0.00000000  0.19095477       0.000
   0.00000000  0.00000000  0.19597989       0.000
   0.00000000  0.00000000  0.20100503       0.000
   0.00000000  0.00000000  0.20603015       0.000
   0.00000000  0.00000000  0.21105528       0.000
   0.00000000  0.00000000  0.21608040       0.000
   0.00000000  0.00000000  0.22110553       0.000
   0.00000000  0.00000000  0.22613065       0.000
   0.00000000  0.00000000  0.23115578       0.000
   0.00000000  0.00000000  0.23618090       0.000
   0.00000000  0.00000000  0.24120602       0.000
   0.00000000  0.00000000  0.24623115       0.000
   0.00000000  0.00000000  0.25125629       0.000
   0.00000000  0.00000000  0.25628141       0.000
   0.00000000  0.00000000  0.26130652       0.000
   0.00000000  0.00000000  0.26633164       0.000
   0.00000000  0.00000000  0.27135679       0.000
   0.00000000  0.00000000  0.27638191       0.000
   0.00000000  0.00000000  0.28140703       0.000
   0.00000000  0.00000000  0.28643215       0.000
   0.00000000  0.00000000  0.29145730       0.000
   0.00000000  0.00000000  0.29648241       0.000
   0.00000000  0.00000000  0.30150753       0.000
   0.00000000  0.00000000  0.30653265       0.000
   0.00000000  0.00000000  0.31155780       0.000
   0.00000000  0.00000000  0.31658292       0.000
   0.00000000  0.00000000  0.32160804       0.000
   0.00000000  0.00000000  0.32663316       0.000
   0.00000000  0.00000000  0.33165827       0.000
   0.00000000  0.00000000  0.33668342       0.000
   0.00000000  0.00000000  0.34170854       0.000
   0.00000000  0.00000000  0.34673366       0.000
   0.00000000  0.00000000  0.35175878       0.000
   0.00000000  0.00000000  0.35678393       0.000
   0.00000000  0.00000000  0.36180905       0.000
   0.00000000  0.00000000  0.36683416       0.000
   0.00000000  0.00000000  0.37185928       0.000
   0.00000000  0.00000000  0.37688443       0.000
   0.00000000  0.00000000  0.38190955       0.000
   0.00000000  0.00000000  0.38693467       0.000
   0.00000000  0.00000000  0.39195979       0.000
   0.00000000  0.00000000  0.39698493       0.000
   0.00000000  0.00000000  0.40201005       0.000
   0.00000000  0.00000000  0.40703517       0.000
   0.00000000  0.00000000  0.41206029       0.000
   0.00000000  0.00000000  0.41708541       0.000
   0.00000000  0.00000000  0.42211056       0.000
   0.00000000  0.00000000  0.42713568       0.000
   0.00000000  0.00000000  0.43216079       0.000
   0.00000000  0.00000000  0.43718591       0.000
   0.00000000  0.00000000  0.44221106       0.000
   0.00000000  0.00000000  0.44723618       0.000
   0.00000000  0.00000000  0.45226130       0.000
   0.00000000  0.00000000  0.45728642       0.000
   0.00000000  0.00000000  0.46231157       0.000
   0.00000000  0.00000000  0.46733668       0.000
   0.00000000  0.00000000  0.47236180       0.000
   0.00000000  0.00000000  0.47738692       0.000
   0.00000000  0.00000000  0.48241204       0.000
   0.00000000  0.00000000  0.48743719       0.000
   0.00000000  0.00000000  0.49246231       0.000
   0.00000000  0.00000000  0.49748743       0.000
   0.00000000  0.00000000  0.50251257       0.000
   0.00000000  0.00000000  0.50753766       0.000
   0.00000000  0.00000000  0.51256281       0.000
   0.00000000  0.00000000  0.51758796       0.000
   0.00000000  0.00000000  0.52261305       0.000
   0.00000000  0.00000000  0.52763820       0.000
   0.00000000  0.00000000  0.53266329       0.000
   0.00000000  0.00000000  0.53768843       0.000
   0.00000000  0.00000000  0.54271358       0.000
   0.00000000  0.00000000  0.54773867       0.000
   0.00000000  0.00000000  0.55276382       0.000
   0.00000000  0.00000000  0.55778897       0.000
   0.00000000  0.00000000  0.56281406       0.000
   0.00000000  0.00000000  0.56783921       0.000
   0.00000000  0.00000000  0.57286429       0.000
   0.00000000  0.00000000  0.57788944       0.000
   0.00000000  0.00000000  0.58291459       0.000
   0.00000000  0.00000000  0.58793968       0.000
   0.00000000  0.00000000  0.59296483       0.000
   0.00000000  0.00000000  0.59798992       0.000
   0.00000000  0.00000000  0.60301507       0.000
   0.00000000  0.00000000  0.60804021       0.000
   0.00000000  0.00000000  0.61306530       0.000
   0.00000000  0.00000000  0.61809045       0.000
   0.00000000  0.00000000  0.62311560       0.000
   0.00000000  0.00000000  0.62814069       0.000
   0.00000000  0.00000000  0.63316584       0.000
   0.00000000  0.00000000  0.63819093       0.000
   0.00000000  0.00000000  0.64321607       0.000
   0.00000000  0.00000000  0.64824122       0.000
   0.00000000  0.00000000  0.65326631       0.000
   0.00000000  0.00000000  0.65829146       0.000
   0.00000000  0.00000000  0.66331655       0.000
   0.00000000  0.00000000  0.66834170       0.000
   0.00000000  0.00000000  0.67336684       0.000
   0.00000000  0.00000000  0.67839193       0.000
   0.00000000  0.00000000  0.68341708       0.000
   0.00000000  0.00000000  0.68844223       0.000
   0.00000000  0.00000000  0.69346732       0.000
   0.00000000  0.00000000  0.69849247       0.000
   0.00000000  0.00000000  0.70351756       0.000
   0.00000000  0.00000000  0.70854270       0.000
   0.00000000  0.00000000  0.71356785       0.000
   0.00000000  0.00000000  0.71859294       0.000
   0.00000000  0.00000000  0.72361809       0.000
   0.00000000  0.00000000  0.72864318       0.000
   0.00000000  0.00000000  0.73366833       0.000
   0.00000000  0.00000000  0.73869348       0.000
   0.00000000  0.00000000  0.74371856       0.000
   0.00000000  0.00000000  0.74874371       0.000
   0.00000000  0.00000000  0.75376886       0.000
   0.00000000  0.00000000  0.75879395       0.000
   0.00000000  0.00000000  0.76381910       0.000
   0.00000000  0.00000000  0.76884419       0.000
   0.00000000  0.00000000  0.77386934       0.000
   0.00000000  0.00000000  0.77889448       0.000
   0.00000000  0.00000000  0.78391957       0.000
   0.00000000  0.00000000  0.78894472       0.000
   0.00000000  0.00000000  0.79396987       0.000
   0.00000000  0.00000000  0.79899496       0.000
   0.00000000  0.00000000  0.80402011       0.000
   0.00000000  0.00000000  0.80904520       0.000
   0.00000000  0.00000000  0.81407034       0.000
   0.00000000  0.00000000  0.81909549       0.000
   0.00000000  0.00000000  0.82412058       0.000
   0.00000000  0.00000000  0.82914573       0.000
   0.00000000  0.00000000  0.83417082       0.000
   0.00000000  0.00000000  0.83919597       0.000
   0.00000000  0.00000000  0.84422112       0.000
   0.00000000  0.00000000  0.84924620       0.000
   0.00000000  0.00000000  0.85427135       0.000
   0.00000000  0.00000000  0.85929650       0.000
   0.00000000  0.00000000  0.86432159       0.000
   0.00000000  0.00000000  0.86934674       0.000
   0.00000000  0.00000000  0.87437183       0.000
   0.00000000  0.00000000  0.87939698       0.000
   0.00000000  0.00000000  0.88442212       0.000
   0.00000000  0.00000000  0.88944721       0.000
   0.00000000  0.00000000  0.89447236       0.000
   0.00000000  0.00000000  0.89949745       0.000
   0.00000000  0.00000000  0.90452260       0.000
   0.00000000  0.00000000  0.90954775       0.000
   0.00000000  0.00000000  0.91457283       0.000
   0.00000000  0.00000000  0.91959798       0.000
   0.00000000  0.00000000  0.92462313       0.000
   0.00000000  0.00000000  0.92964822       0.000
   0.00000000  0.00000000  0.93467337       0.000
   0.00000000  0.00000000  0.93969846       0.000
   0.00000000  0.00000000  0.94472361       0.000
   0.00000000  0.00000000  0.94974875       0.000
   0.00000000  0.00000000  0.95477384       0.000
   0.00000000  0.00000000  0.95979899       0.000
   0.00000000  0.00000000  0.96482408       0.000
   0.00000000  0.00000000  0.96984923       0.000
   0.00000000  0.00000000  0.97487438       0.000
   0.00000000  0.00000000  0.97989947       0.000
   0.00000000  0.00000000  0.98492461       0.000
   0.00000000  0.00000000  0.98994976       0.000
   0.00000000  0.00000000  0.99497485       0.000
 
 position of ions in fractional coordinates (direct lattice) 
   0.00000000  0.00000000  0.00000000
   0.25000000  0.25000000  0.25000000
 
 position of ions in cartesian coordinates  (Angst):
   0.00000000  0.00000000  0.00000000
   1.35775000  1.35775000 -1.35775000
 


--------------------------------------------------------------------------------------------------------


 k-point  1 :   0.0000 0.0000 0.0000  plane waves:     965
 k-point  2 :   0.1667 0.0000 0.0000  plane waves:     989
 k-point  3 :   0.3333 0.0000 0.0000  plane waves:    1008
 k-point  4 :   0.5000 0.0000 0.0000  plane waves:    1008
 k-point  5 :   0.1667 0.1667 0.0000  plane waves:     998
 k-point  6 :   0.3333 0.1667 0.0000  plane waves:    1011
 k-point  7 :   0.5000 0.1667 0.0000  plane waves:    1017
 k-point  8 :  -0.3333 0.1667 0.0000  plane waves:    1019
 k-point  9 :  -0.1667 0.1667 0.0000  plane waves:    1013
 k-point 10 :   0.3333 0.3333 0.0000  plane waves:    1018
 k-point 11 :   0.5000 0.3333 0.0000  plane waves:    1012
 k-point 12 :  -0.3333 0.3333 0.0000  plane waves:    1015
 k-point 13 :   0.5000 0.5000 0.0000  plane waves:    1034
 k-point 14 :   0.5000 0.3333 0.1667  plane waves:    1032
 k-point 15 :  -0.3333 0.3333 0.1667  plane waves:    1020
 k-point 16 :   0.0000 0.0000 0.0000  plane waves:     965
 k-point 17 :   0.0000 0.0000 0.0050  plane waves:     965
 k-point 18 :   0.0000 0.0000 0.0101  plane waves:     965
 k-point 19 :   0.0000 0.0000 0.0151  plane waves:     965
 k-point 20 :   0.0000 0.0000 0.0201  plane waves:     965
 k-point 21 :   0.0000 0.0000 0.0251  plane waves:     965
 k-point 22 :   0.0000 0.0000 0.0302  plane waves:     968
 k-point 23 :   0.0000 0.0000 0.0352  plane waves:     974
 k-point 24 :   0.0000 0.0000 0.0402  plane waves:     977
 k-point 25 :   0.0000 0.0000 0.0452  plane waves:     977
 k-point 26 :   0.0000 0.0000 0.0503  plane waves:     977
 k-point 27 :   0.0000 0.0000 0.0553  plane waves:     983
 k-point 28 :   0.0000 0.0000 0.0603  plane waves:     983
 k-point 29 :   0.0000 0.0000 0.0653  plane waves:     980
 k-point 30 :   0.0000 0.0000 0.0704  plane waves:     992
 k-point 31 :   0.0000 0.0000 0.0754  plane waves:     992
 k-point 32 :   0.0000 0.0000 0.0804  plane waves:     992
 k-point 33 :   0.0000 0.0000 0.0854  plane waves:     992
 k-point 34 :   0.0000 0.0000 0.0905  plane waves:     992
 k-point 35 :   0.0000 0.0000 0.0955  plane waves:     992
 k-point 36 :   0.0000 0.0000 0.1005  plane waves:     995
 k-point 37 :   0.0000 0.0000 0.1055  plane waves:     995
 k-point 38 :   0.0000 0.0000 0.1106  plane waves:     995
 k-point 39 :   0.0000 0.0000 0.1156  plane waves:     995
 k-point 40 :   0.0000 0.0000 0.1206  plane waves:     995
 k-point 41 :   0.0000 0.0000 0.1256  plane waves:     989
 k-point 42 :   0.0000 0.0000 0.1307  plane waves:     989
 k-point 43 :   0.0000 0.0000 0.1357  plane waves:     989
 k-point 44 :   0.0000 0.0000 0.1407  plane waves:     989
 k-point 45 :   0.0000 0.0000 0.1457  plane waves:     989
 k-point 46 :   0.0000 0.0000 0.1508  plane waves:     989
 k-point 47 :   0.0000 0.0000 0.1558  plane waves:     989
 k-point 48 :   0.0000 0.0000 0.1608  plane waves:     989
 k-point 49 :   0.0000 0.0000 0.1658  plane waves:     989
 k-point 50 :   0.0000 0.0000 0.1709  plane waves:     989
 k-point 51 :   0.0000 0.0000 0.1759  plane waves:     995
 k-point 52 :   0.0000 0.0000 0.1809  plane waves:     995
 k-point 53 :   0.0000 0.0000 0.1859  plane waves:     995
 k-point 54 :   0.0000 0.0000 0.1910  plane waves:    1001
 k-point 55 :   0.0000 0.0000 0.1960  plane waves:    1001
 k-point 56 :   0.0000 0.0000 0.2010  plane waves:    1001
 k-point 57 :   0.0000 0.0000 0.2060  plane waves:    1001
 k-point 58 :   0.0000 0.0000 0.2111  plane waves:    1001
 k-point 59 :   0.0000 0.0000 0.2161  plane waves:    1001
 k-point 60 :   0.0000 0.0000 0.2211  plane waves:    1001
 k-point 61 :   0.0000 0.0000 0.2261  plane waves:    1001
 k-point 62 :   0.0000 0.0000 0.2312  plane waves:    1001
 k-point 63 :   0.0000 0.0000 0.2362  plane waves:    1001
 k-point 64 :   0.0000 0.0000 0.2412  plane waves:    1001
 k-point 65 :   0.0000 0.0000 0.2462  plane waves:    1001
 k-point 66 :   0.0000 0.0000 0.2513  plane waves:    1001
 k-point 67 :   0.0000 0.0000 0.2563  plane waves:    1013
 k-point 68 :   0.0000 0.0000 0.2613  plane waves:    1013
 k-point 69 :   0.0000 0.0000 0.2663  plane waves:    1007
 k-point 70 :   0.0000 0.0000 0.2714  plane waves:    1010
 k-point 71 :   0.0000 0.0000 0.2764  plane waves:    1010
 k-point 72 :   0.0000 0.0000 0.2814  plane waves:    1010
 k-point 73 :   0.0000 0.0000 0.2864  plane waves:    1011
 k-point 74 :   0.0000 0.0000 0.2915  plane waves:    1011
 k-point 75 :   0.0000 0.0000 0.2965  plane waves:    1011
 k-point 76 :   0.0000 0.0000 0.3015  plane waves:    1011
 k-point 77 :   0.0000 0.0000 0.3065  plane waves:    1008
 k-point 78 :   0.0000 0.0000 0.3116  plane waves:    1008
 k-point 79 :   0.0000 0.0000 0.3166  plane waves:    1008
 k-point 80 :   0.0000 0.0000 0.3216  plane waves:    1008
 k-point 81 :   0.0000 0.0000 0.3266  plane waves:    1008
 k-point 82 :   0.0000 0.0000 0.3317  plane waves:    1008
 k-point 83 :   0.0000 0.0000 0.3367  plane waves:    1008
 k-point 84 :   0.0000 0.0000 0.3417  plane waves:    1008
 k-point 85 :   0.0000 0.0000 0.3467  plane waves:    1008
 k-point 86 :   0.0000 0.0000 0.3518  plane waves:    1008
 k-point 87 :   0.0000 0.0000 0.3568  plane waves:    1008
 k-point 88 :   0.0000 0.0000 0.3618  plane waves:    1014
 k-point 89 :   0.0000 0.0000 0.3668  plane waves:    1014
 k-point 90 :   0.0000 0.0000 0.3719  plane waves:    1017
 k-point 91 :   0.0000 0.0000 0.3769  plane waves:    1017
 k-point 92 :   0.0000 0.0000 0.3819  plane waves:    1017
 k-point 93 :   0.0000 0.0000 0.3869  plane waves:    1017
 k-point 94 :   0.0000 0.0000 0.3920  plane waves:    1017
 k-point 95 :   0.0000 0.0000 0.3970  plane waves:    1017
 k-point 96 :   0.0000 0.0000 0.4020  plane waves:    1017
 k-point 97 :   0.0000 0.0000 0.4070  plane waves:    1023
 k-point 98 :   0.0000 0.0000 0.4121  plane waves:    1023
 k-point 99 :   0.0000 0.0000 0.4171  plane waves:    1023
 k-point ** :   0.0000 0.0000 0.4221  plane waves:    1023
 k-point ** :   0.0000 0.0000 0.4271  plane waves:    1023
 k-point ** :   0.0000 0.0000 0.4322  plane waves:    1023
 k-point ** :   0.0000 0.0000 0.4372  plane waves:    1026
 k-point ** :   0.0000 0.0000 0.4422  plane waves:    1026
 k-point ** :   0.0000 0.0000 0.4472  plane waves:    1026
 k-point ** :   0.0000 0.0000 0.4523  plane waves:    1026
 k-point ** :   0.0000 0.0000 0.4573  plane waves:    1026
 k-point ** :   0.0000 0.0000 0.4623  plane waves:    1020
 k-point ** :   0.0000 0.0000 0.4673  plane waves:    1020
 k-point ** :   0.0000 0.0000 0.4724  plane waves:    1020
 k-point ** :   0.0000 0.0000 0.4774  plane waves:    1014
 k-point ** :   0.0000 0.0000 0.4824  plane waves:    1008
 k-point ** :   0.0000 0.0000 0.4874  plane waves:    1008
 k-point ** :   0.0000 0.0000 0.4925  plane waves:    1008
 k-point ** :   0.0000 0.0000 0.4975  plane waves:    1008
 k-point ** :   0.0000 0.0000 0.5025  plane waves:    1008
 k-point ** :   0.0000 0.0000 0.5075  plane waves:    1008
 k-point ** :   0.0000 0.0000 0.5126  plane waves:    1008
 k-point ** :   0.0000 0.0000 0.5176  plane waves:    1008
 k-point ** :   0.0000 0.0000 0.5226  plane waves:    1014
 k-point ** :   0.0000 0.0000 0.5276  plane waves:    1020
 k-point ** :   0.0000 0.0000 0.5327  plane waves:    1020
 k-point ** :   0.0000 0.0000 0.5377  plane waves:    1020
 k-point ** :   0.0000 0.0000 0.5427  plane waves:    1026
 k-point ** :   0.0000 0.0000 0.5477  plane waves:    1026
 k-point ** :   0.0000 0.0000 0.5528  plane waves:    1026
 k-point ** :   0.0000 0.0000 0.5578  plane waves:    1026
 k-point ** :   0.0000 0.0000 0.5628  plane waves:    1026
 k-point ** :   0.0000 0.0000 0.5678  plane waves:    1023
 k-point ** :   0.0000 0.0000 0.5729  plane waves:    1023
 k-point ** :   0.0000 0.0000 0.5779  plane waves:    1023
 k-point ** :   0.0000 0.0000 0.5829  plane waves:    1023
 k-point ** :   0.0000 0.0000 0.5879  plane waves:    1023
 k-point ** :   0.0000 0.0000 0.5930  plane waves:    1023
 k-point ** :   0.0000 0.0000 0.5980  plane waves:    1017
 k-point ** :   0.0000 0.0000 0.6030  plane waves:    1017
 k-point ** :   0.0000 0.0000 0.6080  plane waves:    1017
 k-point ** :   0.0000 0.0000 0.6131  plane waves:    1017
 k-point ** :   0.0000 0.0000 0.6181  plane waves:    1017
 k-point ** :   0.0000 0.0000 0.6231  plane waves:    1017
 k-point ** :   0.0000 0.0000 0.6281  plane waves:    1017
 k-point ** :   0.0000 0.0000 0.6332  plane waves:    1014
 k-point ** :   0.0000 0.0000 0.6382  plane waves:    1014
 k-point ** :   0.0000 0.0000 0.6432  plane waves:    1008
 k-point ** :   0.0000 0.0000 0.6482  plane waves:    1008
 k-point ** :   0.0000 0.0000 0.6533  plane waves:    1008
 k-point ** :   0.0000 0.0000 0.6583  plane waves:    1008
 k-point ** :   0.0000 0.0000 0.6633  plane waves:    1008
 k-point ** :   0.0000 0.0000 0.6683  plane waves:    1008
 k-point ** :   0.0000 0.0000 0.6734  plane waves:    1008
 k-point ** :   0.0000 0.0000 0.6784  plane waves:    1008
 k-point ** :   0.0000 0.0000 0.6834  plane waves:    1008
 k-point ** :   0.0000 0.0000 0.6884  plane waves:    1008
 k-point ** :   0.0000 0.0000 0.6935  plane waves:    1008
 k-point ** :   0.0000 0.0000 0.6985  plane waves:    1011
 k-point ** :   0.0000 0.0000 0.7035  plane waves:    1011
 k-point ** :   0.0000 0.0000 0.7085  plane waves:    1011
 k-point ** :   0.0000 0.0000 0.7136  plane waves:    1011
 k-point ** :   0.0000 0.0000 0.7186  plane waves:    1010
 k-point ** :   0.0000 0.0000 0.7236  plane waves:    1010
 k-point ** :   0.0000 0.0000 0.7286  plane waves:    1010
 k-point ** :   0.0000 0.0000 0.7337  plane waves:    1007
 k-point ** :   0.0000 0.0000 0.7387  plane waves:    1013
 k-point ** :   0.0000 0.0000 0.7437  plane waves:    1013
 k-point ** :   0.0000 0.0000 0.7487  plane waves:    1001
 k-point ** :   0.0000 0.0000 0.7538  plane waves:    1001
 k-point ** :   0.0000 0.0000 0.7588  plane waves:    1001
 k-point ** :   0.0000 0.0000 0.7638  plane waves:    1001
 k-point ** :   0.0000 0.0000 0.7688  plane waves:    1001
 k-point ** :   0.0000 0.0000 0.7739  plane waves:    1001
 k-point ** :   0.0000 0.0000 0.7789  plane waves:    1001
 k-point ** :   0.0000 0.0000 0.7839  plane waves:    1001
 k-point ** :   0.0000 0.0000 0.7889  plane waves:    1001
 k-point ** :   0.0000 0.0000 0.7940  plane waves:    1001
 k-point ** :   0.0000 0.0000 0.7990  plane waves:    1001
 k-point ** :   0.0000 0.0000 0.8040  plane waves:    1001
 k-point ** :   0.0000 0.0000 0.8090  plane waves:    1001
 k-point ** :   0.0000 0.0000 0.8141  plane waves:     995
 k-point ** :   0.0000 0.0000 0.8191  plane waves:     995
 k-point ** :   0.0000 0.0000 0.8241  plane waves:     995
 k-point ** :   0.0000 0.0000 0.8291  plane waves:     989
 k-point ** :   0.0000 0.0000 0.8342  plane waves:     989
 k-point ** :   0.0000 0.0000 0.8392  plane waves:     989
 k-point ** :   0.0000 0.0000 0.8442  plane waves:     989
 k-point ** :   0.0000 0.0000 0.8492  plane waves:     989
 k-point ** :   0.0000 0.0000 0.8543  plane waves:     989
 k-point ** :   0.0000 0.0000 0.8593  plane waves:     989
 k-point ** :   0.0000 0.0000 0.8643  plane waves:     989
 k-point ** :   0.0000 0.0000 0.8693  plane waves:     989
 k-point ** :   0.0000 0.0000 0.8744  plane waves:     989
 k-point ** :   0.0000 0.0000 0.8794  plane waves:     995
 k-point ** :   0.0000 0.0000 0.8844  plane waves:     995
 k-point ** :   0.0000 0.0000 0.8894  plane waves:     995
 k-point ** :   0.0000 0.0000 0.8945  plane waves:     995
 k-point ** :   0.0000 0.0000 0.8995  plane waves:     995
 k-point ** :   0.0000 0.0000 0.9045  plane waves:     992
 k-point ** :   0.0000 0.0000 0.9095  plane waves:     992
 k-point ** :   0.0000 0.0000 0.9146  plane waves:     992
 k-point ** :   0.0000 0.0000 0.9196  plane waves:     992
 k-point ** :   0.0000 0.0000 0.9246  plane waves:     992
 k-point ** :   0.0000 0.0000 0.9296  plane waves:     992
 k-point ** :   0.0000 0.0000 0.9347  plane waves:     980
 k-point ** :   0.0000 0.0000 0.9397  plane waves:     983
 k-point ** :   0.0000 0.0000 0.9447  plane waves:     983
 k-point ** :   0.0000 0.0000 0.9497  plane waves:     977
 k-point ** :   0.0000 0.0000 0.9548  plane waves:     977
 k-point ** :   0.0000 0.0000 0.9598  plane waves:     977
 k-point ** :   0.0000 0.0000 0.9648  plane waves:     974
 k-point ** :   0.0000 0.0000 0.9698  plane waves:     968
 k-point ** :   0.0000 0.0000 0.9749  plane waves:     965
 k-point ** :   0.0000 0.0000 0.9799  plane waves:     965
 k-point ** :   0.0000 0.0000 0.9849  plane waves:     965
 k-point ** :   0.0000 0.0000 0.9899  plane waves:     965
 k-point ** :   0.0000 0.0000 0.9950  plane waves:     965

 maximum and minimum number of plane-waves per node :       186      138

 maximum number of plane-waves:      1034
 maximum index in each direction: 
   IXMAX=    7   IYMAX=    6   IZMAX=    7
   IXMIN=   -7   IYMIN=   -7   IZMIN=   -7

 WARNING: aliasing errors must be expected set NGX to  30 to avoid them
 NGY is ok and might be reduce to  28
 WARNING: aliasing errors must be expected set NGZ to  30 to avoid them
 aliasing errors are usually negligible using standard VASP settings
 and one can safely disregard these warnings

 parallel 3D FFT for wavefunctions:
    minimum data exchange during FFTs selected (reduces bandwidth)
 parallel 3D FFT for charge:
    minimum data exchange during FFTs selected (reduces bandwidth)


 total amount of memory used by VASP on root node    34891. kBytes
========================================================================

   base      :      30000. kBytes
   nonl-proj :       2525. kBytes
   fftplans  :        428. kBytes
   grid      :        621. kBytes
   one-center:          3. kBytes
   wavefun   :       1314. kBytes
 
     INWAV:  cpu time    0.0000: real time    0.0000
 initial charge density was supplied:
 number of electron       8.0000001 magnetization 
 keeping initial charge density in first step


--------------------------------------------------------------------------------------------------------


 Maximum index for augmentation-charges         1360 (set IRDMAX)


--------------------------------------------------------------------------------------------------------


 First call to EWALD:  gamma=   0.518
 Maximum number of real-space cells 3x 3x 3
 Maximum number of reciprocal cells 3x 3x 3

 FEWALD executed in parallel
    FEWALD:  cpu time    0.0040: real time    0.0026


----------------------------------------- Iteration    1(   1)  ---------------------------------------


    POTLOK:  cpu time    0.0000: real time    0.0014
    SETDIJ:  cpu time    0.0000: real time    0.0012
     EDDAV:  cpu time    0.1000: real time    0.1000
       DOS:  cpu time    0.0000: real time    0.0010
    --------------------------------------------
      LOOP:  cpu time    0.1080: real time    0.1249

 eigenvalue-minimisations  :  3424
 total energy-change (2. order) : 0.6483734E+01  (-0.3160422E+03)
 number of electron       8.0000001 magnetization 
 augmentation part        8.0000001 magnetization 

 Free energy of the ion-electron system (eV)
  ---------------------------------------------------
  alpha Z        PSCENC =         2.36771343
  Ewald energy   TEWEN  =      -228.52143995
  -Hartree energ DENC   =       -14.91421964
  -exchange      EXHF   =         0.00000000
  -V(xc)+E(xc)   XCENC  =       -17.96442577
  PAW double counting   =        75.27329546      -40.66766249
  entropy T*S    EENTRO =        -0.00017624
  eigenvalues    EBANDS =        24.04431576
  atomic energy  EATOM  =       206.86633348
  Solvation  Ediel_sol  =         0.00000000
  ---------------------------------------------------
  free energy    TOTEN  =         6.48373405 eV

  energy without entropy =        6.48391028  energy(sigma->0) =        6.48382216


--------------------------------------------------------------------------------------------------------




----------------------------------------- Iteration    1(   2)  ---------------------------------------


     EDDAV:  cpu time    0.1520: real time    0.1544
       DOS:  cpu time    0.0000: real time    0.0005
    --------------------------------------------
      LOOP:  cpu time    0.1560: real time    0.1624

 eigenvalue-minimisations  :  5512
 total energy-change (2. order) :-0.1785059E+02  (-0.1770421E+02)
 number of electron       8.0000001 magnetization 
 augmentation part        8.0000001 magnetization 

 Free energy of the ion-electron system (eV)
  ---------------------------------------------------
  alpha Z        PSCENC =         2.36771343
  Ewald energy   TEWEN  =      -228.52143995
  -Hartree energ DENC   =       -14.91421964
  -exchange      EXHF   =         0.00000000
  -V(xc)+E(xc)   XCENC  =       -17.96442577
  PAW double counting   =        75.27329546      -40.66766249
  entropy T*S    EENTRO =        -0.00000000
  eigenvalues    EBANDS =         6.19355165
  atomic energy  EATOM  =       206.86633348
  Solvation  Ediel_sol  =         0.00000000
  ---------------------------------------------------
  free energy    TOTEN  =       -11.36685384 eV

  energy without entropy =      -11.36685384  energy(sigma->0) =      -11.36685384


--------------------------------------------------------------------------------------------------------




----------------------------------------- Iteration    1(   3)  ---------------------------------------


     EDDAV:  cpu time    0.1160: real time    0.1152
       DOS:  cpu time    0.0000: real time    0.0005
    --------------------------------------------
      LOOP:  cpu time    0.1200: real time    0.1228

 eigenvalue-minimisations  :  3904
 total energy-change (2. order) :-0.2360045E+00  (-0.2360045E+00)
 number of electron       8.0000001 magnetization 
 augmentation part        8.0000001 magnetization 

 Free energy of the ion-electron system (eV)
  ---------------------------------------------------
  alpha Z        PSCENC =         2.36771343
  Ewald energy   TEWEN  =      -228.52143995
  -Hartree energ DENC   =       -14.91421964
  -exchange      EXHF   =         0.00000000
  -V(xc)+E(xc)   XCENC  =       -17.96442577
  PAW double counting   =        75.27329546      -40.66766249
  entropy T*S    EENTRO =        -0.00000000
  eigenvalues    EBANDS =         5.95754717
  atomic energy  EATOM  =       206.86633348
  Solvation  Ediel_sol  =         0.00000000
  ---------------------------------------------------
  free energy    TOTEN  =       -11.60285831 eV

  energy without entropy =      -11.60285831  energy(sigma->0) =      -11.60285831


--------------------------------------------------------------------------------------------------------




----------------------------------------- Iteration    1(   4)  ---------------------------------------


     EDDAV:  cpu time    0.1720: real time    0.1704
       DOS:  cpu time    0.0000: real time    0.0007
    --------------------------------------------
      LOOP:  cpu time    0.1720: real time    0.1784

 eigenvalue-minimisations  :  5600
 total energy-change (2. order) :-0.1217660E-02  (-0.1217660E-02)
 number of electron       8.0000001 magnetization 
 augmentation part        8.0000001 magnetization 

 Free energy of the ion-electron system (eV)
  ---------------------------------------------------
  alpha Z        PSCENC =         2.36771343
  Ewald energy   TEWEN  =      -228.52143995
  -Hartree energ DENC   =       -14.91421964
  -exchange      EXHF   =         0.00000000
  -V(xc)+E(xc)   XCENC  =       -17.96442577
  PAW double counting   =        75.27329546      -40.66766249
  entropy T*S    EENTRO =        -0.00000000
  eigenvalues    EBANDS =         5.95632951
  atomic energy  EATOM  =       206.86633348
  Solvation  Ediel_sol  =         0.00000000
  ---------------------------------------------------
  free energy    TOTEN  =       -11.60407597 eV

  energy without entropy =      -11.60407597  energy(sigma->0) =      -11.60407597


--------------------------------------------------------------------------------------------------------




----------------------------------------- Iteration    1(   5)  ---------------------------------------


     EDDAV:  cpu time    0.1240: real time    0.1232
       DOS:  cpu time    0.0000: real time    0.0016
    --------------------------------------------
      LOOP:  cpu time    0.1240: real time    0.1319

 eigenvalue-minimisations  :  4176
 total energy-change (2. order) :-0.1020335E-05  (-0.1020335E-05)
 number of electron       8.0000001 magnetization 
 augmentation part        8.0000001 magnetization 

 Free energy of the ion-electron system (eV)
  ---------------------------------------------------
  alpha Z        PSCENC =         2.36771343
  Ewald energy   TEWEN  =      -228.52143995
  -Hartree energ DENC   =       -14.91421964
  -exchange      EXHF   =         0.00000000
  -V(xc)+E(xc)   XCENC  =       -17.96442577
  PAW double counting   =        75.27329546      -40.66766249
  entropy T*S    EENTRO =        -0.00000000
  eigenvalues    EBANDS =         5.95632849
  atomic energy  EATOM  =       206.86633348
  Solvation  Ediel_sol  =         0.00000000
  ---------------------------------------------------
  free energy    TOTEN  =       -11.60407699 eV

  energy without entropy =      -11.60407699  energy(sigma->0) =      -11.60407699


--------------------------------------------------------------------------------------------------------




----------------------------------------- Iteration    1(   6)  ---------------------------------------


     EDDAV:  cpu time    0.1560: real time    0.1560
       DOS:  cpu time    0.0000: real time    0.0005
    --------------------------------------------
      LOOP:  cpu time    0.1760: real time    0.1794

 eigenvalue-minimisations  :  5688
 total energy-change (2. order) :-0.8208644E-08  (-0.8208633E-08)
 number of electron       8.0000001 magnetization 
 augmentation part        8.0000001 magnetization 

 Free energy of the ion-electron system (eV)
  ---------------------------------------------------
  alpha Z        PSCENC =         2.36771343
  Ewald energy   TEWEN  =      -228.52143995
  -Hartree energ DENC   =       -14.91421964
  -exchange      EXHF   =         0.00000000
  -V(xc)+E(xc)   XCENC  =       -17.96442577
  PAW double counting   =        75.27329546      -40.66766249
  entropy T*S    EENTRO =        -0.00000000
  eigenvalues    EBANDS =         5.95632848
  atomic energy  EATOM  =       206.86633348
  Solvation  Ediel_sol  =         0.00000000
  ---------------------------------------------------
  free energy    TOTEN  =       -11.60407700 eV

  energy without entropy =      -11.60407700  energy(sigma->0) =      -11.60407700


--------------------------------------------------------------------------------------------------------




 the core state eigenenergies are
   1-  1s  -1763.7158  2s   -126.8064  2p    -83.6532
   2-  1s  -1763.7158  2s   -126.8064  2p    -83.6532
 
 E-fermi :   5.8506     XC(G=0):  -9.6022     alpha+bet :-12.0860


 k-point     1 :       0.0000    0.0000    0.0000
  band No.  band energies     occupation 
      1      -6.1818      2.00000
      2       5.7767      2.00000
      3       5.7767      2.00000
      4       5.7767      2.00000
      5       8.2967      0.00000
      6       8.2967      0.00000
      7       8.2967      0.00000
      8       8.9835      0.00000

 k-point     2 :       0.1667    0.0000    0.0000
  band No.  band energies     occupation 
      1      -5.8204      2.00000
      2       3.3798      2.00000
      3       5.3255      2.00000
      4       5.3255      2.00000
      5       8.0345      0.00000
      6       8.9432      0.00000
      7       8.9432      0.00000
      8      11.0927      0.00000

 k-point     3 :       0.3333    0.0000    0.0000
  band No.  band energies     occupation 
      1      -4.8033      2.00000
      2       0.4247      2.00000
      3       4.7777      2.00000
      4       4.7777      2.00000
      5       7.4304      0.00000
      6       9.2334      0.00000
      7       9.2334      0.00000
      8      13.4500      0.00000

 k-point     4 :       0.5000    0.0000    0.0000
  band No.  band energies     occupation 
      1      -3.8429      2.00000
      2      -1.2158      2.00000
      3       4.5809      2.00000
      4       4.5809      2.00000
      5       7.2023      0.00000
      6       9.0638      0.00000
      7       9.0638      0.00000
      8      13.2838      0.00000

 k-point     5 :       0.1667    0.1667    0.0000
  band No.  band energies     occupation 
      1      -5.6975      2.00000
      2       3.7244      2.00000
      3       4.5797      2.00000
      4       4.5797      2.00000
      5       7.4036      0.00000
      6       9.9657      0.00000
      7      10.0740      0.00000
      8      10.0740      0.00000

 k-point     6 :       0.3333    0.1667    0.0000
  band No.  band energies     occupation 
      1      -4.8816      2.00000
      2       1.3289      2.00000
      3       3.7679      2.00000
      4       4.0279      2.00000
      5       7.6572      0.00000
      6       9.7507      0.00000
      7      10.2220      0.00000
      8      10.7990      0.00000

 k-point     7 :       0.5000    0.1667    0.0000
  band No.  band energies     occupation 
      1      -3.6858      2.00000
      2      -0.8447      2.00000
      3       2.9802      2.00000
      4       3.9998      2.00000
      5       7.7253      0.00000
      6       9.8046      0.00000
      7      10.3454      0.00000
      8      12.1017      0.00000

 k-point     8 :      -0.3333    0.1667    0.0000
  band No.  band energies     occupation 
      1      -4.0728      2.00000
      2      -0.2433      2.00000
      3       2.7077      2.00000
      4       4.4806      2.00000
      5       8.1396      0.00000
      6       9.8072      0.00000
      7       9.9536      0.00000
      8      12.9625      0.00000

 k-point     9 :      -0.1667    0.1667    0.0000
  band No.  band energies     occupation 
      1      -5.2318      2.00000
      2       2.0484      2.00000
      3       3.3431      2.00000
      4       5.2141      2.00000
      5       8.7407      0.00000
      6       9.2872      0.00000
      7       9.5408      0.00000
      8      11.3236      0.00000

 k-point    10 :       0.3333    0.3333    0.0000
  band No.  band energies     occupation 
      1      -4.2772      2.00000
      2       0.7622      2.00000
      3       3.3560      2.00000
      4       3.3560      2.00000
      5       6.4018      0.00000
      6       7.6592      0.00000
      7      12.9657      0.00000
      8      12.9657      0.00000

 k-point    11 :       0.5000    0.3333    0.0000
  band No.  band energies     occupation 
      1      -3.1120      2.00000
      2      -0.7881      2.00000
      3       2.1195      2.00000
      4       3.2204      2.00000
      5       6.7337      0.00000
      6       8.4000      0.00000
      7      13.1547      0.00000
      8      13.1596      0.00000

 k-point    12 :      -0.3333    0.3333    0.0000
  band No.  band energies     occupation 
      1      -2.9123      2.00000
      2      -0.9953      2.00000
      3       1.3288      2.00000
      4       3.6637      2.00000
      5       7.2412      0.00000
      6      11.4810      0.00000
      7      12.1880      0.00000
      8      12.7530      0.00000

 k-point    13 :       0.5000    0.5000    0.0000
  band No.  band energies     occupation 
      1      -2.0380      2.00000
      2      -2.0380      2.00000
      3       2.9220      2.00000
      4       2.9220      2.00000
      5       6.3752      0.00000
      6       6.3752      0.00000
      7      15.7513      0.00000
      8      15.7518      0.00000

 k-point    14 :       0.5000    0.3333    0.1667
  band No.  band energies     occupation 
      1      -3.8905      2.00000
      2       0.1303      2.00000
      3       2.1807      2.00000
      4       3.4693      2.00000
      5       8.5487      0.00000
      6       9.3933      0.00000
      7       9.9339      0.00000
      8      12.7653      0.00000

 k-point    15 :      -0.3333    0.3333    0.1667
  band No.  band energies     occupation 
      1      -2.9019      2.00000
      2      -1.0710      2.00000
      3       1.7379      2.00000
      4       2.9981      2.00000
      5       9.0417      0.00000
      6       9.2515      0.00000
      7      11.7840      0.00000
      8      12.2060      0.00000

 k-point    16 :       0.0000    0.0000    0.0000
  band No.  band energies     occupation 
      1      -6.1818      2.00000
      2       5.7767      2.00000
      3       5.7767      2.00000
      4       5.7767      2.00000
      5       8.2967      0.00000
      6       8.2967      0.00000
      7       8.2967      0.00000
      8       8.9835      0.00000

 k-point    17 :       0.0000    0.0000    0.0050
  band No.  band energies     occupation 
      1      -6.1815      2.00000
      2       5.7726      2.00000
      3       5.7761      2.00000
      4       5.7761      2.00000
      5       8.2975      0.00000
      6       8.2975      0.00000
      7       8.2979      0.00000
      8       8.9858      0.00000

 k-point    18 :       0.0000    0.0000    0.0101
  band No.  band energies     occupation 
      1      -6.1805      2.00000
      2       5.7602      2.00000
      3       5.7744      2.00000
      4       5.7744      2.00000
      5       8.3001      0.00000
      6       8.3001      0.00000
      7       8.3012      0.00000
      8       8.9929      0.00000

 k-point    19 :       0.0000    0.0000    0.0151
  band No.  band energies     occupation 
      1      -6.1788      2.00000
      2       5.7398      2.00000
      3       5.7714      2.00000
      4       5.7714      2.00000
      5       8.3043      0.00000
      6       8.3043      0.00000
      7       8.3065      0.00000
      8       9.0048      0.00000

 k-point    20 :       0.0000    0.0000    0.0201
  band No.  band energies     occupation 
      1      -6.1765      2.00000
      2       5.7118      2.00000
      3       5.7674      2.00000
      4       5.7674      2.00000
      5       8.3102      0.00000
      6       8.3102      0.00000
      7       8.3131      0.00000
      8       9.0217      0.00000

 k-point    21 :       0.0000    0.0000    0.0251
  band No.  band energies     occupation 
      1      -6.1735      2.00000
      2       5.6765      2.00000
      3       5.7622      2.00000
      4       5.7622      2.00000
      5       8.3178      0.00000
      6       8.3178      0.00000
      7       8.3204      0.00000
      8       9.0439      0.00000

 k-point    22 :       0.0000    0.0000    0.0302
  band No.  band energies     occupation 
      1      -6.1699      2.00000
      2       5.6345      2.00000
      3       5.7559      2.00000
      4       5.7559      2.00000
      5       8.3269      0.00000
      6       8.3269      0.00000
      7       8.3278      0.00000
      8       9.0715      0.00000

 k-point    23 :       0.0000    0.0000    0.0352
  band No.  band energies     occupation 
      1      -6.1655      2.00000
      2       5.5863      2.00000
      3       5.7486      2.00000
      4       5.7486      2.00000
      5       8.3346      0.00000
      6       8.3376      0.00000
      7       8.3376      0.00000
      8       9.1047      0.00000

 k-point    24 :       0.0000    0.0000    0.0402
  band No.  band energies     occupation 
      1      -6.1606      2.00000
      2       5.5324      2.00000
      3       5.7402      2.00000
      4       5.7402      2.00000
      5       8.3404      0.00000
      6       8.3498      0.00000
      7       8.3498      0.00000
      8       9.1435      0.00000

 k-point    25 :       0.0000    0.0000    0.0452
  band No.  band energies     occupation 
      1      -6.1549      2.00000
      2       5.4733      2.00000
      3       5.7309      2.00000
      4       5.7309      2.00000
      5       8.3446      0.00000
      6       8.3635      0.00000
      7       8.3635      0.00000
      8       9.1877      0.00000

 k-point    26 :       0.0000    0.0000    0.0503
  band No.  band energies     occupation 
      1      -6.1486      2.00000
      2       5.4097      2.00000
      3       5.7206      2.00000
      4       5.7206      2.00000
      5       8.3470      0.00000
      6       8.3786      0.00000
      7       8.3786      0.00000
      8       9.2373      0.00000

 k-point    27 :       0.0000    0.0000    0.0553
  band No.  band energies     occupation 
      1      -6.1417      2.00000
      2       5.3419      2.00000
      3       5.7093      2.00000
      4       5.7093      2.00000
      5       8.3475      0.00000
      6       8.3951      0.00000
      7       8.3951      0.00000
      8       9.2917      0.00000

 k-point    28 :       0.0000    0.0000    0.0603
  band No.  band energies     occupation 
      1      -6.1341      2.00000
      2       5.2705      2.00000
      3       5.6973      2.00000
      4       5.6973      2.00000
      5       8.3460      0.00000
      6       8.4128      0.00000
      7       8.4128      0.00000
      8       9.3508      0.00000

 k-point    29 :       0.0000    0.0000    0.0653
  band No.  band energies     occupation 
      1      -6.1258      2.00000
      2       5.1959      2.00000
      3       5.6844      2.00000
      4       5.6844      2.00000
      5       8.3425      0.00000
      6       8.4317      0.00000
      7       8.4317      0.00000
      8       9.4141      0.00000

 k-point    30 :       0.0000    0.0000    0.0704
  band No.  band energies     occupation 
      1      -6.1169      2.00000
      2       5.1183      2.00000
      3       5.6707      2.00000
      4       5.6707      2.00000
      5       8.3372      0.00000
      6       8.4518      0.00000
      7       8.4518      0.00000
      8       9.4811      0.00000

 k-point    31 :       0.0000    0.0000    0.0754
  band No.  band energies     occupation 
      1      -6.1073      2.00000
      2       5.0383      2.00000
      3       5.6564      2.00000
      4       5.6564      2.00000
      5       8.3302      0.00000
      6       8.4729      0.00000
      7       8.4729      0.00000
      8       9.5514      0.00000

 k-point    32 :       0.0000    0.0000    0.0804
  band No.  band energies     occupation 
      1      -6.0970      2.00000
      2       4.9560      2.00000
      3       5.6414      2.00000
      4       5.6414      2.00000
      5       8.3216      0.00000
      6       8.4950      0.00000
      7       8.4950      0.00000
      8       9.6247      0.00000

 k-point    33 :       0.0000    0.0000    0.0854
  band No.  band energies     occupation 
      1      -6.0861      2.00000
      2       4.8718      2.00000
      3       5.6257      2.00000
      4       5.6257      2.00000
      5       8.3115      0.00000
      6       8.5180      0.00000
      7       8.5180      0.00000
      8       9.7005      0.00000

 k-point    34 :       0.0000    0.0000    0.0905
  band No.  band energies     occupation 
      1      -6.0746      2.00000
      2       4.7859      2.00000
      3       5.6096      2.00000
      4       5.6096      2.00000
      5       8.3001      0.00000
      6       8.5418      0.00000
      7       8.5418      0.00000
      8       9.7785      0.00000

 k-point    35 :       0.0000    0.0000    0.0955
  band No.  band energies     occupation 
      1      -6.0624      2.00000
      2       4.6985      2.00000
      3       5.5929      2.00000
      4       5.5929      2.00000
      5       8.2875      0.00000
      6       8.5664      0.00000
      7       8.5664      0.00000
      8       9.8585      0.00000

 k-point    36 :       0.0000    0.0000    0.1005
  band No.  band energies     occupation 
      1      -6.0495      2.00000
      2       4.6098      2.00000
      3       5.5757      2.00000
      4       5.5757      2.00000
      5       8.2738      0.00000
      6       8.5916      0.00000
      7       8.5916      0.00000
      8       9.9402      0.00000

 k-point    37 :       0.0000    0.0000    0.1055
  band No.  band energies     occupation 
      1      -6.0360      2.00000
      2       4.5199      2.00000
      3       5.5581      2.00000
      4       5.5581      2.00000
      5       8.2592      0.00000
      6       8.6174      0.00000
      7       8.6174      0.00000
      8      10.0234      0.00000

 k-point    38 :       0.0000    0.0000    0.1106
  band No.  band energies     occupation 
      1      -6.0219      2.00000
      2       4.4291      2.00000
      3       5.5402      2.00000
      4       5.5402      2.00000
      5       8.2437      0.00000
      6       8.6436      0.00000
      7       8.6436      0.00000
      8      10.1077      0.00000

 k-point    39 :       0.0000    0.0000    0.1156
  band No.  band energies     occupation 
      1      -6.0071      2.00000
      2       4.3374      2.00000
      3       5.5219      2.00000
      4       5.5219      2.00000
      5       8.2274      0.00000
      6       8.6703      0.00000
      7       8.6703      0.00000
      8      10.1932      0.00000

 k-point    40 :       0.0000    0.0000    0.1206
  band No.  band energies     occupation 
      1      -5.9916      2.00000
      2       4.2450      2.00000
      3       5.5033      2.00000
[...]
      6       8.9886      0.00000
      7       8.9886      0.00000
      8      11.2569      0.00000

 k-point   181 :       0.0000    0.0000    0.8291
  band No.  band energies     occupation 
      1      -5.8023      2.00000
      2       3.3006      2.00000
      3       5.3091      2.00000
      4       5.3091      2.00000
      5       8.0175      0.00000
      6       8.9641      0.00000
      7       8.9641      0.00000
      8      11.1673      0.00000

 k-point   182 :       0.0000    0.0000    0.8342
  band No.  band energies     occupation 
      1      -5.8240      2.00000
      2       3.3956      2.00000
      3       5.3288      2.00000
      4       5.3288      2.00000
      5       8.0379      0.00000
      6       8.9389      0.00000
      7       8.9389      0.00000
      8      11.0778      0.00000

 k-point   183 :       0.0000    0.0000    0.8392
  band No.  band energies     occupation 
      1      -5.8451      2.00000
      2       3.4907      2.00000
      3       5.3484      2.00000
      4       5.3484      2.00000
      5       8.0582      0.00000
      6       8.9132      0.00000
      7       8.9132      0.00000
      8      10.9882      0.00000

 k-point   184 :       0.0000    0.0000    0.8442
  band No.  band energies     occupation 
      1      -5.8657      2.00000
      2       3.5858      2.00000
      3       5.3681      2.00000
      4       5.3681      2.00000
      5       8.0783      0.00000
      6       8.8870      0.00000
      7       8.8870      0.00000
      8      10.8987      0.00000

 k-point   185 :       0.0000    0.0000    0.8492
  band No.  band energies     occupation 
      1      -5.8856      2.00000
      2       3.6807      2.00000
      3       5.3877      2.00000
      4       5.3877      2.00000
      5       8.0982      0.00000
      6       8.8604      0.00000
      7       8.8604      0.00000
      8      10.8093      0.00000

 k-point   186 :       0.0000    0.0000    0.8543
  band No.  band energies     occupation 
      1      -5.9048      2.00000
      2       3.7755      2.00000
      3       5.4073      2.00000
      4       5.4073      2.00000
      5       8.1178      0.00000
      6       8.8334      0.00000
      7       8.8334      0.00000
      8      10.7201      0.00000

 k-point   187 :       0.0000    0.0000    0.8593
  band No.  band energies     occupation 
      1      -5.9234      2.00000
      2       3.8701      2.00000
      3       5.4268      2.00000
      4       5.4268      2.00000
      5       8.1372      0.00000
      6       8.8063      0.00000
      7       8.8063      0.00000
      8      10.6311      0.00000

 k-point   188 :       0.0000    0.0000    0.8643
  band No.  band energies     occupation 
      1      -5.9414      2.00000
      2       3.9644      2.00000
      3       5.4462      2.00000
      4       5.4462      2.00000
      5       8.1562      0.00000
      6       8.7790      0.00000
      7       8.7790      0.00000
      8      10.5425      0.00000

 k-point   189 :       0.0000    0.0000    0.8693
  band No.  band energies     occupation 
      1      -5.9588      2.00000
      2       4.0584      2.00000
      3       5.4654      2.00000
      4       5.4654      2.00000
      5       8.1748      0.00000
      6       8.7517      0.00000
      7       8.7517      0.00000
      8      10.4543      0.00000

 k-point   190 :       0.0000    0.0000    0.8744
  band No.  band energies     occupation 
      1      -5.9755      2.00000
      2       4.1520      2.00000
      3       5.4845      2.00000
      4       5.4845      2.00000
      5       8.1929      0.00000
      6       8.7244      0.00000
      7       8.7244      0.00000
      8      10.3666      0.00000

 k-point   191 :       0.0000    0.0000    0.8794
  band No.  band energies     occupation 
      1      -5.9916      2.00000
      2       4.2450      2.00000
      3       5.5033      2.00000
      4       5.5033      2.00000
      5       8.2104      0.00000
      6       8.6972      0.00000
      7       8.6972      0.00000
      8      10.2795      0.00000

 k-point   192 :       0.0000    0.0000    0.8844
  band No.  band energies     occupation 
      1      -6.0071      2.00000
      2       4.3374      2.00000
      3       5.5219      2.00000
      4       5.5219      2.00000
      5       8.2274      0.00000
      6       8.6703      0.00000
      7       8.6703      0.00000
      8      10.1932      0.00000

 k-point   193 :       0.0000    0.0000    0.8894
  band No.  band energies     occupation 
      1      -6.0219      2.00000
      2       4.4291      2.00000
      3       5.5402      2.00000
      4       5.5402      2.00000
      5       8.2437      0.00000
      6       8.6436      0.00000
      7       8.6436      0.00000
      8      10.1077      0.00000

 k-point   194 :       0.0000    0.0000    0.8945
  band No.  band energies     occupation 
      1      -6.0360      2.00000
      2       4.5199      2.00000
      3       5.5581      2.00000
      4       5.5581      2.00000
      5       8.2592      0.00000
      6       8.6174      0.00000
      7       8.6174      0.00000
      8      10.0234      0.00000

 k-point   195 :       0.0000    0.0000    0.8995
  band No.  band energies     occupation 
      1      -6.0495      2.00000
      2       4.6098      2.00000
      3       5.5757      2.00000
      4       5.5757      2.00000
      5       8.2738      0.00000
      6       8.5916      0.00000
      7       8.5916      0.00000
      8       9.9402      0.00000

 k-point   196 :       0.0000    0.0000    0.9045
  band No.  band energies     occupation 
      1      -6.0624      2.00000
      2       4.6985      2.00000
      3       5.5929      2.00000
      4       5.5929      2.00000
      5       8.2875      0.00000
      6       8.5664      0.00000
      7       8.5664      0.00000
      8       9.8585      0.00000

 k-point   197 :       0.0000    0.0000    0.9095
  band No.  band energies     occupation 
      1      -6.0746      2.00000
      2       4.7859      2.00000
      3       5.6096      2.00000
      4       5.6096      2.00000
      5       8.3001      0.00000
      6       8.5418      0.00000
      7       8.5418      0.00000
      8       9.7785      0.00000

 k-point   198 :       0.0000    0.0000    0.9146
  band No.  band energies     occupation 
      1      -6.0861      2.00000
      2       4.8718      2.00000
      3       5.6257      2.00000
      4       5.6257      2.00000
      5       8.3115      0.00000
      6       8.5180      0.00000
      7       8.5180      0.00000
      8       9.7005      0.00000

 k-point   199 :       0.0000    0.0000    0.9196
  band No.  band energies     occupation 
      1      -6.0970      2.00000
      2       4.9560      2.00000
      3       5.6414      2.00000
      4       5.6414      2.00000
      5       8.3216      0.00000
      6       8.4950      0.00000
      7       8.4950      0.00000
      8       9.6247      0.00000

 k-point   200 :       0.0000    0.0000    0.9246
  band No.  band energies     occupation 
      1      -6.1073      2.00000
      2       5.0383      2.00000
      3       5.6564      2.00000
      4       5.6564      2.00000
      5       8.3302      0.00000
      6       8.4729      0.00000
      7       8.4729      0.00000
      8       9.5514      0.00000

 k-point   201 :       0.0000    0.0000    0.9296
  band No.  band energies     occupation 
      1      -6.1169      2.00000
      2       5.1183      2.00000
      3       5.6707      2.00000
      4       5.6707      2.00000
      5       8.3372      0.00000
      6       8.4518      0.00000
      7       8.4518      0.00000
      8       9.4811      0.00000

 k-point   202 :       0.0000    0.0000    0.9347
  band No.  band energies     occupation 
      1      -6.1258      2.00000
      2       5.1959      2.00000
      3       5.6844      2.00000
      4       5.6844      2.00000
      5       8.3425      0.00000
      6       8.4317      0.00000
      7       8.4317      0.00000
      8       9.4141      0.00000

 k-point   203 :       0.0000    0.0000    0.9397
  band No.  band energies     occupation 
      1      -6.1341      2.00000
      2       5.2705      2.00000
      3       5.6973      2.00000
      4       5.6973      2.00000
      5       8.3460      0.00000
      6       8.4128      0.00000
      7       8.4128      0.00000
      8       9.3508      0.00000

 k-point   204 :       0.0000    0.0000    0.9447
  band No.  band energies     occupation 
      1      -6.1417      2.00000
      2       5.3419      2.00000
      3       5.7093      2.00000
      4       5.7093      2.00000
      5       8.3475      0.00000
      6       8.3951      0.00000
      7       8.3951      0.00000
      8       9.2917      0.00000

 k-point   205 :       0.0000    0.0000    0.9497
  band No.  band energies     occupation 
      1      -6.1486      2.00000
      2       5.4097      2.00000
      3       5.7206      2.00000
      4       5.7206      2.00000
      5       8.3470      0.00000
      6       8.3786      0.00000
      7       8.3786      0.00000
      8       9.2373      0.00000

 k-point   206 :       0.0000    0.0000    0.9548
  band No.  band energies     occupation 
      1      -6.1549      2.00000
      2       5.4733      2.00000
      3       5.7309      2.00000
      4       5.7309      2.00000
      5       8.3446      0.00000
      6       8.3635      0.00000
      7       8.3635      0.00000
      8       9.1877      0.00000

 k-point   207 :       0.0000    0.0000    0.9598
  band No.  band energies     occupation 
      1      -6.1606      2.00000
      2       5.5324      2.00000
      3       5.7402      2.00000
      4       5.7402      2.00000
      5       8.3404      0.00000
      6       8.3498      0.00000
      7       8.3498      0.00000
      8       9.1435      0.00000

 k-point   208 :       0.0000    0.0000    0.9648
  band No.  band energies     occupation 
      1      -6.1655      2.00000
      2       5.5863      2.00000
      3       5.7486      2.00000
      4       5.7486      2.00000
      5       8.3346      0.00000
      6       8.3376      0.00000
      7       8.3376      0.00000
      8       9.1047      0.00000

 k-point   209 :       0.0000    0.0000    0.9698
  band No.  band energies     occupation 
      1      -6.1699      2.00000
      2       5.6345      2.00000
      3       5.7559      2.00000
      4       5.7559      2.00000
      5       8.3269      0.00000
      6       8.3269      0.00000
      7       8.3278      0.00000
      8       9.0715      0.00000

 k-point   210 :       0.0000    0.0000    0.9749
  band No.  band energies     occupation 
      1      -6.1735      2.00000
      2       5.6765      2.00000
      3       5.7622      2.00000
      4       5.7622      2.00000
      5       8.3178      0.00000
      6       8.3178      0.00000
      7       8.3204      0.00000
      8       9.0439      0.00000

 k-point   211 :       0.0000    0.0000    0.9799
  band No.  band energies     occupation 
      1      -6.1765      2.00000
      2       5.7118      2.00000
      3       5.7674      2.00000
      4       5.7674      2.00000
      5       8.3102      0.00000
      6       8.3102      0.00000
      7       8.3131      0.00000
      8       9.0217      0.00000

 k-point   212 :       0.0000    0.0000    0.9849
  band No.  band energies     occupation 
      1      -6.1788      2.00000
      2       5.7398      2.00000
      3       5.7714      2.00000
      4       5.7714      2.00000
      5       8.3043      0.00000
      6       8.3043      0.00000
      7       8.3065      0.00000
      8       9.0048      0.00000

 k-point   213 :       0.0000    0.0000    0.9899
  band No.  band energies     occupation 
      1      -6.1805      2.00000
      2       5.7602      2.00000
      3       5.7744      2.00000
      4       5.7744      2.00000
      5       8.3001      0.00000
      6       8.3001      0.00000
      7       8.3012      0.00000
      8       8.9929      0.00000

 k-point   214 :       0.0000    0.0000    0.9950
  band No.  band energies     occupation 
      1      -6.1815      2.00000
      2       5.7726      2.00000
      3       5.7761      2.00000
      4       5.7761      2.00000
      5       8.2975      0.00000
      6       8.2975      0.00000
      7       8.2979      0.00000
      8       8.9858      0.00000


--------------------------------------------------------------------------------------------------------


 soft charge-density along one line, spin component           1
         0         1         2         3         4         5         6         7         8         9
 total charge-density along one line
 
 pseudopotential strength for first ion, spin component:           1
 19.451  -0.001   0.000  -0.000   0.000  -0.000   0.000  -0.000
 -0.001   0.006  -0.000   0.000  -0.000   0.000  -0.000   0.000
  0.000  -0.000   4.361   0.000  -0.000  -0.005  -0.000   0.000
 -0.000   0.000   0.000   4.361   0.000  -0.000  -0.005  -0.000
  0.000  -0.000  -0.000   0.000   4.361   0.000  -0.000  -0.005
 -0.000   0.000  -0.005  -0.000   0.000   0.005   0.000  -0.000
  0.000  -0.000  -0.000  -0.005  -0.000   0.000   0.005   0.000
 -0.000   0.000   0.000  -0.000  -0.005  -0.000   0.000   0.005
 total augmentation occupancy for first ion, spin component:           1
  2.000   0.000   0.000   0.000   0.000   0.000   0.000   0.000
  0.000   0.000   0.000   0.000   0.000   0.000   0.000   0.000
  0.000   0.000   0.667   0.000   0.000   0.000   0.000   0.000
  0.000   0.000   0.000   0.667   0.000   0.000   0.000   0.000
  0.000   0.000   0.000   0.000   0.667   0.000   0.000   0.000
  0.000   0.000   0.000   0.000   0.000   0.000   0.000   0.000
  0.000   0.000   0.000   0.000   0.000   0.000   0.000   0.000
  0.000   0.000   0.000   0.000   0.000   0.000   0.000   0.000


------------------------ aborting loop because EDIFF is reached ----------------------------------------


 


 total charge     
 
# of ion     s       p       d       tot
----------------------------------------
  1        0.752   0.957   0.000   1.709
  2        0.752   0.957   0.000   1.709
------------------------------------------------
tot        1.504   1.913   0.000   3.417
 
    CHARGE:  cpu time    0.0080: real time    0.0049
    FORLOC:  cpu time    0.0000: real time    0.0002
    FORNL :  cpu time    0.0040: real time    0.0066
    STRESS:  cpu time    0.0720: real time    0.0737
    FORCOR:  cpu time    0.0000: real time    0.0014
    FORHAR:  cpu time    0.0040: real time    0.0011
    OFIELD:  cpu time    0.0000: real time    0.0000

  FORCE on cell =-STRESS in cart. coord.  units (eV):
  Direction    XX          YY          ZZ          XY          YZ          ZX
  --------------------------------------------------------------------------------------
  Alpha Z     2.36771     2.36771     2.36771
  Ewald     -76.17385   -76.17385   -76.17385     0.00000     0.00000    -0.00000
  Hartree     5.02913     5.02913     5.02913     0.00000    -0.00000    -0.00000
  E(xc)     -25.95274   -25.95274   -25.95274    -0.00000     0.00000     0.00000
  Local     -30.65647   -30.65647   -30.65647     0.00001    -0.00001    -0.00001
  n-local    76.60510    82.56201    81.76108    -1.19414    -2.67699    -0.77691
  augment   -12.49287   -12.49287   -12.49287    -0.00001     0.00001     0.00001
  Kinetic    55.69959    57.65130    59.30500    -0.96127    -3.76950    -0.97046
  Fock        0.00000     0.00000     0.00000     0.00000     0.00000     0.00000
  -------------------------------------------------------------------------------------
  Total      -0.01772    -0.01772    -0.01772     0.00000     0.00000     0.00000
  in kB      -0.70908    -0.70908    -0.70908     0.00000     0.00000     0.00000
  external pressure =       -0.71 kB  Pullay stress =        0.00 kB


 VOLUME and BASIS-vectors are now :
 -----------------------------------------------------------------------------
  energy-cutoff  :      500.00
  volume of cell :       40.05
      direct lattice vectors                 reciprocal lattice vectors
     2.715500000  2.715500000  0.000000000     0.184128153  0.184128153  0.184128153
     2.715500000  0.000000000 -2.715500000     0.184128153 -0.184128153 -0.184128153
     0.000000000  2.715500000 -2.715500000    -0.184128153  0.184128153 -0.184128153

  length of vectors
     3.840296929  3.840296929  3.840296929     0.318919316  0.318919316  0.318919316


 FORCES acting on ions
    electron-ion (+dipol)            ewald-force                    non-local-force                 convergence-correction
 -----------------------------------------------------------------------------------------------
   -.809E-08 -.448E-08 0.449E-08   -.923E-14 -.515E-14 0.930E-14   0.937E-16 0.763E-16 -.347E-16   -.187E-09 -.187E-09 0.187E-09
   0.809E-08 0.449E-08 -.449E-08   0.907E-14 0.563E-14 -.939E-14   -.114E-15 -.625E-16 0.833E-16   0.187E-09 0.187E-09 -.187E-09
 -----------------------------------------------------------------------------------------------
   -.160E-13 0.459E-13 -.111E-12   -.164E-15 0.474E-15 -.970E-16   -.208E-16 0.139E-16 0.486E-16   0.610E-14 0.129E-14 0.549E-14
 
 
 POSITION                                       TOTAL-FORCE (eV/Angst)
 -----------------------------------------------------------------------------------
      0.00000      0.00000      0.00000         0.000000      0.000000     -0.000000
      1.35775      1.35775     -1.35775        -0.000000     -0.000000      0.000000
 -----------------------------------------------------------------------------------
    total drift:                               -0.000000      0.000000     -0.000000


--------------------------------------------------------------------------------------------------------



  FREE ENERGIE OF THE ION-ELECTRON SYSTEM (eV)
  ---------------------------------------------------
  free  energy   TOTEN  =       -11.60407700 eV

  energy  without entropy=      -11.60407700  energy(sigma->0) =      -11.60407700
 


--------------------------------------------------------------------------------------------------------


    POTLOK:  cpu time    0.0000: real time    0.0031


--------------------------------------------------------------------------------------------------------




--------------------------------------------------------------------------------------------------------


 writing wavefunctions
     LOOP+:  cpu time    1.5481: real time    1.9136
    4ORBIT:  cpu time    0.0000: real time    0.0000
 


 total charge     
 
# of ion     s       p       d       tot
----------------------------------------
  1        0.752   0.957   0.000   1.709
  2        0.752   0.957   0.000   1.709
------------------------------------------------
tot        1.504   1.913   0.000   3.417
 

 total amount of memory used by VASP on root node    34891. kBytes
========================================================================

   base      :      30000. kBytes
   nonl-proj :       2525. kBytes
   fftplans  :        428. kBytes
   grid      :        621. kBytes
   one-center:          3. kBytes
   wavefun   :       1314. kBytes
 
  
  
 General timing and accounting informations for this job:
 ========================================================
  
                  Total CPU time used (sec):        3.960
                            User time (sec):        2.748
                          System time (sec):        1.212
                         Elapsed time (sec):        4.813
  
                   Maximum memory used (kb):       27312.
                   Average memory used (kb):           0.
  
                          Minor page faults:         7200
                          Major page faults:            0
                 Voluntary context switches:          877
