 running on   24 total cores
 distrk:  each k-point on   24 cores,    1 groups
 distr:  one band on    3 cores,    8 groups
 using from now: INCAR     
 vasp.5.4.1 24Jun15 (build Nov 25 2015 16:01:35) complex                        
  
 POSCAR found type information on POSCAR  C  N  H  Pb I 
 POSCAR found :  5 types and      96 ions
 scaLAPACK will be used

 ----------------------------------------------------------------------------- 
|                                                                             |
|  ADVICE TO THIS USER RUNNING 'VASP/VAMP'   (HEAR YOUR MASTER'S VOICE ...):  |
|                                                                             |
|      You have a (more or less) 'large supercell' and for larger cells       |
|      it might be more efficient to use real space projection opertators     |
|      So try LREAL= Auto  in the INCAR   file.                               |
|      Mind: At the moment your POTCAR file does not contain real space       |
|       projectors, and has to be modified,  BUT if you                       |
|      want to do an extremely  accurate calculation you might also keep the  |
|      reciprocal projection scheme          (i.e. LREAL=.FALSE.)             |
|                                                                             |
 ----------------------------------------------------------------------------- 


 ----------------------------------------------------------------------------- 
|                                                                             |
|  ADVICE TO THIS USER RUNNING 'VASP/VAMP'   (HEAR YOUR MASTER'S VOICE ...):  |
|                                                                             |
|      You enforced a specific xc-type in the INCAR file,                     |
|      a different type was found on the POTCAR file                          |
|          I HOPE YOU KNOW, WHAT YOU ARE  DOING                               |
|                                                                             |
 ----------------------------------------------------------------------------- 

 LDA part: xc-table for Pade appr. of Perdew
 POSCAR, INCAR and KPOINTS ok, starting setup
 WARNING: small aliasing (wrap around) errors must be expected
 FFT: planning ...
 WAVECAR not read
 entering main loop
       N       E                     dE             d eps       ncg     rms          rms(c)
DAV:   1     0.360373829670E+04    0.36037E+04   -0.18949E+05  7176   0.170E+03
DAV:   2     0.199447586080E+03   -0.34043E+04   -0.32102E+04  7992   0.355E+02
DAV:   3    -0.398834824797E+03   -0.59828E+03   -0.58926E+03  9488   0.172E+02
DAV:   4    -0.438760505814E+03   -0.39926E+02   -0.39753E+02  9648   0.488E+01
DAV:   5    -0.440238765876E+03   -0.14783E+01   -0.14761E+01  9768   0.908E+00    0.298E+01
DAV:   6    -0.419538947900E+03    0.20700E+02   -0.41921E+01  9432   0.103E+01    0.158E+01
DAV:   7    -0.417052619189E+03    0.24863E+01   -0.14591E+01 10232   0.636E+00    0.785E+00
DAV:   8    -0.416880372924E+03    0.17225E+00   -0.30088E+00  8640   0.315E+00    0.181E+00
DAV:   9    -0.416810615711E+03    0.69757E-01   -0.74010E-01  9408   0.173E+00    0.727E-01
DAV:  10    -0.416821867886E+03   -0.11252E-01   -0.10177E-01  9000   0.563E-01    0.439E-01
DAV:  11    -0.416822130739E+03   -0.26285E-03   -0.12590E-02  9840   0.262E-01    0.192E-01
DAV:  12    -0.416823532719E+03   -0.14020E-02   -0.88015E-03  9800   0.149E-01    0.105E-01
DAV:  13    -0.416823665099E+03   -0.13238E-03   -0.13258E-03  8464   0.749E-02    0.697E-02
DAV:  14    -0.416823706010E+03   -0.40911E-04   -0.27448E-04  8536   0.289E-02    0.287E-02
DAV:  15    -0.416823749501E+03   -0.43491E-04   -0.13183E-04  8096   0.190E-02    0.112E-02
DAV:  16    -0.416823753319E+03   -0.38181E-05   -0.13474E-05 10432   0.698E-03    0.113E-02
DAV:  17    -0.416823753316E+03    0.31287E-08   -0.44503E-06  8120   0.368E-03    0.461E-03
DAV:  18    -0.416823753364E+03   -0.48356E-07   -0.73223E-06  9392   0.420E-03    0.375E-03
DAV:  19    -0.416823753301E+03    0.62810E-07   -0.68750E-07  7680   0.195E-03    0.229E-03
DAV:  20    -0.416823753311E+03   -0.96006E-08   -0.45363E-07  8448   0.103E-03    0.460E-04
DAV:  21    -0.416823753345E+03   -0.34095E-07   -0.43169E-08  6472   0.422E-04    0.287E-04
DAV:  22    -0.416823753339E+03    0.64720E-08   -0.38276E-09  4832   0.220E-04
   1 F= -.41682375E+03 E0= -.41682375E+03  d E =0.000000E+00
Application 22054681 resources: utime ~166901s, stime ~93s, Rss ~640332, inblocks ~184890, outblocks ~194552
