  12  12   1   0
  0.2070820E+02  0.6290120E-09  0.6273890E-09  0.6297040E-09  0.5000000E-15
  1.000000000000000E-004
  CAR 
 Name                                    
      9.24640105    -19.57539697  301      1.56659279      1.00000000
    -19.575  0.0000E+00  0.0000E+00
    -19.479  0.0000E+00  0.0000E+00
    -19.383  0.0000E+00  0.0000E+00
    -19.287  0.0000E+00  0.0000E+00
    -19.191  0.0000E+00  0.0000E+00
    -19.095  0.0000E+00  0.0000E+00
    -18.999  0.0000E+00  0.0000E+00
    -18.903  0.0000E+00  0.0000E+00
    -18.807  0.0000E+00  0.0000E+00
    -18.711  0.0000E+00  0.0000E+00
    -18.615  0.0000E+00  0.0000E+00
    -18.519  0.0000E+00  0.0000E+00
    -18.423  0.0000E+00  0.0000E+00
    -18.326  0.0000E+00  0.0000E+00
    -18.230  0.2082E+02  0.2000E+01
    -18.134  0.0000E+00  0.2000E+01
    -18.038  0.0000E+00  0.2000E+01
    -17.942  0.0000E+00  0.2000E+01
    -17.846  0.0000E+00  0.2000E+01
    -17.750  0.0000E+00  0.2000E+01
    -17.654  0.0000E+00  0.2000E+01
    -17.558  0.0000E+00  0.2000E+01
    -17.462  0.0000E+00  0.2000E+01
    -17.366  0.0000E+00  0.2000E+01
    -17.270  0.0000E+00  0.2000E+01
    -17.174  0.0000E+00  0.2000E+01
    -17.078  0.0000E+00  0.2000E+01
    -16.981  0.0000E+00  0.2000E+01
    -16.885  0.0000E+00  0.2000E+01
    -16.789  0.0000E+00  0.2000E+01
    -16.693  0.0000E+00  0.2000E+01
    -16.597  0.0000E+00  0.2000E+01
    -16.501  0.0000E+00  0.2000E+01
    -16.405  0.0000E+00  0.2000E+01
    -16.309  0.0000E+00  0.2000E+01
    -16.213  0.0000E+00  0.2000E+01
    -16.117  0.0000E+00  0.2000E+01
    -16.021  0.0000E+00  0.2000E+01
    -15.925  0.0000E+00  0.2000E+01
    -15.829  0.0000E+00  0.2000E+01
    -15.732  0.0000E+00  0.2000E+01
    -15.636  0.0000E+00  0.2000E+01
    -15.540  0.0000E+00  0.2000E+01
    -15.444  0.0000E+00  0.2000E+01
    -15.348  0.0000E+00  0.2000E+01
    -15.252  0.0000E+00  0.2000E+01
    -15.156  0.0000E+00  0.2000E+01
    -15.060  0.7702E+00  0.2074E+01
    -14.964  0.8363E+02  0.1131E+02
    -14.868  0.0000E+00  0.1200E+02
    -14.772  0.0000E+00  0.1200E+02
    -14.676  0.0000E+00  0.1200E+02
    -14.580  0.0000E+00  0.1200E+02
    -14.484  0.0000E+00  0.1200E+02
    -14.387  0.0000E+00  0.1200E+02
    -14.291  0.0000E+00  0.1200E+02
    -14.195  0.0000E+00  0.1200E+02
    -14.099  0.0000E+00  0.1200E+02
    -14.003  0.0000E+00  0.1200E+02
    -13.907  0.0000E+00  0.1200E+02
    -13.811  0.0000E+00  0.1200E+02
    -13.715  0.0000E+00  0.1200E+02
    -13.619  0.0000E+00  0.1200E+02
    -13.523  0.0000E+00  0.1200E+02
    -13.427  0.0000E+00  0.1200E+02
    -13.331  0.0000E+00  0.1200E+02
    -13.235  0.0000E+00  0.1200E+02
    -13.139  0.0000E+00  0.1200E+02
    -13.042  0.0000E+00  0.1200E+02
    -12.946  0.0000E+00  0.1200E+02
    -12.850  0.0000E+00  0.1200E+02
    -12.754  0.0000E+00  0.1200E+02
    -12.658  0.0000E+00  0.1200E+02
    -12.562  0.0000E+00  0.1200E+02
    -12.466  0.0000E+00  0.1200E+02
    -12.370  0.0000E+00  0.1200E+02
    -12.274  0.0000E+00  0.1200E+02
    -12.178  0.0000E+00  0.1200E+02
    -12.082  0.0000E+00  0.1200E+02
    -11.986  0.0000E+00  0.1200E+02
    -11.890  0.0000E+00  0.1200E+02
    -11.794  0.0000E+00  0.1200E+02
    -11.697  0.0000E+00  0.1200E+02
    -11.601  0.0000E+00  0.1200E+02
    -11.505  0.0000E+00  0.1200E+02
    -11.409  0.5763E-06  0.1200E+02
    -11.313  0.1137E+02  0.1309E+02
    -11.217  0.1918E+01  0.1400E+02
    -11.121  0.0000E+00  0.1400E+02
    -11.025  0.0000E+00  0.1400E+02
    -10.929  0.0000E+00  0.1400E+02
    -10.833  0.7966E-01  0.1401E+02
    -10.737  0.1778E+01  0.1418E+02
    -10.641  0.3710E+01  0.1461E+02
    -10.545  0.5892E+01  0.1533E+02
    -10.448  0.5346E+01  0.1594E+02
    -10.352  0.4550E+01  0.1644E+02
    -10.256  0.8446E+01  0.1746E+02
    -10.160  0.4225E+01  0.1791E+02
    -10.064  0.8695E+00  0.1803E+02
     -9.968  0.1256E+02  0.1923E+02
     -9.872  0.6892E+01  0.1995E+02
     -9.776  0.9633E-01  0.2000E+02
     -9.680  0.0000E+00  0.2000E+02
     -9.584  0.0000E+00  0.2000E+02
     -9.488  0.0000E+00  0.2000E+02
     -9.392  0.0000E+00  0.2000E+02
     -9.296  0.0000E+00  0.2000E+02
     -9.200  0.0000E+00  0.2000E+02
     -9.103  0.0000E+00  0.2000E+02
     -9.007  0.0000E+00  0.2000E+02
     -8.911  0.0000E+00  0.2000E+02
     -8.815  0.0000E+00  0.2000E+02
     -8.719  0.0000E+00  0.2000E+02
     -8.623  0.0000E+00  0.2000E+02
     -8.527  0.0000E+00  0.2000E+02
     -8.431  0.0000E+00  0.2000E+02
     -8.335  0.0000E+00  0.2000E+02
     -8.239  0.0000E+00  0.2000E+02
     -8.143  0.0000E+00  0.2000E+02
     -8.047  0.0000E+00  0.2000E+02
     -7.951  0.0000E+00  0.2000E+02
     -7.855  0.0000E+00  0.2000E+02
     -7.758  0.5610E+01  0.2054E+02
     -7.662  0.1041E+02  0.2200E+02
     -7.566  0.1900E+02  0.2383E+02
     -7.470  0.0000E+00  0.2400E+02
     -7.374  0.0000E+00  0.2400E+02
     -7.278  0.0000E+00  0.2400E+02
     -7.182  0.0000E+00  0.2400E+02
     -7.086  0.5227E-04  0.2400E+02
     -6.990  0.9633E-01  0.2401E+02
     -6.894  0.5783E+00  0.2406E+02
     -6.798  0.7351E+00  0.2414E+02
     -6.702  0.1792E-03  0.2418E+02
     -6.606  0.1348E+01  0.2431E+02
     -6.510  0.1458E+01  0.2445E+02
     -6.413  0.4312E+00  0.2457E+02
     -6.317  0.2307E+01  0.2489E+02
     -6.221  0.2065E+01  0.2509E+02
     -6.125  0.1699E+01  0.2527E+02
     -6.029  0.1156E+01  0.2544E+02
     -5.933  0.2411E+01  0.2568E+02
     -5.837  0.2694E+01  0.2594E+02
     -5.741  0.1609E+02  0.2773E+02
     -5.645  0.7159E+00  0.2787E+02
     -5.549  0.1375E-10  0.2794E+02
     -5.453  0.5783E+00  0.2799E+02
     -5.357  0.1660E-03  0.2799E+02
     -5.261  0.9621E-01  0.2800E+02
     -5.164  0.0000E+00  0.2800E+02
     -5.068  0.0000E+00  0.2800E+02
     -4.972  0.0000E+00  0.2800E+02
     -4.876  0.0000E+00  0.2800E+02
     -4.780  0.0000E+00  0.2800E+02
     -4.684  0.0000E+00  0.2800E+02
     -4.588  0.0000E+00  0.2800E+02
     -4.492  0.0000E+00  0.2800E+02
     -4.396  0.0000E+00  0.2800E+02
     -4.300  0.0000E+00  0.2800E+02
     -4.204  0.0000E+00  0.2800E+02
     -4.108  0.0000E+00  0.2800E+02
     -4.012  0.0000E+00  0.2800E+02
     -3.916  0.0000E+00  0.2800E+02
     -3.819  0.0000E+00  0.2800E+02
     -3.723  0.0000E+00  0.2800E+02
     -3.627  0.4253E-07  0.2800E+02
     -3.531  0.1645E+02  0.2958E+02
     -3.435  0.1617E+02  0.3200E+02
     -3.339  0.0000E+00  0.3200E+02
     -3.243  0.0000E+00  0.3200E+02
     -3.147  0.0000E+00  0.3200E+02
     -3.051  0.0000E+00  0.3200E+02
     -2.955  0.0000E+00  0.3200E+02
     -2.859  0.0000E+00  0.3200E+02
     -2.763  0.0000E+00  0.3200E+02
     -2.667  0.0000E+00  0.3200E+02
     -2.571  0.0000E+00  0.3200E+02
     -2.474  0.0000E+00  0.3200E+02
     -2.378  0.0000E+00  0.3200E+02
     -2.282  0.0000E+00  0.3200E+02
     -2.186  0.0000E+00  0.3200E+02
     -2.090  0.8038E+00  0.3208E+02
     -1.994  0.2772E+01  0.3240E+02
     -1.898  0.2853E+01  0.3277E+02
     -1.802  0.1828E+01  0.3301E+02
     -1.706  0.2683E+01  0.3327E+02
     -1.610  0.3568E+01  0.3366E+02
     -1.514  0.3409E+01  0.3416E+02
     -1.418  0.3611E+01  0.3468E+02
     -1.322  0.2309E+01  0.3494E+02
     -1.226  0.5783E+00  0.3500E+02
     -1.129  0.0000E+00  0.3500E+02
     -1.033  0.7309E-01  0.3501E+02
     -0.937  0.1531E+01  0.3516E+02
     -0.841  0.5794E+01  0.3575E+02
     -0.745  0.7147E+01  0.3652E+02
     -0.649  0.7587E+01  0.3737E+02
     -0.553  0.4660E+01  0.3796E+02
     -0.457  0.2909E+01  0.3826E+02
     -0.361  0.5990E+01  0.3890E+02
     -0.265  0.3812E+01  0.3939E+02
     -0.169  0.8223E+01  0.4028E+02
     -0.073  0.7510E+01  0.4118E+02
      0.023  0.5192E+01  0.4180E+02
      0.119  0.1059E+02  0.4293E+02
      0.216  0.6908E+01  0.4381E+02
      0.312  0.8421E+01  0.4481E+02
      0.408  0.5778E+01  0.4553E+02
      0.504  0.9305E+01  0.4661E+02
      0.600  0.8931E+01  0.4790E+02
      0.696  0.5372E+01  0.4853E+02
      0.792  0.4038E+01  0.4919E+02
      0.888  0.3641E+01  0.4956E+02
      0.984  0.8676E+00  0.4969E+02
      1.080  0.1439E+01  0.4984E+02
      1.176  0.5502E+00  0.4990E+02
      1.272  0.3215E+00  0.4996E+02
      1.368  0.1928E+00  0.4999E+02
      1.465  0.3596E-02  0.4999E+02
      1.561  0.0000E+00  0.5000E+02
      1.657  0.0000E+00  0.5000E+02
      1.753  0.0000E+00  0.5000E+02
      1.849  0.0000E+00  0.5000E+02
      1.945  0.0000E+00  0.5000E+02
      2.041  0.0000E+00  0.5000E+02
      2.137  0.0000E+00  0.5000E+02
      2.233  0.0000E+00  0.5000E+02
      2.329  0.0000E+00  0.5000E+02
      2.425  0.0000E+00  0.5000E+02
      2.521  0.0000E+00  0.5000E+02
      2.617  0.0000E+00  0.5000E+02
      2.713  0.0000E+00  0.5000E+02
      2.810  0.0000E+00  0.5000E+02
      2.906  0.1177E-15  0.5000E+02
      3.002  0.1928E+00  0.5002E+02
      3.098  0.7303E+00  0.5009E+02
      3.194  0.1291E+01  0.5022E+02
      3.290  0.2506E+00  0.5027E+02
      3.386  0.1363E+01  0.5042E+02
      3.482  0.1658E+01  0.5065E+02
      3.578  0.1213E+01  0.5078E+02
      3.674  0.1113E+01  0.5089E+02
      3.770  0.1131E+01  0.5101E+02
      3.866  0.9564E-01  0.5106E+02
      3.962  0.1063E+01  0.5116E+02
      4.058  0.3008E+00  0.5123E+02
      4.155  0.2204E+01  0.5149E+02
      4.251  0.2622E+01  0.5177E+02
      4.347  0.1458E+01  0.5199E+02
      4.443  0.3594E+01  0.5235E+02
      4.539  0.3004E+01  0.5277E+02
      4.635  0.1574E+01  0.5293E+02
      4.731  0.3854E+00  0.5298E+02
      4.827  0.1928E+00  0.5300E+02
      4.923  0.0000E+00  0.5300E+02
      5.019  0.1817E-02  0.5300E+02
      5.115  0.4168E-07  0.5301E+02
      5.211  0.1932E+00  0.5303E+02
      5.307  0.7307E+00  0.5310E+02
      5.403  0.2138E+01  0.5334E+02
      5.500  0.2339E+01  0.5365E+02
      5.596  0.3688E+01  0.5410E+02
      5.692  0.2735E+01  0.5441E+02
      5.788  0.3827E+01  0.5488E+02
      5.884  0.2633E+01  0.5515E+02
      5.980  0.2546E+01  0.5555E+02
      6.076  0.5286E+01  0.5606E+02
      6.172  0.2398E+01  0.5640E+02
      6.268  0.5328E+01  0.5702E+02
      6.364  0.2516E+01  0.5738E+02
      6.460  0.5683E+01  0.5799E+02
      6.556  0.4245E+01  0.5848E+02
      6.652  0.5850E+01  0.5907E+02
      6.749  0.5023E+01  0.5975E+02
      6.845  0.4134E+01  0.6019E+02
      6.941  0.3160E+01  0.6051E+02
      7.037  0.4118E+01  0.6104E+02
      7.133  0.4871E+01  0.6166E+02
      7.229  0.6300E+01  0.6234E+02
      7.325  0.4359E+01  0.6283E+02
      7.421  0.2508E+01  0.6317E+02
      7.517  0.2119E+01  0.6340E+02
      7.613  0.2136E+01  0.6360E+02
      7.709  0.1964E+01  0.6381E+02
      7.805  0.1054E+01  0.6393E+02
      7.901  0.5759E+00  0.6398E+02
      7.997  0.1928E+00  0.6400E+02
      8.094  0.0000E+00  0.6400E+02
      8.190  0.0000E+00  0.6400E+02
      8.286  0.0000E+00  0.6400E+02
      8.382  0.0000E+00  0.6400E+02
      8.478  0.0000E+00  0.6400E+02
      8.574  0.0000E+00  0.6400E+02
      8.670  0.0000E+00  0.6400E+02
      8.766  0.0000E+00  0.6400E+02
      8.862  0.0000E+00  0.6400E+02
      8.958  0.0000E+00  0.6400E+02
      9.054  0.0000E+00  0.6400E+02
      9.150  0.0000E+00  0.6400E+02
      9.246  0.0000E+00  0.6400E+02
      9.24640105    -19.57539697  301      1.56659279      1.00000000
    -19.575  0.0000E+00  0.0000E+00  0.0000E+00
    -19.479  0.0000E+00  0.0000E+00  0.0000E+00
    -19.383  0.0000E+00  0.0000E+00  0.0000E+00
    -19.287  0.0000E+00  0.0000E+00  0.0000E+00
    -19.191  0.0000E+00  0.0000E+00  0.0000E+00
    -19.095  0.0000E+00  0.0000E+00  0.0000E+00
    -18.999  0.0000E+00  0.0000E+00  0.0000E+00
    -18.903  0.0000E+00  0.0000E+00  0.0000E+00
    -18.807  0.0000E+00  0.0000E+00  0.0000E+00
    -18.711  0.0000E+00  0.0000E+00  0.0000E+00
    -18.615  0.0000E+00  0.0000E+00  0.0000E+00
    -18.519  0.0000E+00  0.0000E+00  0.0000E+00
    -18.423  0.0000E+00  0.0000E+00  0.0000E+00
    -18.326  0.0000E+00  0.0000E+00  0.0000E+00
    -18.230  0.1244E+01  0.3975E+00  0.0000E+00
    -18.134  0.0000E+00  0.0000E+00  0.0000E+00
    -18.038  0.0000E+00  0.0000E+00  0.0000E+00
    -17.942  0.0000E+00  0.0000E+00  0.0000E+00
    -17.846  0.0000E+00  0.0000E+00  0.0000E+00
    -17.750  0.0000E+00  0.0000E+00  0.0000E+00
    -17.654  0.0000E+00  0.0000E+00  0.0000E+00
    -17.558  0.0000E+00  0.0000E+00  0.0000E+00
    -17.462  0.0000E+00  0.0000E+00  0.0000E+00
    -17.366  0.0000E+00  0.0000E+00  0.0000E+00
    -17.270  0.0000E+00  0.0000E+00  0.0000E+00
    -17.174  0.0000E+00  0.0000E+00  0.0000E+00
    -17.078  0.0000E+00  0.0000E+00  0.0000E+00
    -16.981  0.0000E+00  0.0000E+00  0.0000E+00
    -16.885  0.0000E+00  0.0000E+00  0.0000E+00
    -16.789  0.0000E+00  0.0000E+00  0.0000E+00
    -16.693  0.0000E+00  0.0000E+00  0.0000E+00
    -16.597  0.0000E+00  0.0000E+00  0.0000E+00
    -16.501  0.0000E+00  0.0000E+00  0.0000E+00
    -16.405  0.0000E+00  0.0000E+00  0.0000E+00
    -16.309  0.0000E+00  0.0000E+00  0.0000E+00
    -16.213  0.0000E+00  0.0000E+00  0.0000E+00
    -16.117  0.0000E+00  0.0000E+00  0.0000E+00
    -16.021  0.0000E+00  0.0000E+00  0.0000E+00
    -15.925  0.0000E+00  0.0000E+00  0.0000E+00
    -15.829  0.0000E+00  0.0000E+00  0.0000E+00
    -15.732  0.0000E+00  0.0000E+00  0.0000E+00
    -15.636  0.0000E+00  0.0000E+00  0.0000E+00
    -15.540  0.0000E+00  0.0000E+00  0.0000E+00
    -15.444  0.0000E+00  0.0000E+00  0.0000E+00
    -15.348  0.0000E+00  0.0000E+00  0.0000E+00
    -15.252  0.0000E+00  0.0000E+00  0.0000E+00
    -15.156  0.0000E+00  0.0000E+00  0.0000E+00
    -15.060  0.8101E-07  0.2099E-07  0.0000E+00
    -14.964  0.4274E-04  0.7161E-05  0.0000E+00
    -14.868  0.0000E+00  0.0000E+00  0.0000E+00
    -14.772  0.0000E+00  0.0000E+00  0.0000E+00
    -14.676  0.0000E+00  0.0000E+00  0.0000E+00
    -14.580  0.0000E+00  0.0000E+00  0.0000E+00
    -14.484  0.0000E+00  0.0000E+00  0.0000E+00
    -14.387  0.0000E+00  0.0000E+00  0.0000E+00
    -14.291  0.0000E+00  0.0000E+00  0.0000E+00
    -14.195  0.0000E+00  0.0000E+00  0.0000E+00
    -14.099  0.0000E+00  0.0000E+00  0.0000E+00
    -14.003  0.0000E+00  0.0000E+00  0.0000E+00
    -13.907  0.0000E+00  0.0000E+00  0.0000E+00
    -13.811  0.0000E+00  0.0000E+00  0.0000E+00
    -13.715  0.0000E+00  0.0000E+00  0.0000E+00
    -13.619  0.0000E+00  0.0000E+00  0.0000E+00
    -13.523  0.0000E+00  0.0000E+00  0.0000E+00
    -13.427  0.0000E+00  0.0000E+00  0.0000E+00
    -13.331  0.0000E+00  0.0000E+00  0.0000E+00
    -13.235  0.0000E+00  0.0000E+00  0.0000E+00
    -13.139  0.0000E+00  0.0000E+00  0.0000E+00
    -13.042  0.0000E+00  0.0000E+00  0.0000E+00
    -12.946  0.0000E+00  0.0000E+00  0.0000E+00
    -12.850  0.0000E+00  0.0000E+00  0.0000E+00
    -12.754  0.0000E+00  0.0000E+00  0.0000E+00
    -12.658  0.0000E+00  0.0000E+00  0.0000E+00
    -12.562  0.0000E+00  0.0000E+00  0.0000E+00
    -12.466  0.0000E+00  0.0000E+00  0.0000E+00
    -12.370  0.0000E+00  0.0000E+00  0.0000E+00
    -12.274  0.0000E+00  0.0000E+00  0.0000E+00
    -12.178  0.0000E+00  0.0000E+00  0.0000E+00
    -12.082  0.0000E+00  0.0000E+00  0.0000E+00
    -11.986  0.0000E+00  0.0000E+00  0.0000E+00
    -11.890  0.0000E+00  0.0000E+00  0.0000E+00
    -11.794  0.0000E+00  0.0000E+00  0.0000E+00
    -11.697  0.0000E+00  0.0000E+00  0.0000E+00
    -11.601  0.0000E+00  0.0000E+00  0.0000E+00
    -11.505  0.0000E+00  0.0000E+00  0.0000E+00
    -11.409  0.1735E-06  0.4062E-11  0.0000E+00
    -11.313  0.3673E+01  0.2301E-03  0.0000E+00
    -11.217  0.6459E+00  0.5109E-04  0.0000E+00
    -11.121  0.0000E+00  0.0000E+00  0.0000E+00
    -11.025  0.0000E+00  0.0000E+00  0.0000E+00
    -10.929  0.0000E+00  0.0000E+00  0.0000E+00
    -10.833  0.5858E-03  0.4760E-04  0.0000E+00
    -10.737  0.1932E-01  0.9216E-03  0.0000E+00
    -10.641  0.3844E-01  0.1492E-02  0.0000E+00
    -10.545  0.5568E-01  0.1658E-02  0.0000E+00
    -10.448  0.1280E-01  0.1053E-02  0.0000E+00
    -10.352  0.1648E-01  0.1440E-02  0.0000E+00
    -10.256  0.2116E-01  0.1717E-02  0.0000E+00
    -10.160  0.9781E-03  0.4763E-03  0.0000E+00
    -10.064  0.1384E-04  0.4205E-04  0.0000E+00
     -9.968  0.7548E-02  0.8279E-03  0.0000E+00
     -9.872  0.8114E-02  0.3448E-03  0.0000E+00
     -9.776  0.2017E-03  0.1160E-04  0.0000E+00
     -9.680  0.0000E+00  0.0000E+00  0.0000E+00
     -9.584  0.0000E+00  0.0000E+00  0.0000E+00
     -9.488  0.0000E+00  0.0000E+00  0.0000E+00
     -9.392  0.0000E+00  0.0000E+00  0.0000E+00
     -9.296  0.0000E+00  0.0000E+00  0.0000E+00
     -9.200  0.0000E+00  0.0000E+00  0.0000E+00
     -9.103  0.0000E+00  0.0000E+00  0.0000E+00
     -9.007  0.0000E+00  0.0000E+00  0.0000E+00
     -8.911  0.0000E+00  0.0000E+00  0.0000E+00
     -8.815  0.0000E+00  0.0000E+00  0.0000E+00
     -8.719  0.0000E+00  0.0000E+00  0.0000E+00
     -8.623  0.0000E+00  0.0000E+00  0.0000E+00
     -8.527  0.0000E+00  0.0000E+00  0.0000E+00
     -8.431  0.0000E+00  0.0000E+00  0.0000E+00
     -8.335  0.0000E+00  0.0000E+00  0.0000E+00
     -8.239  0.0000E+00  0.0000E+00  0.0000E+00
     -8.143  0.0000E+00  0.0000E+00  0.0000E+00
     -8.047  0.0000E+00  0.0000E+00  0.0000E+00
     -7.951  0.0000E+00  0.0000E+00  0.0000E+00
     -7.855  0.0000E+00  0.0000E+00  0.0000E+00
     -7.758  0.1699E-04  0.2334E+00  0.0000E+00
     -7.662  0.5890E-04  0.4434E+00  0.0000E+00
     -7.566  0.2238E-03  0.8583E+00  0.0000E+00
     -7.470  0.0000E+00  0.0000E+00  0.0000E+00
     -7.374  0.0000E+00  0.0000E+00  0.0000E+00
     -7.278  0.0000E+00  0.0000E+00  0.0000E+00
     -7.182  0.0000E+00  0.0000E+00  0.0000E+00
     -7.086  0.1897E-13  0.3415E-08  0.0000E+00
     -6.990  0.3495E-10  0.6293E-05  0.0000E+00
     -6.894  0.6604E-08  0.7605E-04  0.0000E+00
     -6.798  0.8960E-05  0.1238E-03  0.0000E+00
     -6.702  0.4912E-08  0.4615E-07  0.0000E+00
     -6.606  0.2070E-04  0.3057E-03  0.0000E+00
     -6.510  0.6425E-04  0.4788E-03  0.0000E+00
     -6.413  0.1544E-04  0.1846E-03  0.0000E+00
     -6.317  0.1323E-03  0.1494E-02  0.0000E+00
     -6.221  0.3314E-03  0.3042E-02  0.0000E+00
     -6.125  0.8246E-03  0.9496E-02  0.0000E+00
     -6.029  0.3206E-03  0.2873E-02  0.0000E+00
     -5.933  0.3794E-02  0.4816E-01  0.0000E+00
     -5.837  0.2586E-01  0.3490E+00  0.0000E+00
     -5.741  0.2487E+00  0.3388E+01  0.0000E+00
     -5.645  0.3851E-02  0.5484E-01  0.0000E+00
     -5.549  0.1911E-13  0.2708E-12  0.0000E+00
     -5.453  0.8430E-03  0.1207E-01  0.0000E+00
     -5.357  0.1124E-06  0.1682E-05  0.0000E+00
     -5.261  0.6514E-04  0.9751E-03  0.0000E+00
     -5.164  0.0000E+00  0.0000E+00  0.0000E+00
     -5.068  0.0000E+00  0.0000E+00  0.0000E+00
     -4.972  0.0000E+00  0.0000E+00  0.0000E+00
     -4.876  0.0000E+00  0.0000E+00  0.0000E+00
     -4.780  0.0000E+00  0.0000E+00  0.0000E+00
     -4.684  0.0000E+00  0.0000E+00  0.0000E+00
     -4.588  0.0000E+00  0.0000E+00  0.0000E+00
     -4.492  0.0000E+00  0.0000E+00  0.0000E+00
     -4.396  0.0000E+00  0.0000E+00  0.0000E+00
     -4.300  0.0000E+00  0.0000E+00  0.0000E+00
     -4.204  0.0000E+00  0.0000E+00  0.0000E+00
     -4.108  0.0000E+00  0.0000E+00  0.0000E+00
     -4.012  0.0000E+00  0.0000E+00  0.0000E+00
     -3.916  0.0000E+00  0.0000E+00  0.0000E+00
     -3.819  0.0000E+00  0.0000E+00  0.0000E+00
     -3.723  0.0000E+00  0.0000E+00  0.0000E+00
     -3.627  0.2723E-17  0.1117E-07  0.0000E+00
     -3.531  0.6613E-04  0.4381E+01  0.0000E+00
     -3.435  0.6818E-04  0.4351E+01  0.0000E+00
     -3.339  0.0000E+00  0.0000E+00  0.0000E+00
     -3.243  0.0000E+00  0.0000E+00  0.0000E+00
     -3.147  0.0000E+00  0.0000E+00  0.0000E+00
     -3.051  0.0000E+00  0.0000E+00  0.0000E+00
     -2.955  0.0000E+00  0.0000E+00  0.0000E+00
     -2.859  0.0000E+00  0.0000E+00  0.0000E+00
     -2.763  0.0000E+00  0.0000E+00  0.0000E+00
     -2.667  0.0000E+00  0.0000E+00  0.0000E+00
     -2.571  0.0000E+00  0.0000E+00  0.0000E+00
     -2.474  0.0000E+00  0.0000E+00  0.0000E+00
     -2.378  0.0000E+00  0.0000E+00  0.0000E+00
     -2.282  0.0000E+00  0.0000E+00  0.0000E+00
     -2.186  0.0000E+00  0.0000E+00  0.0000E+00
     -2.090  0.1376E-04  0.1871E-02  0.0000E+00
     -1.994  0.1318E-03  0.7617E-02  0.0000E+00
     -1.898  0.2173E-03  0.7086E-02  0.0000E+00
     -1.802  0.2490E-03  0.4957E-02  0.0000E+00
     -1.706  0.3217E-03  0.4984E-02  0.0000E+00
     -1.610  0.3723E-03  0.8014E-02  0.0000E+00
     -1.514  0.3646E-03  0.5924E-02  0.0000E+00
     -1.418  0.4947E-03  0.7974E-02  0.0000E+00
     -1.322  0.1726E-03  0.3794E-02  0.0000E+00
     -1.226  0.6183E-04  0.2015E-02  0.0000E+00
     -1.129  0.0000E+00  0.0000E+00  0.0000E+00
     -1.033  0.1829E-03  0.1412E-03  0.0000E+00
     -0.937  0.2389E-02  0.3872E-02  0.0000E+00
     -0.841  0.6384E-02  0.2592E-01  0.0000E+00
     -0.745  0.5912E-02  0.2650E-01  0.0000E+00
     -0.649  0.7146E-02  0.3955E-01  0.0000E+00
     -0.553  0.3834E-02  0.2006E-01  0.0000E+00
     -0.457  0.1885E-02  0.1507E-01  0.0000E+00
     -0.361  0.3183E-02  0.2296E-01  0.0000E+00
     -0.265  0.1195E-02  0.1301E-01  0.0000E+00
     -0.169  0.2343E-02  0.2414E-01  0.0000E+00
     -0.073  0.1373E-02  0.2215E-01  0.0000E+00
      0.023  0.4117E-03  0.1337E-01  0.0000E+00
      0.119  0.3741E-02  0.2323E-01  0.0000E+00
      0.216  0.1409E-02  0.1444E-01  0.0000E+00
      0.312  0.2087E-02  0.2186E-01  0.0000E+00
      0.408  0.1662E-02  0.1155E-01  0.0000E+00
      0.504  0.2974E-02  0.2594E-01  0.0000E+00
      0.600  0.3384E-02  0.2190E-01  0.0000E+00
      0.696  0.1305E-02  0.7418E-02  0.0000E+00
      0.792  0.5435E-03  0.6040E-02  0.0000E+00
      0.888  0.5953E-03  0.3255E-02  0.0000E+00
      0.984  0.2512E-04  0.5174E-03  0.0000E+00
      1.080  0.1468E-03  0.9565E-03  0.0000E+00
      1.176  0.2704E-04  0.4353E-03  0.0000E+00
      1.272  0.4675E-07  0.3122E-03  0.0000E+00
      1.368  0.2396E-10  0.5166E-04  0.0000E+00
      1.465  0.1170E-13  0.1949E-06  0.0000E+00
      1.561  0.0000E+00  0.0000E+00  0.0000E+00
      1.657  0.0000E+00  0.0000E+00  0.0000E+00
      1.753  0.0000E+00  0.0000E+00  0.0000E+00
      1.849  0.0000E+00  0.0000E+00  0.0000E+00
      1.945  0.0000E+00  0.0000E+00  0.0000E+00
      2.041  0.0000E+00  0.0000E+00  0.0000E+00
      2.137  0.0000E+00  0.0000E+00  0.0000E+00
      2.233  0.0000E+00  0.0000E+00  0.0000E+00
      2.329  0.0000E+00  0.0000E+00  0.0000E+00
      2.425  0.0000E+00  0.0000E+00  0.0000E+00
      2.521  0.0000E+00  0.0000E+00  0.0000E+00
      2.617  0.0000E+00  0.0000E+00  0.0000E+00
      2.713  0.0000E+00  0.0000E+00  0.0000E+00
      2.810  0.0000E+00  0.0000E+00  0.0000E+00
      2.906  0.1180E-19  0.2166E-19  0.0000E+00
      3.002  0.9666E-05  0.2424E-04  0.0000E+00
      3.098  0.3416E-04  0.1130E-03  0.0000E+00
      3.194  0.3295E-04  0.2762E-03  0.0000E+00
      3.290  0.1365E-04  0.6919E-04  0.0000E+00
      3.386  0.8097E-04  0.2844E-03  0.0000E+00
      3.482  0.1277E-03  0.4363E-03  0.0000E+00
      3.578  0.1820E-03  0.4092E-03  0.0000E+00
      3.674  0.3145E-03  0.5294E-03  0.0000E+00
      3.770  0.3182E-03  0.6030E-03  0.0000E+00
      3.866  0.4524E-04  0.9014E-04  0.0000E+00
      3.962  0.2861E-04  0.2163E-03  0.0000E+00
      4.058  0.4009E-05  0.4479E-04  0.0000E+00
      4.155  0.3279E-04  0.5160E-03  0.0000E+00
      4.251  0.6648E-04  0.5936E-03  0.0000E+00
      4.347  0.1561E-04  0.4043E-03  0.0000E+00
      4.443  0.2162E-03  0.1028E-02  0.0000E+00
      4.539  0.1378E-03  0.9067E-03  0.0000E+00
      4.635  0.1523E-03  0.6484E-03  0.0000E+00
      4.731  0.7969E-04  0.1503E-03  0.0000E+00
      4.827  0.2834E-04  0.6000E-04  0.0000E+00
      4.923  0.0000E+00  0.0000E+00  0.0000E+00
      5.019  0.5139E-04  0.2777E-04  0.0000E+00
      5.115  0.9337E-09  0.6674E-09  0.0000E+00
      5.211  0.4328E-02  0.3094E-02  0.0000E+00
      5.307  0.1542E-01  0.1202E-01  0.0000E+00
      5.403  0.2124E-01  0.2270E-01  0.0000E+00
      5.500  0.9443E-02  0.1420E-01  0.0000E+00
      5.596  0.4321E-02  0.8827E-02  0.0000E+00
      5.692  0.9253E-02  0.1018E-01  0.0000E+00
      5.788  0.1915E-01  0.2616E-01  0.0000E+00
      5.884  0.2421E-01  0.1865E-01  0.0000E+00
      5.980  0.2338E-01  0.2373E-01  0.0000E+00
      6.076  0.3889E-01  0.5687E-01  0.0000E+00
      6.172  0.8731E-02  0.2978E-01  0.0000E+00
      6.268  0.2252E-01  0.5763E-01  0.0000E+00
      6.364  0.2098E-01  0.3080E-01  0.0000E+00
      6.460  0.1349E+00  0.4034E-01  0.0000E+00
      6.556  0.8907E-01  0.3359E-01  0.0000E+00
      6.652  0.1108E+00  0.5324E-01  0.0000E+00
      6.749  0.9161E-01  0.4514E-01  0.0000E+00
      6.845  0.5325E-01  0.4826E-01  0.0000E+00
      6.941  0.4559E-01  0.3972E-01  0.0000E+00
      7.037  0.2096E-01  0.5618E-01  0.0000E+00
      7.133  0.3008E-01  0.7775E-01  0.0000E+00
      7.229  0.3270E-01  0.1125E+00  0.0000E+00
      7.325  0.1957E-01  0.7927E-01  0.0000E+00
      7.421  0.1881E-01  0.4420E-01  0.0000E+00
      7.517  0.7442E-02  0.3668E-01  0.0000E+00
      7.613  0.1942E-01  0.4992E-01  0.0000E+00
      7.709  0.9130E-02  0.5081E-01  0.0000E+00
      7.805  0.1276E-02  0.1762E-01  0.0000E+00
      7.901  0.1878E-03  0.5571E-02  0.0000E+00
      7.997  0.7057E-05  0.2101E-02  0.0000E+00
      8.094  0.0000E+00  0.0000E+00  0.0000E+00
      8.190  0.0000E+00  0.0000E+00  0.0000E+00
      8.286  0.0000E+00  0.0000E+00  0.0000E+00
      8.382  0.0000E+00  0.0000E+00  0.0000E+00
      8.478  0.0000E+00  0.0000E+00  0.0000E+00
      8.574  0.0000E+00  0.0000E+00  0.0000E+00
      8.670  0.0000E+00  0.0000E+00  0.0000E+00
      8.766  0.0000E+00  0.0000E+00  0.0000E+00
      8.862  0.0000E+00  0.0000E+00  0.0000E+00
      8.958  0.0000E+00  0.0000E+00  0.0000E+00
      9.054  0.0000E+00  0.0000E+00  0.0000E+00
      9.150  0.0000E+00  0.0000E+00  0.0000E+00
      9.246  0.0000E+00  0.0000E+00  0.0000E+00
      9.24640105    -19.57539697  301      1.56659279      1.00000000
    -19.575  0.0000E+00  0.0000E+00  0.0000E+00
    -19.479  0.0000E+00  0.0000E+00  0.0000E+00
    -19.383  0.0000E+00  0.0000E+00  0.0000E+00
    -19.287  0.0000E+00  0.0000E+00  0.0000E+00
    -19.191  0.0000E+00  0.0000E+00  0.0000E+00
    -19.095  0.0000E+00  0.0000E+00  0.0000E+00
    -18.999  0.0000E+00  0.0000E+00  0.0000E+00
    -18.903  0.0000E+00  0.0000E+00  0.0000E+00
    -18.807  0.0000E+00  0.0000E+00  0.0000E+00
    -18.711  0.0000E+00  0.0000E+00  0.0000E+00
    -18.615  0.0000E+00  0.0000E+00  0.0000E+00
    -18.519  0.0000E+00  0.0000E+00  0.0000E+00
    -18.423  0.0000E+00  0.0000E+00  0.0000E+00
    -18.326  0.0000E+00  0.0000E+00  0.0000E+00
    -18.230  0.1157E+02  0.4530E-02  0.0000E+00
    -18.134  0.0000E+00  0.0000E+00  0.0000E+00
    -18.038  0.0000E+00  0.0000E+00  0.0000E+00
    -17.942  0.0000E+00  0.0000E+00  0.0000E+00
    -17.846  0.0000E+00  0.0000E+00  0.0000E+00
    -17.750  0.0000E+00  0.0000E+00  0.0000E+00
    -17.654  0.0000E+00  0.0000E+00  0.0000E+00
    -17.558  0.0000E+00  0.0000E+00  0.0000E+00
    -17.462  0.0000E+00  0.0000E+00  0.0000E+00
    -17.366  0.0000E+00  0.0000E+00  0.0000E+00
    -17.270  0.0000E+00  0.0000E+00  0.0000E+00
    -17.174  0.0000E+00  0.0000E+00  0.0000E+00
    -17.078  0.0000E+00  0.0000E+00  0.0000E+00
    -16.981  0.0000E+00  0.0000E+00  0.0000E+00
    -16.885  0.0000E+00  0.0000E+00  0.0000E+00
    -16.789  0.0000E+00  0.0000E+00  0.0000E+00
    -16.693  0.0000E+00  0.0000E+00  0.0000E+00
    -16.597  0.0000E+00  0.0000E+00  0.0000E+00
    -16.501  0.0000E+00  0.0000E+00  0.0000E+00
    -16.405  0.0000E+00  0.0000E+00  0.0000E+00
    -16.309  0.0000E+00  0.0000E+00  0.0000E+00
    -16.213  0.0000E+00  0.0000E+00  0.0000E+00
    -16.117  0.0000E+00  0.0000E+00  0.0000E+00
    -16.021  0.0000E+00  0.0000E+00  0.0000E+00
    -15.925  0.0000E+00  0.0000E+00  0.0000E+00
    -15.829  0.0000E+00  0.0000E+00  0.0000E+00
    -15.732  0.0000E+00  0.0000E+00  0.0000E+00
    -15.636  0.0000E+00  0.0000E+00  0.0000E+00
    -15.540  0.0000E+00  0.0000E+00  0.0000E+00
    -15.444  0.0000E+00  0.0000E+00  0.0000E+00
    -15.348  0.0000E+00  0.0000E+00  0.0000E+00
    -15.252  0.0000E+00  0.0000E+00  0.0000E+00
    -15.156  0.0000E+00  0.0000E+00  0.0000E+00
    -15.060  0.1247E-06  0.5780E-06  0.0000E+00
    -14.964  0.7085E-04  0.2655E-04  0.0000E+00
    -14.868  0.0000E+00  0.0000E+00  0.0000E+00
    -14.772  0.0000E+00  0.0000E+00  0.0000E+00
    -14.676  0.0000E+00  0.0000E+00  0.0000E+00
    -14.580  0.0000E+00  0.0000E+00  0.0000E+00
    -14.484  0.0000E+00  0.0000E+00  0.0000E+00
    -14.387  0.0000E+00  0.0000E+00  0.0000E+00
    -14.291  0.0000E+00  0.0000E+00  0.0000E+00
    -14.195  0.0000E+00  0.0000E+00  0.0000E+00
    -14.099  0.0000E+00  0.0000E+00  0.0000E+00
    -14.003  0.0000E+00  0.0000E+00  0.0000E+00
    -13.907  0.0000E+00  0.0000E+00  0.0000E+00
    -13.811  0.0000E+00  0.0000E+00  0.0000E+00
    -13.715  0.0000E+00  0.0000E+00  0.0000E+00
    -13.619  0.0000E+00  0.0000E+00  0.0000E+00
    -13.523  0.0000E+00  0.0000E+00  0.0000E+00
    -13.427  0.0000E+00  0.0000E+00  0.0000E+00
    -13.331  0.0000E+00  0.0000E+00  0.0000E+00
    -13.235  0.0000E+00  0.0000E+00  0.0000E+00
    -13.139  0.0000E+00  0.0000E+00  0.0000E+00
    -13.042  0.0000E+00  0.0000E+00  0.0000E+00
    -12.946  0.0000E+00  0.0000E+00  0.0000E+00
    -12.850  0.0000E+00  0.0000E+00  0.0000E+00
    -12.754  0.0000E+00  0.0000E+00  0.0000E+00
    -12.658  0.0000E+00  0.0000E+00  0.0000E+00
    -12.562  0.0000E+00  0.0000E+00  0.0000E+00
    -12.466  0.0000E+00  0.0000E+00  0.0000E+00
    -12.370  0.0000E+00  0.0000E+00  0.0000E+00
    -12.274  0.0000E+00  0.0000E+00  0.0000E+00
    -12.178  0.0000E+00  0.0000E+00  0.0000E+00
    -12.082  0.0000E+00  0.0000E+00  0.0000E+00
    -11.986  0.0000E+00  0.0000E+00  0.0000E+00
    -11.890  0.0000E+00  0.0000E+00  0.0000E+00
    -11.794  0.0000E+00  0.0000E+00  0.0000E+00
    -11.697  0.0000E+00  0.0000E+00  0.0000E+00
    -11.601  0.0000E+00  0.0000E+00  0.0000E+00
    -11.505  0.0000E+00  0.0000E+00  0.0000E+00
    -11.409  0.1487E-07  0.6859E-07  0.0000E+00
    -11.313  0.3387E+00  0.1451E+01  0.0000E+00
    -11.217  0.6282E-01  0.2548E+00  0.0000E+00
    -11.121  0.0000E+00  0.0000E+00  0.0000E+00
    -11.025  0.0000E+00  0.0000E+00  0.0000E+00