       N       E                     dE             d eps       ncg     rms          rms(c)
DAV:   1     0.364711469547E+03    0.36471E+03   -0.20005E+04  7168   0.130E+03
DAV:   2    -0.106187203370E+02   -0.37533E+03   -0.36029E+03  8864   0.300E+02
DAV:   3    -0.529764269603E+02   -0.42358E+02   -0.42057E+02  8792   0.110E+02
DAV:   4    -0.549616736583E+02   -0.19852E+01   -0.19814E+01 10944   0.305E+01
DAV:   5    -0.550059216998E+02   -0.44248E-01   -0.44232E-01  9448   0.336E+00    0.106E+01
DAV:   6    -0.524235251866E+02    0.25824E+01   -0.54507E+00  8952   0.100E+01    0.564E+00
DAV:   7    -0.520939233475E+02    0.32960E+00   -0.14184E+00  9552   0.538E+00    0.278E+00
DAV:   8    -0.520687451363E+02    0.25178E-01   -0.21671E-01  9088   0.249E+00    0.423E-01
DAV:   9    -0.520680224146E+02    0.72272E-03   -0.36991E-02  9272   0.973E-01    0.220E-01
DAV:  10    -0.520693645300E+02   -0.13421E-02   -0.60278E-03  9024   0.388E-01    0.994E-02
DAV:  11    -0.520692956115E+02    0.68918E-04   -0.87470E-04  9504   0.150E-01    0.477E-02
DAV:  12    -0.520694680072E+02   -0.17240E-03   -0.43235E-04  9440   0.967E-02    0.254E-02
DAV:  13    -0.520694749901E+02   -0.69829E-05   -0.42605E-05  9664   0.347E-02    0.142E-02
DAV:  14    -0.520694810095E+02   -0.60195E-05   -0.21253E-05  8544   0.201E-02    0.382E-03
DAV:  15    -0.520694823851E+02   -0.13756E-05   -0.28181E-06  8400   0.898E-03    0.370E-03
DAV:  16    -0.520694823272E+02    0.57939E-07   -0.70913E-07  5848   0.479E-03
   1 F= -.52069482E+02 E0= -.52069482E+02  d E =-.448404E-39
