PROCAR new format
# of k-points:  112         # of bands:  32         # of ions:  12

 k-point    1 :    0.00000000 0.00000000 0.00000000     weight = 0.00462963

band   1 # energy  -18.26531524 # occ.  2.00000000
 
ion      s      p      d    tot
  1  0.060  0.019  0.000  0.079
  2  0.555  0.000  0.000  0.556
  3  0.003  0.000  0.000  0.003
  4  0.003  0.000  0.000  0.004
  5  0.003  0.000  0.000  0.004
  6  0.053  0.009  0.000  0.062
  7  0.053  0.009  0.000  0.062
  8  0.053  0.009  0.000  0.061
  9  0.000  0.000  0.000  0.000
 10  0.000  0.000  0.000  0.000
 11  0.000  0.000  0.000  0.000
 12  0.000  0.000  0.000  0.000
tot  0.784  0.047  0.000  0.831
 
band   2 # energy  -15.05449708 # occ.  2.00000000
 
ion      s      p      d    tot
  1  0.000  0.000  0.000  0.000
  2  0.000  0.000  0.000  0.000
  3  0.000  0.000  0.000  0.000
  4  0.000  0.000  0.000  0.000
  5  0.000  0.000  0.000  0.000
  6  0.000  0.000  0.000  0.000
  7  0.000  0.000  0.000  0.000
  8  0.000  0.000  0.000  0.000
  9  0.000  0.000  0.964  0.964
 10  0.004  0.000  0.000  0.004
 11  0.003  0.000  0.000  0.004
 12  0.000  0.000  0.000  0.000
tot  0.007  0.000  0.965  0.972
 
band   3 # energy  -15.03025564 # occ.  2.00000000
 
ion      s      p      d    tot
  1  0.000  0.000  0.000  0.000
  2  0.000  0.000  0.000  0.000
  3  0.000  0.000  0.000  0.000
  4  0.000  0.000  0.000  0.000
  5  0.000  0.000  0.000  0.000
  6  0.000  0.000  0.000  0.000
  7  0.000  0.000  0.000  0.000
  8  0.000  0.000  0.000  0.000
  9  0.000  0.000  0.965  0.965
 10  0.001  0.000  0.000  0.001
 11  0.001  0.000  0.000  0.001
 12  0.005  0.000  0.000  0.005
tot  0.007  0.000  0.965  0.972
 
band   4 # energy  -14.99042058 # occ.  2.00000000
 
ion      s      p      d    tot
  1  0.000  0.000  0.000  0.000
  2  0.000  0.000  0.000  0.000
  3  0.000  0.000  0.000  0.000
  4  0.000  0.000  0.000  0.000
  5  0.000  0.000  0.000  0.000
  6  0.000  0.000  0.000  0.000
  7  0.000  0.000  0.000  0.000
  8  0.000  0.000  0.000  0.000
  9  0.000  0.000  0.978  0.978
 10  0.000  0.000  0.000  0.000
 11  0.000  0.000  0.000  0.000
 12  0.000  0.000  0.000  0.000
tot  0.000  0.000  0.978  0.978
 
band   5 # energy  -14.97237054 # occ.  2.00000000
 
ion      s      p      d    tot
  1  0.000  0.000  0.000  0.000
  2  0.000  0.000  0.000  0.000
  3  0.000  0.000  0.000  0.000
  4  0.000  0.000  0.000  0.000
  5  0.000  0.000  0.000  0.000
  6  0.000  0.000  0.000  0.000
  7  0.000  0.000  0.000  0.000
  8  0.000  0.000  0.000  0.000
  9  0.000  0.000  0.978  0.978
 10  0.000  0.000  0.000  0.000
 11  0.000  0.000  0.000  0.000
 12  0.000  0.000  0.000  0.000
tot  0.000  0.000  0.978  0.978
 
band   6 # energy  -14.96808672 # occ.  2.00000000
 
ion      s      p      d    tot
  1  0.000  0.000  0.000  0.000
  2  0.000  0.000  0.000  0.000
  3  0.000  0.000  0.000  0.000
  4  0.000  0.000  0.000  0.000
  5  0.000  0.000  0.000  0.000
  6  0.000  0.000  0.000  0.000
  7  0.000  0.000  0.000  0.000
  8  0.000  0.000  0.000  0.000
  9  0.000  0.000  0.978  0.978
 10  0.000  0.000  0.000  0.000
 11  0.000  0.000  0.000  0.000
 12  0.000  0.000  0.000  0.000
tot  0.000  0.000  0.978  0.978
 
band   7 # energy  -11.30636369 # occ.  2.00000000
 
ion      s      p      d    tot
  1  0.330  0.000  0.000  0.330
  2  0.030  0.131  0.000  0.162
  3  0.052  0.005  0.000  0.057
  4  0.052  0.005  0.000  0.057
  5  0.052  0.005  0.000  0.057
  6  0.021  0.003  0.000  0.025
  7  0.021  0.003  0.000  0.025
  8  0.022  0.003  0.000  0.025
  9  0.001  0.000  0.000  0.001
 10  0.011  0.000  0.000  0.011
 11  0.008  0.000  0.000  0.009
 12  0.000  0.000  0.000  0.000
tot  0.601  0.157  0.000  0.758
 
band   8 # energy  -10.83943339 # occ.  2.00000000
 
ion      s      p      d    tot
  1  0.007  0.001  0.000  0.008
  2  0.005  0.001  0.000  0.006
  3  0.002  0.000  0.000  0.002
  4  0.002  0.000  0.000  0.002
  5  0.002  0.000  0.000  0.002
  6  0.000  0.000  0.000  0.001
  7  0.000  0.000  0.000  0.001
  8  0.000  0.000  0.000  0.001
  9  0.060  0.000  0.000  0.061
 10  0.268  0.000  0.000  0.268
 11  0.228  0.000  0.000  0.228
 12  0.119  0.000  0.000  0.120
tot  0.695  0.003  0.001  0.699
 
band   9 # energy  -10.12837991 # occ.  2.00000000
 
ion      s      p      d    tot
  1  0.000  0.000  0.000  0.000
  2  0.000  0.002  0.000  0.002
  3  0.000  0.000  0.000  0.000
  4  0.000  0.000  0.000  0.000
  5  0.000  0.000  0.000  0.000
  6  0.000  0.000  0.000  0.000
  7  0.000  0.000  0.000  0.000
  8  0.002  0.000  0.000  0.002
  9  0.000  0.000  0.015  0.016
 10  0.369  0.000  0.000  0.369
 11  0.375  0.000  0.000  0.375
 12  0.002  0.000  0.000  0.002
tot  0.749  0.002  0.016  0.766
 
band  10 # energy   -9.84888918 # occ.  2.00000000
 
ion      s      p      d    tot
  1  0.002  0.000  0.000  0.002
  2  0.001  0.000  0.000  0.001
  3  0.001  0.000  0.000  0.001
  4  0.000  0.000  0.000  0.000
  5  0.000  0.000  0.000  0.000
  6  0.000  0.000  0.000  0.000
  7  0.000  0.000  0.000  0.000
  8  0.000  0.000  0.000  0.000
  9  0.003  0.000  0.015  0.018
 10  0.062  0.000  0.000  0.062
 11  0.097  0.000  0.000  0.097
 12  0.585  0.000  0.000  0.585
tot  0.751  0.001  0.015  0.767
 
band  11 # energy   -7.78121845 # occ.  2.00000000
 
ion      s      p      d    tot
  1  0.000  0.042  0.000  0.042
  2  0.000  0.401  0.000  0.401
  3  0.000  0.000  0.000  0.000
  4  0.013  0.001  0.000  0.014
  5  0.013  0.001  0.000  0.014
  6  0.129  0.011  0.000  0.140
  7  0.128  0.011  0.000  0.139
  8  0.000  0.003  0.000  0.003
  9  0.000  0.000  0.000  0.000
 10  0.000  0.003  0.000  0.003
 11  0.000  0.000  0.000  0.000
 12  0.000  0.000  0.000  0.000
tot  0.282  0.474  0.000  0.756
 
band  12 # energy   -7.61625248 # occ.  2.00000000
 
ion      s      p      d    tot
  1  0.000  0.045  0.000  0.045
  2  0.000  0.397  0.000  0.397
  3  0.017  0.001  0.000  0.019
  4  0.005  0.001  0.000  0.006
  5  0.005  0.001  0.000  0.006
  6  0.040  0.006  0.000  0.046
  7  0.041  0.006  0.000  0.046
  8  0.166  0.013  0.000  0.179
  9  0.000  0.000  0.000  0.000
 10  0.002  0.000  0.000  0.003
 11  0.002  0.002  0.000  0.005
 12  0.000  0.000  0.000  0.001
tot  0.279  0.472  0.000  0.752
 
band  13 # energy   -5.79757570 # occ.  2.00000000
 
ion      s      p      d    tot
  1  0.015  0.208  0.000  0.224
  2  0.009  0.293  0.000  0.302
  3  0.037  0.003  0.000  0.040
  4  0.033  0.003  0.000  0.037
  5  0.033  0.003  0.000  0.037
  6  0.013  0.003  0.000  0.016
  7  0.013  0.003  0.000  0.016
  8  0.012  0.003  0.000  0.015
  9  0.034  0.000  0.000  0.034
 10  0.000  0.000  0.000  0.001
 11  0.000  0.000  0.000  0.000
 12  0.001  0.000  0.000  0.001
tot  0.202  0.519  0.001  0.722
 
band  14 # energy   -5.33595994 # occ.  2.00000000
 
ion      s      p      d    tot
  1  0.001  0.010  0.000  0.011
  2  0.000  0.016  0.000  0.016
  3  0.002  0.000  0.000  0.002
  4  0.001  0.000  0.000  0.002
  5  0.001  0.000  0.000  0.002
  6  0.001  0.000  0.000  0.001
  7  0.001  0.000  0.000  0.001
  8  0.001  0.000  0.000  0.001
  9  0.612  0.000  0.000  0.612
 10  0.037  0.001  0.002  0.040
 11  0.040  0.001  0.002  0.043
 12  0.044  0.002  0.002  0.047
tot  0.740  0.030  0.005  0.775
 
band  15 # energy   -3.50465761 # occ.  2.00000000
 
ion      s      p      d    tot
  1  0.000  0.274  0.000  0.274
  2  0.000  0.045  0.000  0.045
  3  0.000  0.002  0.000  0.002
  4  0.149  0.007  0.000  0.156
  5  0.152  0.007  0.000  0.160
  6  0.028  0.001  0.000  0.029
  7  0.027  0.001  0.000  0.029
  8  0.000  0.000  0.000  0.000
  9  0.000  0.000  0.000  0.000
 10  0.000  0.001  0.000  0.001
 11  0.000  0.000  0.000  0.000
 12  0.000  0.001  0.000  0.001
tot  0.357  0.341  0.000  0.699
 
band  16 # energy   -3.48957748 # occ.  2.00000000
 
ion      s      p      d    tot
  1  0.000  0.270  0.000  0.270
  2  0.000  0.049  0.000  0.049
  3  0.198  0.009  0.000  0.207
  4  0.052  0.004  0.000  0.056
  5  0.049  0.004  0.000  0.053
  6  0.009  0.001  0.000  0.010
  7  0.010  0.001  0.000  0.011
  8  0.039  0.002  0.000  0.040
  9  0.000  0.000  0.000  0.000
 10  0.000  0.000  0.000  0.001
 11  0.001  0.001  0.000  0.002
 12  0.000  0.001  0.000  0.002
tot  0.358  0.342  0.000  0.701
 
band  17 # energy   -2.12231478 # occ.  2.00000000
 
ion      s      p      d    tot
  1  0.000  0.002  0.000  0.002
  2  0.000  0.004  0.000  0.004
  3  0.000  0.000  0.000  0.000
  4  0.000  0.000  0.000  0.000
  5  0.000  0.000  0.000  0.000
  6  0.000  0.000  0.000  0.000
  7  0.000  0.000  0.000  0.000
  8  0.000  0.000  0.000  0.001
  9  0.000  0.101  0.000  0.102
 10  0.000  0.273  0.000  0.273
 11  0.000  0.051  0.000  0.051
 12  0.000  0.024  0.000  0.024
tot  0.001  0.456  0.000  0.457
 
band  18 # energy   -2.12177460 # occ.  2.00000000
 
ion      s      p      d    tot
  1  0.000  0.001  0.000  0.001
  2  0.000  0.005  0.000  0.005
  3  0.000  0.000  0.000  0.000
  4  0.000  0.000  0.000  0.000
  5  0.000  0.000  0.000  0.000
  6  0.000  0.000  0.000  0.001
  7  0.000  0.000  0.000  0.001
  8  0.000  0.000  0.000  0.000
  9  0.000  0.102  0.000  0.103
 10  0.000  0.056  0.000  0.056
 11  0.000  0.268  0.000  0.268
 12  0.000  0.024  0.000  0.024
tot  0.001  0.456  0.000  0.458
 
band  19 # energy   -1.96601276 # occ.  2.00000000
 
ion      s      p      d    tot
  1  0.001  0.001  0.000  0.001
  2  0.001  0.000  0.000  0.002
  3  0.000  0.000  0.000  0.000
  4  0.000  0.000  0.000  0.000
  5  0.000  0.000  0.000  0.000
  6  0.000  0.000  0.000  0.000
  7  0.000  0.000  0.000  0.000
  8  0.000  0.000  0.000  0.000
  9  0.004  0.104  0.000  0.108
 10  0.001  0.039  0.000  0.040
 11  0.001  0.036  0.000  0.037
 12  0.000  0.264  0.000  0.264
tot  0.008  0.445  0.000  0.454
 
band  20 # energy   -0.00549079 # occ.  2.00000000
 
ion      s      p      d    tot
  1  0.000  0.000  0.000  0.000
  2  0.000  0.021  0.000  0.021
  3  0.000  0.000  0.000  0.000
  4  0.000  0.000  0.000  0.001
  5  0.000  0.000  0.000  0.001
  6  0.000  0.002  0.000  0.002
  7  0.000  0.002  0.000  0.002
  8  0.000  0.000  0.000  0.000
  9  0.000  0.006  0.000  0.006
 10  0.000  0.446  0.000  0.446
 11  0.000  0.048  0.000  0.048
 12  0.000  0.014  0.000  0.014
tot  0.001  0.539  0.000  0.541
 
band  21 # energy    0.02809448 # occ.  2.00000000
 
ion      s      p      d    tot
  1  0.000  0.000  0.000  0.000
  2  0.000  0.017  0.000  0.017
  3  0.001  0.000  0.000  0.001
  4  0.000  0.000  0.000  0.000
  5  0.000  0.000  0.000  0.000
  6  0.000  0.000  0.000  0.000
  7  0.000  0.000  0.000  0.000
  8  0.000  0.003  0.000  0.003
  9  0.000  0.002  0.000  0.002
 10  0.000  0.113  0.000  0.114
 11  0.000  0.381  0.000  0.381
 12  0.000  0.012  0.000  0.012
tot  0.002  0.529  0.000  0.532
 
band  22 # energy    0.10558222 # occ.  2.00000000
 
ion      s      p      d    tot
  1  0.000  0.000  0.000  0.000
  2  0.002  0.001  0.000  0.003
  3  0.000  0.000  0.000  0.000
  4  0.000  0.000  0.000  0.000
  5  0.000  0.000  0.000  0.000
  6  0.000  0.000  0.000  0.001
  7  0.000  0.000  0.000  0.001
  8  0.000  0.001  0.000  0.001
  9  0.000  0.005  0.001  0.006
 10  0.000  0.296  0.000  0.296
 11  0.000  0.192  0.000  0.192
 12  0.000  0.031  0.000  0.031
tot  0.003  0.527  0.001  0.530
 
band  23 # energy    0.23605386 # occ.  2.00000000
 
ion      s      p      d    tot
  1  0.000  0.000  0.000  0.000
  2  0.003  0.001  0.000  0.005
  3  0.000  0.000  0.000  0.000
  4  0.000  0.000  0.000  0.000
  5  0.000  0.000  0.000  0.000
  6  0.000  0.001  0.000  0.001
  7  0.000  0.001  0.000  0.001
  8  0.001  0.000  0.000  0.001
  9  0.001  0.011  0.001  0.013
 10  0.000  0.090  0.000  0.090
 11  0.000  0.340  0.000  0.340
 12  0.001  0.091  0.000  0.092
tot  0.006  0.534  0.001  0.541
 
band  24 # energy    0.50491372 # occ.  2.00000000
 
ion      s      p      d    tot
  1  0.000  0.004  0.000  0.004
  2  0.000  0.000  0.000  0.000
  3  0.000  0.000  0.000  0.000
  4  0.001  0.000  0.000  0.001
  5  0.001  0.000  0.000  0.001
  6  0.000  0.000  0.000  0.000
  7  0.000  0.000  0.000  0.000
  8  0.000  0.000  0.000  0.000
  9  0.000  0.004  0.000  0.004
 10  0.000  0.003  0.000  0.003
 11  0.000  0.060  0.000  0.060
 12  0.000  0.464  0.000  0.464
tot  0.002  0.536  0.000  0.538
 
band  25 # energy    0.51637864 # occ.  2.00000000
 
ion      s      p      d    tot
  1  0.000  0.004  0.000  0.004
  2  0.000  0.000  0.000  0.001
  3  0.001  0.000  0.000  0.001
  4  0.000  0.000  0.000  0.000
  5  0.000  0.000  0.000  0.000
  6  0.000  0.000  0.000  0.000
  7  0.000  0.000  0.000  0.000
  8  0.000  0.000  0.000  0.000
  9  0.000  0.004  0.000  0.004
 10  0.000  0.062  0.000  0.062
 11  0.000  0.005  0.000  0.005
 12  0.000  0.461  0.000  0.461
tot  0.002  0.536  0.001  0.538
 
band  26 # energy    5.03389848 # occ.  0.00000000
 
ion      s      p      d    tot
  1  0.028  0.015  0.000  0.044
  2  0.030  0.010  0.000  0.040
  3  0.000  0.004  0.000  0.004
  4  0.000  0.004  0.000  0.004
  5  0.000  0.004  0.000  0.004
  6  0.002  0.005  0.000  0.007
  7  0.002  0.005  0.000  0.007
  8  0.002  0.005  0.000  0.007
  9  0.001  0.003  0.000  0.004
 10  0.019  0.002  0.004  0.025
 11  0.019  0.002  0.004  0.025
 12  0.024  0.004  0.004  0.032
tot  0.129  0.061  0.011  0.202
 
band  27 # energy    5.96447281 # occ.  0.00000000
 
ion      s      p      d    tot
  1  0.000  0.007  0.000  0.007
  2  0.000  0.013  0.000  0.013
  3  0.000  0.001  0.000  0.001
  4  0.000  0.001  0.000  0.001
  5  0.000  0.001  0.000  0.001
  6  0.002  0.003  0.000  0.005
  7  0.002  0.003  0.000  0.005
  8  0.000  0.002  0.000  0.002
  9  0.000  0.076  0.021  0.098
 10  0.000  0.000  0.027  0.027
 11  0.000  0.038  0.030  0.068
 12  0.000  0.004  0.009  0.013
tot  0.005  0.148  0.087  0.240
 
band  28 # energy    6.11821501 # occ.  0.00000000
 
ion      s      p      d    tot
  1  0.000  0.001  0.000  0.001
  2  0.000  0.007  0.000  0.007
  3  0.001  0.000  0.000  0.001
  4  0.000  0.000  0.000  0.001
  5  0.000  0.000  0.000  0.001
  6  0.000  0.001  0.000  0.001
  7  0.000  0.001  0.000  0.001
  8  0.000  0.000  0.000  0.001
  9  0.000  0.170  0.016  0.186
 10  0.000  0.080  0.027  0.107
 11  0.002  0.004  0.006  0.012
 12  0.001  0.012  0.019  0.032
tot  0.005  0.277  0.067  0.349
 
band  29 # energy    6.38783435 # occ.  0.00000000
 
ion      s      p      d    tot
  1  0.000  0.012  0.000  0.012
  2  0.000  0.024  0.000  0.024
  3  0.003  0.002  0.000  0.005
  4  0.000  0.003  0.000  0.003
  5  0.000  0.003  0.000  0.003
  6  0.001  0.003  0.000  0.003
  7  0.001  0.003  0.000  0.003
  8  0.002  0.003  0.000  0.004
  9  0.000  0.003  0.001  0.004
 10  0.016  0.002  0.007  0.025
 11  0.006  0.001  0.014  0.020
 12  0.000  0.002  0.021  0.023
tot  0.029  0.058  0.043  0.130
 
band  30 # energy    6.48399794 # occ.  0.00000000
 
ion      s      p      d    tot
  1  0.004  0.008  0.000  0.012
  2  0.018  0.024  0.000  0.042
  3  0.001  0.000  0.000  0.001
  4  0.002  0.000  0.000  0.003
  5  0.002  0.000  0.000  0.003
  6  0.001  0.005  0.000  0.005
  7  0.001  0.005  0.000  0.005
  8  0.000  0.004  0.000  0.004
  9  0.000  0.011  0.004  0.015
 10  0.005  0.002  0.033  0.040
 11  0.010  0.000  0.020  0.030
 12  0.006  0.000  0.007  0.013
tot  0.049  0.059  0.063  0.171
 
band  31 # energy    6.51877894 # occ.  0.00000000
 
ion      s      p      d    tot
  1  0.000  0.000  0.000  0.000
  2  0.000  0.005  0.000  0.005
  3  0.000  0.000  0.000  0.000
  4  0.001  0.000  0.000  0.001
  5  0.001  0.000  0.000  0.001
  6  0.001  0.001  0.000  0.002
  7  0.001  0.001  0.000  0.002
  8  0.000  0.001  0.000  0.001
  9  0.000  0.081  0.027  0.108
 10  0.000  0.002  0.016  0.017
 11  0.000  0.046  0.036  0.081
 12  0.000  0.000  0.027  0.028
tot  0.004  0.137  0.106  0.247
 
band  32 # energy    7.22070862 # occ.  0.00000000
 
ion      s      p      d    tot
  1  0.001  0.001  0.000  0.002
  2  0.000  0.000  0.000  0.000
  3  0.000  0.000  0.000  0.000
  4  0.000  0.000  0.000  0.000
  5  0.000  0.000  0.000  0.000
  6  0.000  0.000  0.000  0.000
  7  0.000  0.000  0.000  0.000
  8  0.000  0.000  0.000  0.000
  9  0.001  0.371  0.000  0.373
 10  0.001  0.055  0.002  0.058
 11  0.001  0.008  0.002  0.011
 12  0.000  0.187  0.003  0.191
tot  0.004  0.623  0.008  0.635
 

 k-point    2 :    0.16666667 0.00000000 0.00000000     weight = 0.00925926

band   1 # energy  -18.26503087 # occ.  2.00000000
 
ion      s      p      d    tot
  1  0.060  0.019  0.000  0.079
  2  0.555  0.000  0.000  0.556
  3  0.003  0.000  0.000  0.003
  4  0.003  0.000  0.000  0.004
  5  0.003  0.000  0.000  0.004
  6  0.053  0.009  0.000  0.062
  7  0.053  0.009  0.000  0.062
  8  0.053  0.009  0.000  0.061
  9  0.000  0.000  0.000  0.000
 10  0.000  0.000  0.000  0.000
 11  0.000  0.000  0.000  0.000
 12  0.000  0.000  0.000  0.000
tot  0.784  0.047  0.000  0.831
 
band   2 # energy  -15.05448362 # occ.  2.00000000
 
ion      s      p      d    tot
  1  0.000  0.000  0.000  0.000
  2  0.000  0.000  0.000  0.000
  3  0.000  0.000  0.000  0.000
  4  0.000  0.000  0.000  0.000
  5  0.000  0.000  0.000  0.000
  6  0.000  0.000  0.000  0.000
  7  0.000  0.000  0.000  0.000
  8  0.000  0.000  0.000  0.000
  9  0.000  0.000  0.964  0.964
 10  0.004  0.000  0.000  0.004
 11  0.003  0.000  0.000  0.004
 12  0.000  0.000  0.000  0.000
tot  0.007  0.000  0.965  0.972
 
band   3 # energy  -15.02711249 # occ.  2.00000000
 
ion      s      p      d    tot
  1  0.000  0.000  0.000  0.000
  2  0.000  0.000  0.000  0.000
  3  0.000  0.000  0.000  0.000
  4  0.000  0.000  0.000  0.000
  5  0.000  0.000  0.000  0.000
  6  0.000  0.000  0.000  0.000
  7  0.000  0.000  0.000  0.000
  8  0.000  0.000  0.000  0.000
  9  0.000  0.000  0.966  0.966
 10  0.001  0.000  0.000  0.001
 11  0.001  0.000  0.000  0.001
 12  0.003  0.000  0.000  0.004
tot  0.006  0.000  0.966  0.972
 
band   4 # energy  -14.99041806 # occ.  2.00000000
 
ion      s      p      d    tot
  1  0.000  0.000  0.000  0.000
  2  0.000  0.000  0.000  0.000
  3  0.000  0.000  0.000  0.000
  4  0.000  0.000  0.000  0.000
  5  0.000  0.000  0.000  0.000
  6  0.000  0.000  0.000  0.000
  7  0.000  0.000  0.000  0.000
  8  0.000  0.000  0.000  0.000
  9  0.000  0.000  0.978  0.978
 10  0.000  0.000  0.000  0.000
 11  0.000  0.000  0.000  0.000
 12  0.000  0.000  0.000  0.000
tot  0.000  0.000  0.978  0.978
 
band   5 # energy  -14.97253283 # occ.  2.00000000
 
ion      s      p      d    tot
  1  0.000  0.000  0.000  0.000
  2  0.000  0.000  0.000  0.000
  3  0.000  0.000  0.000  0.000
  4  0.000  0.000  0.000  0.000
  5  0.000  0.000  0.000  0.000
  6  0.000  0.000  0.000  0.000
  7  0.000  0.000  0.000  0.000
  8  0.000  0.000  0.000  0.000
  9  0.000  0.000  0.978  0.978
 10  0.000  0.000  0.000  0.000
 11  0.000  0.000  0.000  0.000
 12  0.000  0.000  0.000  0.000
tot  0.000  0.000  0.978  0.978
 
band   6 # energy  -14.96822949 # occ.  2.00000000
 
ion      s      p      d    tot
  1  0.000  0.000  0.000  0.000
  2  0.000  0.000  0.000  0.000
  3  0.000  0.000  0.000  0.000
  4  0.000  0.000  0.000  0.000
  5  0.000  0.000  0.000  0.000
  6  0.000  0.000  0.000  0.000
  7  0.000  0.000  0.000  0.000
  8  0.000  0.000  0.000  0.000
  9  0.000  0.000  0.978  0.978
 10  0.000  0.000  0.000  0.000
 11  0.000  0.000  0.000  0.000
 12  0.000  0.000  0.000  0.000
tot  0.000  0.000  0.978  0.978
 
band   7 # energy  -11.32745461 # occ.  2.00000000
 
ion      s      p      d    tot
  1  0.318  0.000  0.000  0.319
  2  0.029  0.127  0.000  0.155
  3  0.050  0.005  0.000  0.055
  4  0.050  0.005  0.000  0.055
  5  0.050  0.005  0.000  0.055
  6  0.021  0.003  0.000  0.024
  7  0.021  0.003  0.000  0.024
  8  0.021  0.003  0.000  0.024
  9  0.002  0.000  0.000  0.003
 10  0.020  0.000  0.000  0.020
 11  0.017  0.000  0.000  0.017
 12  0.001  0.000  0.000  0.001
tot  0.601  0.151  0.000  0.752
 
band   8 # energy  -10.78822278 # occ.  2.00000000
 
ion      s      p      d    tot
  1  0.018  0.001  0.000  0.019
  2  0.006  0.006  0.000  0.012
  3  0.004  0.000  0.000  0.004
  4  0.004  0.000  0.000  0.004
  5  0.004  0.000  0.000  0.004
  6  0.001  0.000  0.000  0.002
  7  0.001  0.000  0.000  0.002
  8  0.001  0.000  0.000  0.001
  9  0.056  0.000  0.001  0.057
 10  0.270  0.000  0.000  0.271
 11  0.227  0.000  0.000  0.227
 12  0.104  0.000  0.000  0.104
tot  0.696  0.009  0.001  0.706
 
band   9 # energy  -10.12783855 # occ.  2.00000000
 
ion      s      p      d    tot
  1  0.000  0.000  0.000  0.000
  2  0.000  0.002  0.000  0.002
  3  0.000  0.000  0.000  0.000
  4  0.000  0.000  0.000  0.000
  5  0.000  0.000  0.000  0.000
  6  0.000  0.000  0.000  0.000
  7  0.000  0.000  0.000  0.000
  8  0.002  0.000  0.000  0.002
  9  0.000  0.000  0.015  0.016
 10  0.366  0.000  0.000  0.366
 11  0.377  0.000  0.000  0.377
 12  0.003  0.000  0.000  0.003
tot  0.749  0.002  0.016  0.766
 
band  10 # energy   -9.88433192 # occ.  2.00000000
 
ion      s      p      d    tot
  1  0.002  0.000  0.000  0.003
  2  0.001  0.001  0.000  0.001
  3  0.001  0.000  0.000  0.001
  4  0.000  0.000  0.000  0.000
  5  0.000  0.000  0.000  0.000
  6  0.000  0.000  0.000  0.000
  7  0.000  0.000  0.000  0.000
  8  0.000  0.000  0.000  0.000
  9  0.002  0.002  0.012  0.016
 10  0.051  0.000  0.000  0.051
 11  0.085  0.000  0.000  0.085
 12  0.605  0.000  0.000  0.605
tot  0.747  0.003  0.012  0.762
 
band  11 # energy   -7.77887926 # occ.  2.00000000
 
ion      s      p      d    tot
  1  0.000  0.042  0.000  0.042
  2  0.000  0.402  0.000  0.402
  3  0.000  0.000  0.000  0.000
  4  0.012  0.001  0.000  0.013
  5  0.013  0.001  0.000  0.014
  6  0.129  0.011  0.000  0.140
  7  0.128  0.011  0.000  0.139
  8  0.000  0.003  0.000  0.003
  9  0.000  0.000  0.000  0.000
 10  0.000  0.003  0.000  0.003
 11  0.000  0.000  0.000  0.000
 12  0.000  0.000  0.000  0.000
tot  0.282  0.474  0.000  0.757
 
band  12 # energy   -7.61369360 # occ.  2.00000000
 
ion      s      p      d    tot
  1  0.000  0.045  0.000  0.045
  2  0.000  0.398  0.000  0.398
  3  0.017  0.001  0.000  0.019
  4  0.005  0.001  0.000  0.006
  5  0.005  0.001  0.000  0.006
  6  0.040  0.006  0.000  0.046
  7  0.041  0.006  0.000  0.046
  8  0.166  0.013  0.000  0.179
  9  0.000  0.000  0.000  0.000
 10  0.002  0.000  0.000  0.003
 11  0.002  0.002  0.000  0.005
 12  0.000  0.000  0.000  0.001
tot  0.279  0.473  0.000  0.752
 
band  13 # energy   -5.80911649 # occ.  2.00000000
 
ion      s      p      d    tot
  1  0.014  0.195  0.000  0.209
  2  0.009  0.273  0.000  0.281
  3  0.035  0.003  0.000  0.038
  4  0.031  0.003  0.000  0.034
  5  0.031  0.003  0.000  0.034
  6  0.013  0.003  0.000  0.015
  7  0.013  0.003  0.000  0.015
  8  0.011  0.002  0.000  0.014
  9  0.072  0.000  0.000  0.072
 10  0.000  0.000  0.000  0.001
 11  0.001  0.000  0.000  0.001
 12  0.002  0.002  0.000  0.004
tot  0.232  0.487  0.001  0.720
 
band  14 # energy   -5.49649619 # occ.  2.00000000
 
ion      s      p      d    tot
  1  0.002  0.024  0.000  0.026
  2  0.000  0.036  0.000  0.036
  3  0.004  0.000  0.000  0.005
  4  0.004  0.000  0.000  0.004
  5  0.003  0.000  0.000  0.004
  6  0.002  0.000  0.000  0.002
  7  0.002  0.000  0.000  0.002
  8  0.001  0.000  0.000  0.002
  9  0.550  0.001  0.000  0.552
 10  0.039  0.000  0.001  0.041
 11  0.042  0.001  0.001  0.043
 12  0.029  0.013  0.001  0.043
tot  0.677  0.078  0.004  0.759
 
band  15 # energy   -3.52756143 # occ.  2.00000000
 
ion      s      p      d    tot
  1  0.000  0.271  0.000  0.271
  2  0.000  0.042  0.000  0.042
  3  0.000  0.002  0.000  0.002
  4  0.148  0.007  0.000  0.155
  5  0.150  0.007  0.000  0.157
  6  0.027  0.001  0.000  0.028
  7  0.027  0.001  0.000  0.028
  8  0.000  0.000  0.000  0.000
  9  0.000  0.001  0.000  0.001
 10  0.000  0.004  0.000  0.004
 11  0.000  0.001  0.000  0.001
 12  0.000  0.001  0.000  0.001
tot  0.352  0.340  0.000  0.692
 
band  16 # energy   -3.51053271 # occ.  2.00000000
 
ion      s      p      d    tot
  1  0.000  0.268  0.000  0.268
  2  0.000  0.047  0.000  0.047
  3  0.196  0.008  0.000  0.204
  4  0.052  0.004  0.000  0.055
  5  0.049  0.004  0.000  0.053
  6  0.009  0.001  0.000  0.010
  7  0.010  0.001  0.000  0.010
  8  0.037  0.002  0.000  0.039
  9  0.000  0.001  0.000  0.001
 10  0.000  0.001  0.000  0.002
 11  0.000  0.004  0.000  0.004
 12  0.000  0.001  0.000  0.001
tot  0.354  0.341  0.000  0.695
 
band  17 # energy   -2.09509542 # occ.  2.00000000
 
ion      s      p      d    tot
  1  0.000  0.003  0.000  0.003
  2  0.000  0.005  0.000  0.005
  3  0.002  0.000  0.000  0.002
  4  0.000  0.000  0.000  0.000
  5  0.000  0.000  0.000  0.001
  6  0.000  0.000  0.000  0.000
  7  0.000  0.000  0.000  0.000
  8  0.001  0.000  0.000  0.001
  9  0.000  0.102  0.000  0.103
 10  0.000  0.292  0.000  0.292
 11  0.000  0.032  0.000  0.032
 12  0.000  0.023  0.000  0.023
tot  0.005  0.458  0.001  0.463
 
band  18 # energy   -2.08377214 # occ.  2.00000000
 
ion      s      p      d    tot
  1  0.000  0.003  0.000  0.003
  2  0.000  0.007  0.000  0.007
  3  0.000  0.000  0.000  0.000
  4  0.001  0.000  0.000  0.002
  5  0.001  0.000  0.000  0.001
  6  0.001  0.000  0.000  0.001
  7  0.001  0.000  0.000  0.001
  8  0.000  0.000  0.000  0.000
  9  0.000  0.103  0.000  0.103
 10  0.000  0.037  0.000  0.037
 11  0.000  0.290  0.000  0.290
 12  0.000  0.019  0.000  0.019
tot  0.004  0.459  0.001  0.464
 
band  19 # energy   -1.55616498 # occ.  2.00000000
 
ion      s      p      d    tot
  1  0.001  0.001  0.000  0.001
  2  0.002  0.001  0.000  0.002
  3  0.000  0.000  0.000  0.000
  4  0.000  0.000  0.000  0.000
  5  0.000  0.000  0.000  0.000
  6  0.000  0.000  0.000  0.000
  7  0.000  0.000  0.000  0.000
  8  0.000  0.000  0.000  0.000
  9  0.024  0.090  0.002  0.116
 10  0.001  0.060  0.000  0.061
 11  0.001  0.053  0.000  0.054
 12  0.008  0.228  0.001  0.236
tot  0.036  0.432  0.003  0.472
 
band  20 # energy    0.01968112 # occ.  2.00000000
 
ion      s      p      d    tot
  1  0.000  0.001  0.000  0.001
  2  0.000  0.023  0.000  0.023
  3  0.000  0.000  0.000  0.000
  4  0.001  0.000  0.000  0.001
  5  0.001  0.000  0.000  0.001
  6  0.000  0.002  0.000  0.003
  7  0.000  0.002  0.000  0.003
  8  0.000  0.000  0.000  0.000
  9  0.000  0.006  0.000  0.006
 10  0.000  0.445  0.000  0.445
 11  0.000  0.049  0.000  0.049
 12  0.000  0.015  0.000  0.015
tot  0.003  0.542  0.000  0.546
 
band  21 # energy    0.02311543 # occ.  2.00000000
 
ion      s      p      d    tot
  1  0.000  0.002  0.000  0.002
  2  0.000  0.012  0.000  0.012
  3  0.001  0.000  0.000  0.001
  4  0.000  0.000  0.000  0.000
  5  0.000  0.000  0.000  0.000
  6  0.000  0.001  0.000  0.001
  7  0.000  0.001  0.000  0.001
  8  0.000  0.002  0.000  0.002
  9  0.000  0.001  0.000  0.001
 10  0.000  0.226  0.000  0.226
 11  0.000  0.257  0.000  0.257
 12  0.000  0.020  0.000  0.020
tot  0.003  0.520  0.001  0.523
 
band  22 # energy    0.10806960 # occ.  2.00000000
 
ion      s      p      d    tot
  1  0.000  0.001  0.000  0.001
  2  0.001  0.008  0.000  0.010
  3  0.001  0.000  0.000  0.001
  4  0.000  0.000  0.000  0.000
  5  0.000  0.000  0.000  0.000
  6  0.000  0.000  0.000  0.000
  7  0.000  0.000  0.000  0.000
  8  0.000  0.002  0.000  0.002
  9  0.001  0.006  0.000  0.008
 10  0.000  0.131  0.000  0.131
 11  0.000  0.349  0.000  0.349
 12  0.000  0.035  0.000  0.035
tot  0.004  0.532  0.001  0.537
 
band  23 # energy    0.25151173 # occ.  2.00000000
 
ion      s      p      d    tot
  1  0.001  0.001  0.000  0.001
  2  0.003  0.003  0.000  0.005
  3  0.000  0.000  0.000  0.000
  4  0.000  0.000  0.000  0.000
  5  0.000  0.000  0.000  0.000
  6  0.000  0.001  0.000  0.001
  7  0.000  0.001  0.000  0.001
  8  0.001  0.000  0.000  0.001
  9  0.008  0.015  0.001  0.024
 10  0.000  0.108  0.000  0.108
 11  0.000  0.280  0.000  0.280
 12  0.001  0.122  0.000  0.124
tot  0.013  0.530  0.002  0.545
 
band  24 # energy    0.44164749 # occ.  2.00000000
 
ion      s      p      d    tot
  1  0.000  0.005  0.000  0.005
  2  0.000  0.000  0.000  0.000
  3  0.000  0.000  0.000  0.000
  4  0.001  0.000  0.000  0.001
  5  0.001  0.000  0.000  0.001
  6  0.000  0.000  0.000  0.000
  7  0.000  0.000  0.000  0.000
  8  0.000  0.000  0.000  0.000
  9  0.000  0.003  0.001  0.004
 10  0.000  0.004  0.000  0.005
 11  0.000  0.048  0.000  0.048
 12  0.000  0.464  0.000  0.464
tot  0.002  0.525  0.002  0.529
 
band  25 # energy    0.46181711 # occ.  2.00000000
 
ion      s      p      d    tot
  1  0.000  0.003  0.000  0.003
  2  0.000  0.001  0.000  0.001
  3  0.001  0.000  0.000  0.001
  4  0.000  0.000  0.000  0.000
  5  0.000  0.000  0.000  0.000
  6  0.000  0.000  0.000  0.000
  7  0.000  0.000  0.000  0.000
  8  0.000  0.000  0.000  0.000
  9  0.001  0.004  0.001  0.005
 10  0.000  0.060  0.000  0.061
 11  0.000  0.007  0.000  0.007
 12  0.000  0.451  0.000  0.451
tot  0.002  0.526  0.002  0.530
 
band  26 # energy    5.15101439 # occ.  0.00000000
 
ion      s      p      d    tot
  1  0.022  0.016  0.000  0.038
  2  0.041  0.010  0.000  0.051
  3  0.000  0.004  0.000  0.004
  4  0.000  0.003  0.000  0.003
  5  0.000  0.003  0.000  0.003
  6  0.003  0.005  0.000  0.008
  7  0.003  0.005  0.000  0.008
  8  0.003  0.005  0.000  0.008
  9  0.001  0.011  0.000  0.013
 10  0.021  0.006  0.005  0.032
 11  0.020  0.007  0.004  0.031
 12  0.021  0.008  0.003  0.031
tot  0.135  0.084  0.011  0.230
 
band  27 # energy    5.95216796 # occ.  0.00000000
 
ion      s      p      d    tot
  1  0.000  0.005  0.000  0.005
  2  0.000  0.012  0.000  0.012
  3  0.000  0.001  0.000  0.001
  4  0.000  0.001  0.000  0.001
  5  0.000  0.001  0.000  0.001
  6  0.003  0.002  0.000  0.006
  7  0.003  0.002  0.000  0.006
  8  0.000  0.002  0.000  0.002
  9  0.000  0.088  0.020  0.108
 10  0.000  0.000  0.025  0.025
 11  0.000  0.053  0.029  0.082
 12  0.000  0.003  0.010  0.013
tot  0.007  0.169  0.085  0.260
 
band  28 # energy    6.05812237 # occ.  0.00000000
 