 vasp.5.4.1 24Jun15 (build Nov 25 2015 16:39:35) complex                        
  
 executed on         CrayXC-Intel date 2016.06.22  00:47:58
 running on  192 total cores
 distrk:  each k-point on  192 cores,    1 groups
 distr:  one band on NCORES_PER_BAND=  24 cores,    8 groups


--------------------------------------------------------------------------------------------------------


 INCAR:
 POTCAR:    PAW_PBE C 08Apr2002                   
 POTCAR:    PAW_PBE N 08Apr2002                   
 POTCAR:    PAW_PBE H 15Jun2001                   
 POTCAR:    PAW_PBE Pb_d 06Sep2000                
 POTCAR:    PAW_PBE I 08Apr2002                   
 POTCAR:    PAW_PBE C 08Apr2002                   
   VRHFIN =C: s2p2                                                              
   LEXCH  = PE                                                                  
   EATOM  =   147.1560 eV,   10.8157 Ry                                         
                                                                                
   TITEL  = PAW_PBE C 08Apr2002                                                 
   LULTRA =        F    use ultrasoft PP ?                                      
   IUNSCR =        1    unscreen: 0-lin 1-nonlin 2-no                           
   RPACOR =    1.200    partial core radius                                     
   POMASS =   12.011; ZVAL   =    4.000    mass and valenz                      
   RCORE  =    1.500    outmost cutoff radius                                   
   RWIGS  =    1.630; RWIGS  =    0.863    wigner-seitz radius (au A)           
   ENMAX  =  400.000; ENMIN  =  300.000 eV                                      
   ICORE  =        2    local potential                                         
   LCOR   =        T    correct aug charges                                     
   LPAW   =        T    paw PP                                                  
   EAUG   =  644.873                                                            
   DEXC   =    0.000                                                            
   RMAX   =    1.529    core radius for proj-oper                               
   RAUG   =    1.300    factor for augmentation sphere                          
   RDEP   =    1.501    radius for radial grids                                 
   RDEPT  =    1.300    core radius for aug-charge                              
                                                                                
   Atomic configuration                                                         
    4 entries                                                                   
     n  l   j            E        occ.                                          
     1  0  0.50      -273.3789   2.0000                                         
     2  0  0.50       -13.7508   2.0000                                         
     2  1  0.50        -5.2854   2.0000                                         
     3  2  1.50        -5.4423   0.0000                                         
   Description                                                                  
     l       E           TYP  RCUT    TYP  RCUT                                 
     0    -13.7508458     23  1.200                                             
     0     -8.2022199     23  1.200                                             
     1     -5.2854383     23  1.500                                             
     1     34.0145650     23  1.500                                             
     2     -5.4423304      7  1.500                                             
  local pseudopotential read in
  partial core-charges read in
  partial kinetic energy density read in
  atomic valenz-charges read in
  non local Contribution for L=           0  read in
    real space projection operators read in
  non local Contribution for L=           0  read in
    real space projection operators read in
  non local Contribution for L=           1  read in
    real space projection operators read in
  non local Contribution for L=           1  read in
    real space projection operators read in
    PAW grid and wavefunctions read in
 
   number of l-projection  operators is LMAX  =           4
   number of lm-projection operators is LMMAX =           8
 
 POTCAR:    PAW_PBE N 08Apr2002                   
   VRHFIN =N: s2p3                                                              
   LEXCH  = PE                                                                  
   EATOM  =   264.5486 eV,   19.4438 Ry                                         
                                                                                
   TITEL  = PAW_PBE N 08Apr2002                                                 
   LULTRA =        F    use ultrasoft PP ?                                      
   IUNSCR =        1    unscreen: 0-lin 1-nonlin 2-no                           
   RPACOR =    1.200    partial core radius                                     
   POMASS =   14.001; ZVAL   =    5.000    mass and valenz                      
   RCORE  =    1.500    outmost cutoff radius                                   
   RWIGS  =    1.400; RWIGS  =    0.741    wigner-seitz radius (au A)           
   ENMAX  =  400.000; ENMIN  =  300.000 eV                                      
   ICORE  =        2    local potential                                         
   LCOR   =        T    correct aug charges                                     
   LPAW   =        T    paw PP                                                  
   EAUG   =  627.112                                                            
   DEXC   =    0.000                                                            
   RMAX   =    1.529    core radius for proj-oper                               
   RAUG   =    1.300    factor for augmentation sphere                          
   RDEP   =    1.514    radius for radial grids                                 
   RDEPT  =    1.338    core radius for aug-charge                              
                                                                                
   Atomic configuration                                                         
    4 entries                                                                   
     n  l   j            E        occ.                                          
     1  0  0.50      -384.7179   2.0000                                         
     2  0  0.50       -18.5828   2.0000                                         
     2  1  0.50        -7.0898   3.0000                                         
     3  2  1.50        -6.8029   0.0000                                         
   Description                                                                  
     l       E           TYP  RCUT    TYP  RCUT                                 
     0    -18.5828119     23  1.200                                             
     0    -13.5018863     23  1.200                                             
     1     -7.0897853     23  1.500                                             
     1      9.5240782     23  1.500                                             
     2     -6.8029130      7  1.500                                             
  local pseudopotential read in
  partial core-charges read in
  partial kinetic energy density read in
  atomic valenz-charges read in
  non local Contribution for L=           0  read in
    real space projection operators read in
  non local Contribution for L=           0  read in
    real space projection operators read in
  non local Contribution for L=           1  read in
    real space projection operators read in
  non local Contribution for L=           1  read in
    real space projection operators read in
    PAW grid and wavefunctions read in
 
   number of l-projection  operators is LMAX  =           4
   number of lm-projection operators is LMMAX =           8
 
 POTCAR:    PAW_PBE H 15Jun2001                   
   VRHFIN =H: ultrasoft test                                                    
   LEXCH  = PE                                                                  
   EATOM  =    12.4884 eV,    0.9179 Ry                                         
                                                                                
   TITEL  = PAW_PBE H 15Jun2001                                                 
   LULTRA =        F    use ultrasoft PP ?                                      
   IUNSCR =        0    unscreen: 0-lin 1-nonlin 2-no                           
   RPACOR =    0.000    partial core radius                                     
   POMASS =    1.000; ZVAL   =    1.000    mass and valenz                      
   RCORE  =    1.100    outmost cutoff radius                                   
   RWIGS  =    0.700; RWIGS  =    0.370    wigner-seitz radius (au A)           
   ENMAX  =  250.000; ENMIN  =  200.000 eV                                      
   RCLOC  =    0.701    cutoff for local pot                                    
   LCOR   =        T    correct aug charges                                     
   LPAW   =        T    paw PP                                                  
   EAUG   =  400.000                                                            
   RMAX   =    1.123    core radius for proj-oper                               
   RAUG   =    1.200    factor for augmentation sphere                          
   RDEP   =    1.112    radius for radial grids                                 
   RDEPT  =    0.926    core radius for aug-charge                              
                                                                                
   Atomic configuration                                                         
    2 entries                                                                   
     n  l   j            E        occ.                                          
     1  0  0.50        -6.4927   1.0000                                         
     2  1  0.50        -3.4015   0.0000                                         
   Description                                                                  
     l       E           TYP  RCUT    TYP  RCUT                                 
     0     -6.4927494     23  1.100                                             
     0      6.8029130     23  1.100                                             
     1     -4.0817478     23  1.100                                             
  local pseudopotential read in
  atomic valenz-charges read in
  non local Contribution for L=           0  read in
    real space projection operators read in
  non local Contribution for L=           0  read in
    real space projection operators read in
  non local Contribution for L=           1  read in
    real space projection operators read in
    PAW grid and wavefunctions read in
 
   number of l-projection  operators is LMAX  =           3
   number of lm-projection operators is LMMAX =           5
 
 POTCAR:    PAW_PBE Pb_d 06Sep2000                
   VRHFIN =Pb:                                                                  
   LEXCH  = PE                                                                  
   EATOM  =  1661.6185 eV,  122.1255 Ry                                         
                                                                                
   TITEL  = PAW_PBE Pb_d 06Sep2000                                              
   LULTRA =        F    use ultrasoft PP ?                                      
   IUNSCR =        1    unscreen: 0-lin 1-nonlin 2-no                           
   RPACOR =    2.200    partial core radius                                     
   POMASS =  207.200; ZVAL   =   14.000    mass and valenz                      
   RCORE  =    2.500    outmost cutoff radius                                   
   RWIGS  =    3.260; RWIGS  =    1.725    wigner-seitz radius (au A)           
   ENMAX  =  237.835; ENMIN  =  178.376 eV                                      
   ICORE  =        3    local potential                                         
   LCOR   =        T    correct aug charges                                     
   LPAW   =        T    paw PP                                                  
   EAUG   =  391.914                                                            
   DEXC   =    0.000                                                            
   RMAX   =    2.565    core radius for proj-oper                               
   RAUG   =    1.300    factor for augmentation sphere                          
   RDEP   =    2.643    radius for radial grids                                 
   RDEPT  =    2.092    core radius for aug-charge                              
                                                                                
   Atomic configuration                                                         
   16 entries                                                                   
     n  l   j            E        occ.                                          
     1  0  0.50    -88091.8466   2.0000                                         
     2  0  0.50    -15753.4197   2.0000                                         
     2  1  1.50    -13508.1797   6.0000                                         
     3  0  0.50     -3781.7194   2.0000                                         
     3  1  1.50     -3138.2529   6.0000                                         
     3  2  2.50     -2483.2977  10.0000                                         
     4  0  0.50      -856.2895   2.0000                                         
     4  1  1.50      -645.4942   6.0000                                         
     4  2  2.50      -401.8768  10.0000                                         
     4  3  3.50      -132.9059  14.0000                                         
     5  0  0.50      -144.0950   2.0000                                         
     5  1  1.50       -85.7879   6.0000                                         
     5  2  2.50       -21.1769  10.0000                                         
     6  0  0.50       -12.0372   2.0000                                         
     6  1  1.50        -3.4971   2.0000                                         
     5  3  2.50        -2.7212   0.0000                                         
   Description                                                                  
     l       E           TYP  RCUT    TYP  RCUT                                 
     2    -21.1768523     23  2.500                                             
     2      1.3605826     23  2.500                                             
     0    -12.0371562     23  2.500                                             
     0     13.6058260     23  2.500                                             
     1     -3.4971339     23  2.500                                             
     1     13.6058260     23  2.500                                             
     3     -1.3605826      7  2.500                                             
  local pseudopotential read in
  partial core-charges read in
  partial kinetic energy density read in
  atomic valenz-charges read in
  non local Contribution for L=           2  read in
    real space projection operators read in
  non local Contribution for L=           2  read in
    real space projection operators read in
  non local Contribution for L=           0  read in
    real space projection operators read in
  non local Contribution for L=           0  read in
    real space projection operators read in
  non local Contribution for L=           1  read in
    real space projection operators read in
  non local Contribution for L=           1  read in
    real space projection operators read in
    PAW grid and wavefunctions read in
 
   number of l-projection  operators is LMAX  =           6
   number of lm-projection operators is LMMAX =          18
 
 POTCAR:    PAW_PBE I 08Apr2002                   
   VRHFIN =I : s2p5                                                             
   LEXCH  = PE                                                                  
   EATOM  =   315.8678 eV,   23.2156 Ry                                         
                                                                                
   TITEL  = PAW_PBE I 08Apr2002                                                 
   LULTRA =        F    use ultrasoft PP ?                                      
   IUNSCR =        1    unscreen: 0-lin 1-nonlin 2-no                           
   RPACOR =    2.200    partial core radius                                     
   POMASS =  126.904; ZVAL   =    7.000    mass and valenz                      
   RCORE  =    2.300    outmost cutoff radius                                   
   RWIGS  =    2.810; RWIGS  =    1.487    wigner-seitz radius (au A)           
   ENMAX  =  175.647; ENMIN  =  131.735 eV                                      
   ICORE  =        3    local potential                                         
   LCOR   =        T    correct aug charges                                     
   LPAW   =        T    paw PP                                                  
   EAUG   =  370.139                                                            
   DEXC   =    0.000                                                            
   RMAX   =    2.359    core radius for proj-oper                               
   RAUG   =    1.300    factor for augmentation sphere                          
   RDEP   =    2.392    radius for radial grids                                 
   RDEPT  =    2.170    core radius for aug-charge                              
                                                                                
   Atomic configuration                                                         
   13 entries                                                                   
     n  l   j            E        occ.                                          
     1  0  0.50    -32976.3739   2.0000                                         
     2  0  0.50     -5094.5933   2.0000                                         
     2  1  1.50     -4572.0131   6.0000                                         
     3  0  0.50     -1028.2813   2.0000                                         
     3  1  1.50      -859.0250   6.0000                                         
     3  2  2.50      -605.7620  10.0000                                         
     4  0  0.50      -180.5540   2.0000                                         
     4  1  1.50      -127.5306   6.0000                                         
     4  2  2.50       -50.2720  10.0000                                         
     5  0  0.50       -17.4058   2.0000                                         
     5  1  0.50        -7.0851   5.0000                                         
     5  2  1.50        -7.0750   0.0000                                         
     4  3  2.50        -7.0750   0.0000                                         
   Description                                                                  
     l       E           TYP  RCUT    TYP  RCUT                                 
     0    -17.4058016     23  2.300                                             
     0    -18.7663842     23  2.300                                             
     1     -7.0850686     23  2.300                                             
     1     -4.2150896     23  2.300                                             
     2     -7.0750295     23  2.300                                             
     3     -1.3605826     23  2.300                                             
  local pseudopotential read in
  partial core-charges read in
  partial kinetic energy density read in
  atomic valenz-charges read in
  non local Contribution for L=           0  read in
    real space projection operators read in
  non local Contribution for L=           0  read in
    real space projection operators read in
  non local Contribution for L=           1  read in
    real space projection operators read in
  non local Contribution for L=           1  read in
    real space projection operators read in
  non local Contribution for L=           2  read in
    real space projection operators read in
    PAW grid and wavefunctions read in
 
   number of l-projection  operators is LMAX  =           5
   number of lm-projection operators is LMMAX =          13
 

 ----------------------------------------------------------------------------- 
|                                                                             |
|  ADVICE TO THIS USER RUNNING 'VASP/VAMP'   (HEAR YOUR MASTER'S VOICE ...):  |
|                                                                             |
|      You have a (more or less) 'large supercell' and for larger cells       |
|      it might be more efficient to use real space projection opertators     |
|      So try LREAL= Auto  in the INCAR   file.                               |
|      Mind: At the moment your POTCAR file does not contain real space       |
|       projectors, and has to be modified,  BUT if you                       |
|      want to do an extremely  accurate calculation you might also keep the  |
|      reciprocal projection scheme          (i.e. LREAL=.FALSE.)             |
|                                                                             |
 ----------------------------------------------------------------------------- 


 ----------------------------------------------------------------------------- 
|                                                                             |
|  ADVICE TO THIS USER RUNNING 'VASP/VAMP'   (HEAR YOUR MASTER'S VOICE ...):  |
|                                                                             |
|      You enforced a specific xc-type in the INCAR file,                     |
|      a different type was found on the POTCAR file                          |
|          I HOPE YOU KNOW, WHAT YOU ARE  DOING                               |
|                                                                             |
 ----------------------------------------------------------------------------- 

  PAW_PBE C 08Apr2002                   :
 energy of atom  1       EATOM= -147.1560
 kinetic energy error for atom=    0.0032 (will be added to EATOM!!)
  PAW_PBE N 08Apr2002                   :
 energy of atom  2       EATOM= -264.5486
 kinetic energy error for atom=    0.0061 (will be added to EATOM!!)
  PAW_PBE H 15Jun2001                   :
 energy of atom  3       EATOM=  -12.4884
 kinetic energy error for atom=    0.0002 (will be added to EATOM!!)
  PAW_PBE Pb_d 06Sep2000                :
 energy of atom  4       EATOM=-1661.6185
 kinetic energy error for atom=    0.0012 (will be added to EATOM!!)
  PAW_PBE I 08Apr2002                   :
 energy of atom  5       EATOM= -315.8678
 kinetic energy error for atom=    0.0003 (will be added to EATOM!!)
 
 
 POSCAR: C N H Pb I                              
  positions in direct lattice
  No initial velocities read in
 exchange correlation table for  LEXCH =       14
   RHO(1)=    0.500       N(1)  =     2000
   RHO(2)=  100.500       N(2)  =     4000
 


--------------------------------------------------------------------------------------------------------


 ion  position               nearest neighbor table
   1  0.206  0.250  0.215-  33 1.10  25 1.10  17 1.11   9 1.50
   2  0.688  0.250  0.243-  34 1.10  26 1.10  18 1.11  10 1.49
   3  0.188  0.750  0.243-  35 1.10  27 1.10  19 1.11  11 1.49
   4  0.706  0.750  0.215-  36 1.10  28 1.10  20 1.11  12 1.50
   5  0.206  0.250  0.715-  37 1.10  29 1.10  21 1.11  13 1.50
   6  0.688  0.250  0.743-  38 1.10  30 1.10  22 1.11  14 1.49
   7  0.188  0.750  0.743-  39 1.10  31 1.10  23 1.11  15 1.49
   8  0.706  0.750  0.715-  40 1.10  32 1.10  24 1.11  16 1.50
   9  0.307  0.250  0.275-  57 1.05  41 1.05  49 1.05   1 1.50
  10  0.802  0.250  0.273-  42 1.05  50 1.05  58 1.06   2 1.49
  11  0.302  0.750  0.273-  43 1.05  51 1.05  59 1.06   3 1.49
  12  0.807  0.750  0.275-  60 1.05  44 1.05  52 1.05   4 1.50
  13  0.307  0.250  0.775-  61 1.05  45 1.05  53 1.05   5 1.50
  14  0.802  0.250  0.773-  46 1.05  54 1.05  62 1.06   6 1.49
  15  0.302  0.750  0.773-  47 1.05  55 1.05  63 1.06   7 1.49
  16  0.807  0.750  0.775-  64 1.05  48 1.05  56 1.05   8 1.50
  17  0.226  0.250  0.130-   1 1.11
  18  0.684  0.250  0.156-   2 1.11
  19  0.184  0.750  0.156-   3 1.11
  20  0.726  0.750  0.130-   4 1.11
  21  0.226  0.250  0.630-   5 1.11
  22  0.684  0.250  0.656-   6 1.11
  23  0.184  0.750  0.656-   7 1.11
  24  0.726  0.750  0.630-   8 1.11
  25  0.160  0.322  0.236-   1 1.10
  26  0.649  0.322  0.275-   2 1.10
  27  0.149  0.822  0.275-   3 1.10
  28  0.660  0.822  0.236-   4 1.10
  29  0.160  0.322  0.736-   5 1.10
  30  0.649  0.322  0.775-   6 1.10
  31  0.149  0.822  0.775-   7 1.10
  32  0.660  0.822  0.736-   8 1.10
  33  0.160  0.177  0.237-   1 1.10
  34  0.649  0.177  0.275-   2 1.10
  35  0.149  0.677  0.275-   3 1.10
  36  0.660  0.677  0.237-   4 1.10
  37  0.160  0.177  0.737-   5 1.10
  38  0.649  0.177  0.775-   6 1.10
  39  0.149  0.677  0.775-   7 1.10
  40  0.660  0.677  0.737-   8 1.10
  41  0.353  0.318  0.257-   9 1.05
  42  0.843  0.318  0.244-  10 1.05
  43  0.343  0.818  0.244-  11 1.05
  44  0.853  0.818  0.257-  12 1.05
  45  0.353  0.318  0.757-  13 1.05
  46  0.843  0.318  0.744-  14 1.05
  47  0.343  0.818  0.744-  15 1.05
  48  0.853  0.818  0.757-  16 1.05
  49  0.353  0.182  0.257-   9 1.05
  50  0.843  0.182  0.244-  10 1.05
  51  0.343  0.682  0.244-  11 1.05
  52  0.853  0.682  0.257-  12 1.05
  53  0.353  0.182  0.757-  13 1.05
  54  0.843  0.182  0.744-  14 1.05
  55  0.343  0.682  0.744-  15 1.05
  56  0.853  0.682  0.757-  16 1.05
  57  0.293  0.250  0.356-   9 1.05
  58  0.813  0.250  0.355-  10 1.06
  59  0.313  0.750  0.355-  11 1.06
  60  0.793  0.750  0.356-  12 1.05
  61  0.293  0.250  0.856-  13 1.05
  62  0.813  0.250  0.855-  14 1.06
  63  0.313  0.750  0.855-  15 1.06
  64  0.793  0.750  0.856-  16 1.05
  65  0.472  0.501  0.489-  90 3.10  85 3.14  77 3.17  87 3.18  73 3.22  89 3.28
  66  0.972  0.499  0.489-  89 3.10  88 3.14  78 3.17  86 3.18  74 3.22  90 3.28
  67  0.472  0.999  0.489-  92 3.10  85 3.14  79 3.17  87 3.18  75 3.22  91 3.28
  68  0.972  0.001  0.489-  91 3.10  88 3.14  80 3.17  86 3.18  76 3.22  92 3.28
  69  0.472  0.501  0.989-  94 3.10  81 3.14  73 3.17  83 3.18  77 3.22  93 3.28
  70  0.972  0.499  0.989-  93 3.10  84 3.14  74 3.17  82 3.18  78 3.22  94 3.28
  71  0.472  0.999  0.989-  96 3.10  81 3.14  75 3.17  83 3.18  79 3.22  95 3.28
  72  0.972  0.001  0.989-  95 3.10  84 3.14  76 3.17  82 3.18  80 3.22  96 3.28
  73  0.455  0.501  0.238-  69 3.17  65 3.22
  74  0.955  0.499  0.238-  70 3.17  66 3.22
  75  0.455  0.999  0.238-  71 3.17  67 3.22
  76  0.955  0.001  0.238-  72 3.17  68 3.22
  77  0.455  0.501  0.738-  65 3.17  69 3.22
  78  0.955  0.499  0.738-  66 3.17  70 3.22
  79  0.455  0.999  0.738-  67 3.17  71 3.22
  80  0.955  0.001  0.738-  68 3.17  72 3.22
  81  0.477  0.250  0.007-  71 3.14  69 3.14
  82  0.922  0.250  0.017-  72 3.18  70 3.18
  83  0.422  0.750  0.017-  69 3.18  71 3.18
  84  0.977  0.750  0.007-  70 3.14  72 3.14
  85  0.477  0.250  0.507-  67 3.14  65 3.14
  86  0.922  0.250  0.517-  68 3.18  66 3.18
  87  0.422  0.750  0.517-  65 3.18  67 3.18
  88  0.977  0.750  0.507-  66 3.14  68 3.14
  89  0.216  0.467  0.461-  66 3.10  65 3.28
  90  0.716  0.533  0.461-  65 3.10  66 3.28
  91  0.216  0.033  0.461-  68 3.10  67 3.28
  92  0.716  0.967  0.461-  67 3.10  68 3.28
  93  0.216  0.467  0.961-  70 3.10  69 3.28
  94  0.716  0.533  0.961-  69 3.10  70 3.28
  95  0.216  0.033  0.961-  72 3.10  71 3.28
  96  0.716  0.967  0.961-  71 3.10  72 3.28
 
  LATTYP: Found a triclinic cell.
 ALAT       =    17.8238589327
 B/A-ratio  =     0.6989248630
 C/A-ratio  =     1.0156975818
 COS(alpha) =     0.0001355172
 COS(beta)  =     0.5146378593
 COS(gamma) =     0.6988877578
  
  Lattice vectors:
  
 A1 = (  -0.1406063366, -12.4576271275, -12.7466742118)
 A2 = (  -0.0011956322, -12.4575380825,   0.0007464135)
 A3 = ( -12.7162481321,  -0.0020049566, -12.8856194186)


Analysis of symmetry for initial positions (statically):
=====================================================================
 Subroutine PRICEL returns following result:
 
  LATTYP: Found a triclinic cell.
 ALAT       =     8.8502626515
 B/A-ratio  =     1.4075896561
 C/A-ratio  =     0.7202149489
 COS(alpha) =     0.0000518785
 COS(beta)  =     0.0156138721
 COS(gamma) =     0.7036188608
  
  Lattice vectors:
  
 A1 = (  -6.2878208978,   6.2278110854,  -0.0694726034)
 A2 = (   0.0011956322,  12.4575380825,  -0.0007464135)
 A3 = (  -0.0697053522,  -0.0000445225,  -6.3737103126)
 
   4 primitive cells build up your supercell.
 

 Routine SETGRP: Setting up the symmetry group for a 
 triclinic supercell.


 Subroutine GETGRP returns: Found  1 space group operations
 (whereof  1 operations were pure point group operations)
 out of a pool of  2 trial point group operations.


The static configuration has the point symmetry C_1 .


Analysis of symmetry for dynamics (positions and initial velocities):
=====================================================================
 Subroutine PRICEL returns following result:
 
  LATTYP: Found a triclinic cell.
 ALAT       =     8.8502626515
 B/A-ratio  =     1.4075896561
 C/A-ratio  =     0.7202149489
 COS(alpha) =     0.0000518785
 COS(beta)  =     0.0156138721
 COS(gamma) =     0.7036188608
  
  Lattice vectors:
  
 A1 = (  -6.2878208978,   6.2278110854,  -0.0694726034)
 A2 = (   0.0011956322,  12.4575380825,  -0.0007464135)
 A3 = (  -0.0697053522,  -0.0000445225,  -6.3737103126)
 
   4 primitive cells build up your supercell.
 

 Routine SETGRP: Setting up the symmetry group for a 
 triclinic supercell.


 Subroutine GETGRP returns: Found  1 space group operations
 (whereof  1 operations were pure point group operations)
 out of a pool of  2 trial point group operations.


The dynamic configuration has the point symmetry C_1 .


Analysis of structural, dynamic, and magnetic symmetry:
=====================================================================
 Subroutine PRICEL returns following result:
 
  LATTYP: Found a triclinic cell.
 ALAT       =     8.8502626515
 B/A-ratio  =     1.4075896561
 C/A-ratio  =     0.7202149489
 COS(alpha) =     0.0000518785
 COS(beta)  =     0.0156138721
 COS(gamma) =     0.7036188608
  
  Lattice vectors:
  
 A1 = (  -6.2878208978,   6.2278110854,  -0.0694726034)
 A2 = (   0.0011956322,  12.4575380825,  -0.0007464135)
 A3 = (  -0.0697053522,  -0.0000445225,  -6.3737103126)
 
   4 primitive cells build up your supercell.
 

 Routine SETGRP: Setting up the symmetry group for a 
 triclinic supercell.


 Subroutine GETGRP returns: Found  1 space group operations
 (whereof  1 operations were pure point group operations)
 out of a pool of  2 trial point group operations.


The (compounded) configuration has the point symmetry C_1 .


 Subroutine INISYM returns: Found  1 space group operations
 (whereof  1 operations are pure point group operations),
 and found     4 'primitive' translations

 
 
 KPOINTS: Automatic 3x3x3                         

Automatic generation of k-mesh.
Space group operators:
 irot       det(A)        alpha          n_x          n_y          n_z        tau_x        tau_y        tau_z
    1     1.000000     0.000000     1.000000     0.000000     0.000000     0.000000     0.000000     0.000000
 
 Subroutine IBZKPT returns following result:
 ===========================================
 
 Found     27 irreducible k-points:
 
 Following reciprocal coordinates:
            Coordinates               Weight
  0.000000  0.000000  0.000000      1.000000
  0.333333 -0.000000 -0.000000      1.000000
 -0.333333  0.000000  0.000000      1.000000
  0.000000  0.333333 -0.000000      1.000000
  0.333333  0.333333  0.000000      1.000000
 -0.333333  0.333333  0.000000      1.000000
 -0.000000 -0.333333  0.000000      1.000000
  0.333333 -0.333333 -0.000000      1.000000
 -0.333333 -0.333333 -0.000000      1.000000
  0.000000  0.000000  0.333333      1.000000
  0.333333  0.000000  0.333333      1.000000
 -0.333333  0.000000  0.333333      1.000000
  0.000000  0.333333  0.333333      1.000000
  0.333333  0.333333  0.333333      1.000000
 -0.333333  0.333333  0.333333      1.000000
  0.000000 -0.333333  0.333333      1.000000
  0.333333 -0.333333  0.333333      1.000000
 -0.333333 -0.333333  0.333333      1.000000
  0.000000  0.000000 -0.333333      1.000000
  0.333333 -0.000000 -0.333333      1.000000
 -0.333333 -0.000000 -0.333333      1.000000
 -0.000000  0.333333 -0.333333      1.000000
  0.333333  0.333333 -0.333333      1.000000
 -0.333333  0.333333 -0.333333      1.000000
 -0.000000 -0.333333 -0.333333      1.000000
  0.333333 -0.333333 -0.333333      1.000000
 -0.333333 -0.333333 -0.333333      1.000000
 
 Following cartesian coordinates:
            Coordinates               Weight
  0.000000  0.000000  0.000000      1.000000
  0.026507 -0.000003 -0.000290      1.000000
 -0.026507  0.000003  0.000290      1.000000
 -0.000004  0.026758 -0.000000      1.000000
  0.026503  0.026755 -0.000290      1.000000
 -0.026511  0.026760  0.000290      1.000000
  0.000004 -0.026758  0.000000      1.000000
  0.026511 -0.026760 -0.000290      1.000000
 -0.026503 -0.026755  0.000290      1.000000
 -0.000287  0.000002  0.026152      1.000000
  0.026220 -0.000001  0.025862      1.000000
 -0.026794  0.000004  0.026442      1.000000
 -0.000291  0.026759  0.026152      1.000000
  0.026215  0.026757  0.025862      1.000000
 -0.026798  0.026762  0.026442      1.000000
 -0.000283 -0.026756  0.026152      1.000000
  0.026224 -0.026759  0.025862      1.000000
 -0.026790 -0.026753  0.026442      1.000000
  0.000287 -0.000002 -0.026152      1.000000
  0.026794 -0.000004 -0.026442      1.000000
 -0.026220  0.000001 -0.025862      1.000000
  0.000283  0.026756 -0.026152      1.000000
  0.026790  0.026753 -0.026442      1.000000
 -0.026224  0.026759 -0.025862      1.000000
  0.000291 -0.026759 -0.026152      1.000000
  0.026798 -0.026762 -0.026442      1.000000
 -0.026215 -0.026757 -0.025862      1.000000
 


--------------------------------------------------------------------------------------------------------




 Dimension of arrays:
   k-points           NKPTS =     27   k-points in BZ     NKDIM =     27   number of bands    NBANDS=    600
   number of dos      NEDOS =    301   number of ions     NIONS =     96
   non local maximal  LDIM  =      6   non local SUM 2l+1 LMDIM =     18
   total plane-waves  NPLWV = ******
   max r-space proj   IRMAX =      1   max aug-charges    IRDMAX= 314103
   dimension x,y,z NGX =   112 NGY =  108 NGZ =  112
   dimension x,y,z NGXF=   224 NGYF=  216 NGZF=  224
   support grid    NGXF=   448 NGYF=  432 NGZF=  448
   ions per type =               8   8  48   8  24
 NGX,Y,Z   is equivalent  to a cutoff of  14.80, 14.41, 14.61 a.u.
 NGXF,Y,Z  is equivalent  to a cutoff of  29.61, 28.83, 29.21 a.u.


 I would recommend the setting:
   dimension x,y,z NGX =   109 NGY =  107 NGZ =  110
 SYSTEM =  MAPbI3-Cubic                            
 POSCAR =  C N H Pb I                              

 Startparameter for this run:
   NWRITE =      2    write-flag & timer
   PREC   = accura    normal or accurate (medium, high low for compatibility)
   ISTART =      0    job   : 0-new  1-cont  2-samecut
   ICHARG =      2    charge: 1-file 2-atom 10-const
   ISPIN  =      1    spin polarized calculation?
   LNONCOLLINEAR =      T non collinear calculations
   LSORBIT =      T    spin-orbit coupling
   INIWAV =      1    electr: 0-lowe 1-rand  2-diag
   LASPH  =      F    aspherical Exc in radial PAW
   METAGGA=      F    non-selfconsistent MetaGGA calc.

 Electronic Relaxation 1
   ENCUT  =  700.0 eV  51.45 Ry    7.17 a.u.  27.13 26.87 27.50*2*pi/ulx,y,z
   ENINI  =  700.0     initial cutoff
   ENAUG  =  644.9 eV  augmentation charge cutoff
   NELM   =     60;   NELMIN=  2; NELMDL= -5     # of ELM steps 
   EDIFF  = 0.1E-07   stopping-criterion for ELM
   LREAL  =      F    real-space projection
   NLSPLINE    = F    spline interpolate recip. space projectors
   LCOMPAT=      F    compatible to vasp.4.4
   GGA_COMPAT  = T    GGA compatible to vasp.4.4-vasp.4.6
   LMAXPAW     = -100 max onsite density
   LMAXMIX     =    2 max onsite mixed and CHGCAR
   VOSKOWN=      0    Vosko Wilk Nusair interpolation
   ROPT   =    0.00000   0.00000   0.00000   0.00000
   ROPT   =    0.00000
 Ionic relaxation
   EDIFFG = 0.1E-06   stopping-criterion for IOM
   NSW    =      0    number of steps for IOM
   NBLOCK =      1;   KBLOCK =      1    inner block; outer block 
   IBRION =     -1    ionic relax: 0-MD 1-quasi-New 2-CG
   NFREE  =      0    steps in history (QN), initial steepest desc. (CG)
   ISIF   =      2    stress and relaxation
   IWAVPR =     10    prediction:  0-non 1-charg 2-wave 3-comb
   ISYM   =      2    0-nonsym 1-usesym 2-fastsym
   LCORR  =      T    Harris-Foulkes like correction to forces

   POTIM  = 0.5000    time-step for ionic-motion
   TEIN   =    0.0    initial temperature
   TEBEG  =    0.0;   TEEND  =   0.0 temperature during run
   SMASS  =  -3.00    Nose mass-parameter (am)
   estimated Nose-frequenzy (Omega)   =  0.10E-29 period in steps =****** mass=  -0.362E-26a.u.
   SCALEE = 1.0000    scale energy and forces
   NPACO  =    256;   APACO  = 16.0  distance and # of slots for P.C.
   PSTRESS=    0.0 pullay stress

  Mass of Ions in am
   POMASS =  12.01 14.00  1.00207.20126.90
  Ionic Valenz
   ZVAL   =   4.00  5.00  1.00 14.00  7.00
  Atomic Wigner-Seitz radii
   RWIGS  =  -1.00 -1.00 -1.00 -1.00 -1.00
  virtual crystal weights 
   VCA    =   1.00  1.00  1.00  1.00  1.00
   NELECT =     400.0000    total number of electrons
   NUPDOWN=      -1.0000    fix difference up-down

 DOS related values:
   EMIN   =  10.00;   EMAX   =-10.00  energy-range for DOS
   EFERMI =   0.00
   ISMEAR =     0;   SIGMA  =   0.00  broadening in eV -4-tet -1-fermi 0-gaus

 Electronic relaxation 2 (details)
   IALGO  =     38    algorithm
   LDIAG  =      T    sub-space diagonalisation (order eigenvalues)
   LSUBROT=      F    optimize rotation matrix (better conditioning)
   TURBO    =      0    0=normal 1=particle mesh
   IRESTART =      0    0=no restart 2=restart with 2 vectors
   NREBOOT  =      0    no. of reboots
   NMIN     =      0    reboot dimension
   EREF     =   0.00    reference energy to select bands
   IMIX   =      4    mixing-type and parameters
     AMIX     =   0.40;   BMIX     =  1.00
     AMIX_MAG =   1.60;   BMIX_MAG =  1.00
     AMIN     =   0.10
     WC   =   100.;   INIMIX=   1;  MIXPRE=   1;  MAXMIX= -45

 Intra band minimization:
   WEIMIN = 0.0000     energy-eigenvalue tresh-hold
   EBREAK =  0.42E-11  absolut break condition
   DEPER  =   0.30     relativ break condition  

   TIME   =   0.40     timestep for ELM

  volume/ion in A,a.u.               =      20.80       140.38
  Fermi-wavevector in a.u.,A,eV,Ry     =   0.957863  1.810099 12.483376  0.917502
  Thomas-Fermi vector in A             =   2.086919
 
 Write flags
   LWAVE  =      F    write WAVECAR
   LCHARG =      F    write CHGCAR
   LVTOT  =      F    write LOCPOT, total local potential
   LVHAR  =      F    write LOCPOT, Hartree potential only
   LELF   =      F    write electronic localiz. function (ELF)
   LORBIT =      0    0 simple, 1 ext, 2 COOP (PROOUT)


 Dipole corrections
   LMONO  =      F    monopole corrections only (constant potential shift)
   LDIPOL =      F    correct potential (dipole corrections)
   IDIPOL =      0    1-x, 2-y, 3-z, 4-all directions 
   EPSILON=  1.0000000 bulk dielectric constant

 Core level calculations are selected ICORELEVEL =  1
 Exchange correlation treatment:
   GGA     =    PS    GGA type
   LEXCH   =    14    internal setting for exchange type
   VOSKOWN=      0    Vosko Wilk Nusair interpolation
   LHFCALC =     F    Hartree Fock is set to
   LHFONE  =     F    Hartree Fock one center treatment
   AEXX    =    0.0000 exact exchange contribution

 Linear response parameters
   LEPSILON=     F    determine dielectric tensor
   LRPA    =     F    only Hartree local field effects (RPA)
   LNABLA  =     F    use nabla operator in PAW spheres
   LVEL    =     F    velocity operator in full k-point grid
   LINTERFAST=   F  fast interpolation
   KINTER  =     0    interpolate to denser k-point grid
   CSHIFT  =0.1000    complex shift for real part using Kramers Kronig
   OMEGAMAX=  -1.0    maximum frequency
   DEG_THRESHOLD= 0.2000000E-02 threshold for treating states as degnerate
   RTIME   =    0.100 relaxation time in fs

 Orbital magnetization related:
   ORBITALMAG=     F  switch on orbital magnetization
   LCHIMAG   =     F  perturbation theory with respect to B field
   DQ        =  0.001000  dq finite difference perturbation B field



--------------------------------------------------------------------------------------------------------


 Static calculation
 charge density and potential will be updated during run
 non collinear spin polarized calculation
 Variant of blocked Davidson
 Davidson routine will perform the subspace rotation
 perform sub-space diagonalisation
    after iterative eigenvector-optimisation
 modified Broyden-mixing scheme, WC =      100.0
 initial mixing is a Kerker type mixing with AMIX =  0.4000 and BMIX =      1.0000
 Hartree-type preconditioning will be used
 using additional bands          400
 reciprocal scheme for non local part
 use partial core corrections
 calculate Harris-corrections to forces 
   (improved forces if not selfconsistent)
 use gradient corrections 
 use of overlap-Matrix (Vanderbilt PP)
 Gauss-broadening in eV      SIGMA  =   0.00


--------------------------------------------------------------------------------------------------------


  energy-cutoff  :      700.00
  volume of cell :     1996.98
      direct lattice vectors                 reciprocal lattice vectors
    12.576837428  0.001915912  0.138198793     0.079520802 -0.000007684 -0.000869670
     0.001195632 12.457538083 -0.000746413    -0.000012224  0.080272684 -0.000000427
     0.139410704  0.000089045 12.747420625    -0.000862111  0.000004784  0.078456671

  length of vectors
    12.577596840 12.457538162 12.748182927     0.079525558  0.080272685  0.078461408


 
 k-points in units of 2pi/SCALE and weight: Automatic 3x3x3                         
   0.00000000  0.00000000  0.00000000       0.037
   0.02650693 -0.00000256 -0.00028989       0.037
  -0.02650693  0.00000256  0.00028989       0.037
  -0.00000407  0.02675756 -0.00000014       0.037
   0.02650286  0.02675500 -0.00029003       0.037
  -0.02651101  0.02676012  0.00028975       0.037
   0.00000407 -0.02675756  0.00000014       0.037
   0.02651101 -0.02676012 -0.00028975       0.037
  -0.02650286 -0.02675500  0.00029003       0.037
  -0.00028737  0.00000159  0.02615222       0.037
   0.02621956 -0.00000097  0.02586233       0.037
  -0.02679430  0.00000416  0.02644211       0.037
  -0.00029144  0.02675916  0.02615208       0.037
   0.02621549  0.02675659  0.02586219       0.037
  -0.02679838  0.02676172  0.02644197       0.037
  -0.00028330 -0.02675597  0.02615237       0.037
   0.02622364 -0.02675853  0.02586248       0.037
  -0.02679023 -0.02675341  0.02644226       0.037
   0.00028737 -0.00000159 -0.02615222       0.037
   0.02679430 -0.00000416 -0.02644211       0.037
  -0.02621956  0.00000097 -0.02586233       0.037
   0.00028330  0.02675597 -0.02615237       0.037
   0.02679023  0.02675341 -0.02644226       0.037
  -0.02622364  0.02675853 -0.02586248       0.037
   0.00029144 -0.02675916 -0.02615208       0.037
   0.02679838 -0.02676172 -0.02644197       0.037
  -0.02621549 -0.02675659 -0.02586219       0.037
 
 k-points in reciprocal lattice and weights: Automatic 3x3x3                         
   0.00000000  0.00000000  0.00000000       0.037
   0.33333333 -0.00000000 -0.00000000       0.037
  -0.33333333  0.00000000  0.00000000       0.037
   0.00000000  0.33333333 -0.00000000       0.037
   0.33333333  0.33333333  0.00000000       0.037
  -0.33333333  0.33333333  0.00000000       0.037
  -0.00000000 -0.33333333  0.00000000       0.037
   0.33333333 -0.33333333 -0.00000000       0.037
  -0.33333333 -0.33333333 -0.00000000       0.037
   0.00000000  0.00000000  0.33333333       0.037
   0.33333333  0.00000000  0.33333333       0.037
  -0.33333333  0.00000000  0.33333333       0.037
   0.00000000  0.33333333  0.33333333       0.037
   0.33333333  0.33333333  0.33333333       0.037
  -0.33333333  0.33333333  0.33333333       0.037
   0.00000000 -0.33333333  0.33333333       0.037
   0.33333333 -0.33333333  0.33333333       0.037
  -0.33333333 -0.33333333  0.33333333       0.037
   0.00000000  0.00000000 -0.33333333       0.037
   0.33333333 -0.00000000 -0.33333333       0.037
  -0.33333333 -0.00000000 -0.33333333       0.037
  -0.00000000  0.33333333 -0.33333333       0.037
   0.33333333  0.33333333 -0.33333333       0.037
  -0.33333333  0.33333333 -0.33333333       0.037
  -0.00000000 -0.33333333 -0.33333333       0.037
   0.33333333 -0.33333333 -0.33333333       0.037
  -0.33333333 -0.33333333 -0.33333333       0.037
 
 position of ions in fractional coordinates (direct lattice) 
   0.20573983  0.24994474  0.21529415
   0.68824844  0.24987181  0.24253656
   0.18824844  0.74987181  0.24253656
   0.70573983  0.74994474  0.21529415
   0.20573983  0.24994474  0.71529415
   0.68824844  0.24987181  0.74253656
   0.18824844  0.74987181  0.74253656
   0.70573983  0.74994474  0.71529415
   0.30694395  0.25003131  0.27465476
   0.80213049  0.24997597  0.27311384
   0.30213049  0.74997597  0.27311384
   0.80694395  0.75003131  0.27465476
   0.30694395  0.25003131  0.77465476
   0.80213049  0.24997597  0.77311384
   0.30213049  0.74997597  0.77311384
   0.80694395  0.75003131  0.77465476
   0.22565376  0.24981994  0.13009495
   0.68449658  0.24982226  0.15568230
   0.18449658  0.74982226  0.15568230
   0.72565376  0.74981994  0.13009495
   0.22565376  0.24981994  0.63009495
   0.68449658  0.24982226  0.65568230
   0.18449658  0.74982226  0.65568230
   0.72565376  0.74981994  0.63009495
   0.15980416  0.32248824  0.23643051
   0.64887145  0.32221613  0.27460013
   0.14887145  0.82221613  0.27460013
   0.65980416  0.82248824  0.23643051
   0.15980416  0.32248824  0.73643051
   0.64887145  0.32221613  0.77460013
   0.14887145  0.82221613  0.77460013
   0.65980416  0.82248824  0.73643051
   0.15985367  0.17745519  0.23663038
   0.64903200  0.17749696  0.27467103
   0.14903200  0.67749696  0.27467103
   0.65985367  0.67745519  0.23663038
   0.15985367  0.17745519  0.73663038
   0.64903200  0.17749696  0.77467103
   0.14903200  0.67749696  0.77467103
   0.65985367  0.67745519  0.73663038
   0.35331049  0.31816596  0.25725915
   0.84295866  0.31758261  0.24425383
   0.34295866  0.81758261  0.24425383
   0.85331049  0.81816596  0.25725915
   0.35331049  0.31816596  0.75725915
   0.84295866  0.31758261  0.74425383
   0.34295866  0.81758261  0.74425383
   0.85331049  0.81816596  0.75725915
   0.35332729  0.18182575  0.25746082
   0.84308331  0.18238402  0.24432098
   0.34308331  0.68238402  0.24432098
   0.85332729  0.68182575  0.25746082
   0.35332729  0.18182575  0.75746082
   0.84308331  0.18238402  0.74432098
   0.34308331  0.68238402  0.74432098
   0.85332729  0.68182575  0.75746082
   0.29334873  0.25016912  0.35599889
   0.81299142  0.25001792  0.35521960
   0.31299142  0.75001792  0.35521960
   0.79334873  0.75016912  0.35599889
   0.29334873  0.25016912  0.85599889
   0.81299142  0.25001792  0.85521960
   0.31299142  0.75001792  0.85521960
   0.79334873  0.75016912  0.85599889
   0.47244944  0.50141593  0.48880955
   0.97243411  0.49856366  0.48881335
   0.47243411  0.99856366  0.48881335
   0.97244944  0.00141593  0.48880955
   0.47244944  0.50141593  0.98880955
   0.97243411  0.49856366  0.98881335
   0.47243411  0.99856366  0.98881335
   0.97244944  0.00141593  0.98880955
   0.45476493  0.50075041  0.23756822
   0.95472242  0.49923169  0.23757726
   0.45472242  0.99923169  0.23757726
   0.95476493  0.00075041  0.23756822
   0.45476493  0.50075041  0.73756822
   0.95472242  0.49923169  0.73757726
   0.45472242  0.99923169  0.73757726
   0.95476493  0.00075041  0.73756822
   0.47710730  0.24997358  0.00666962
   0.92216358  0.24998444  0.01699482
   0.42216358  0.74998444  0.01699482
   0.97710730  0.74997358  0.00666962
   0.47710730  0.24997358  0.50666962
   0.92216358  0.24998444  0.51699482
   0.42216358  0.74998444  0.51699482
   0.97710730  0.74997358  0.50666962
   0.21617807  0.46720793  0.46123970
   0.71616481  0.53278694  0.46123971
   0.21616481  0.03278694  0.46123971
   0.71617807  0.96720793  0.46123970
   0.21617807  0.46720793  0.96123970
   0.71616481  0.53278694  0.96123971
   0.21616481  0.03278694  0.96123971
   0.71617807  0.96720793  0.96123970
 
 position of ions in cartesian coordinates  (Angst):
   2.61786949  3.11410951  2.77269150
   8.69009968  3.11412777  3.18664415
   2.40227878  9.34193886  3.11717154
   8.90688602  9.34383650  2.84141769
   2.68757484  3.11415403  9.14640181
   8.75980503  3.11417229  9.56035446
   2.47198414  9.34198338  9.49088186
   8.97659137  9.34388103  9.21512800
   3.89897295  3.11538707  3.54337237
  10.12663858  3.11564634  3.59216382
   3.83881768  9.34345742  3.52269122
  10.18798948  9.34511407  3.61209856
   3.96867830  3.11543160  9.91708269
  10.19634393  3.11569086  9.96587414
   3.90852303  9.34350195  9.89640153
  10.25769483  9.34515859  9.98580888
   2.85644596  3.11258530  1.68937363
   8.63080463  3.11349556  2.07895795
   2.34298373  9.34130665  2.00948534
   9.14546249  9.34231229  1.75809982
   2.92615131  3.11262982  8.06308394
   8.70050998  3.11354008  8.45266826
   2.41268908  9.34135117  8.38319566
   9.21516784  9.34235681  8.13181013
   2.04317750  4.01773675  3.03572320
   8.19941819  4.01528739  3.58987608
   1.91159730 10.24309848  3.52040347
   8.33219403 10.24746374  3.10444939
   2.11288285  4.01778127  9.40943351
   8.26912355  4.01533191  9.96358639
   1.98130265 10.24314300  9.89411379
   8.40189938 10.24750827  9.47815970
   2.04365458  2.21098206  3.03838615
   8.20127423  2.21244311  3.59091012
   1.91345334  8.44025419  3.52143752
   8.33267111  8.44070906  3.10711234
   2.11335994  2.21102659  9.41209646
   8.27097959  2.21248763  9.96462043
   1.98315869  8.44029871  9.89514783
   8.40237647  8.44075358  9.48082265
   4.47977369  3.96426433  3.32798020
  10.63618539  3.95793424  3.22986515
   4.34836449 10.18574532  3.16039255
  10.76879022 10.19399133  3.39670639
   4.54947905  3.96430886  9.70169052
  10.70589074  3.95797876  9.60357546
   4.41806984 10.18578985  9.53410286
  10.83849558 10.19403585  9.77041671
   4.47985008  2.26580114  3.33065501
  10.63760075  2.27369290  3.23083930
   4.34977985  8.50150399  3.16136670
  10.76886661  8.49552813  3.39938120
   4.54955544  2.26584566  9.70436532
  10.70730610  2.27373743  9.60454961
   4.41948520  8.50154851  9.53507701
  10.83857197  8.49557266  9.77309151
   3.73932841  3.11708512  4.57842127
  10.27468125  3.11619700  4.64030149
   3.98686035  9.34400809  4.57082889
  10.02834494  9.34681212  4.64714746
   3.80903377  3.11712965 10.95213159
  10.34438660  3.11624152 11.01401181
   4.05656571  9.34405261 10.94453920
  10.09805030  9.34685664 11.02085778
   6.01066463  6.24735670  6.29597857
  12.29888761  6.21278244  6.36512644
   6.01106671 12.44059353  6.29565384
  12.29848553  0.01954562  6.36545117
   6.08036998  6.24740122 12.66968888
  12.36859296  6.21282696 12.73883675
   6.08077207 12.44063805 12.66936415
  12.36819088  0.01959014 12.73916148
   5.75322281  6.23900979  3.09085626
  12.04110641  6.22104806  3.16006614
   5.75328551 12.44885914  3.09059353
  12.04104370  0.01119870  3.16032886
   5.82292816  6.23905431  9.46456657
  12.11081176  6.22109258  9.53377645
   5.82299087 12.44890366  9.46430385
  12.11074906  0.01124322  9.53403917
   6.00172968  3.11497013  0.15076950
  11.60056953  3.11595894  0.34389538
   5.31274863  9.34377003  0.27442278
  12.29074621  9.34469713  0.21949569
   6.07143503  3.11501465  6.52447982
  11.67027488  3.11600347  6.71760569
   5.38245398  9.34381455  6.64813309
  12.36045156  9.34474165  6.59320601
   2.78369680  5.82071586  5.90914324
   9.07202712  6.63862678  5.97819198
   2.78301059  0.40889978  5.90946579
   9.07271333 12.05044286  5.97786943
   2.85340215  5.82076038 12.28285356
   9.14173247  6.63867130 12.35190230
   2.85271594  0.40894430 12.28317611
   9.14241868 12.05048738 12.35157975
 
 Euler angles ALPHA=     0.0000000  BETA=     0.0000000

 transformation matrix from SAXIS to cartesian coordinates
 ---------------------------------------------------------
     1.0000000 m_x     0.0000000 m_y     0.0000000 m_z
     0.0000000 m_x     1.0000000 m_y     0.0000000 m_z
     0.0000000 m_x     0.0000000 m_y     1.0000000 m_z

 transformation matrix from cartesian coordinates to SAXIS
 ---------------------------------------------------------
     1.0000000 m_x     0.0000000 m_y     0.0000000 m_z
     0.0000000 m_x     1.0000000 m_y     0.0000000 m_z
     0.0000000 m_x     0.0000000 m_y     1.0000000 m_z




--------------------------------------------------------------------------------------------------------


 k-point  1 :   0.0000 0.0000 0.0000  plane waves:  168014
 k-point  2 :   0.3333-0.0000-0.0000  plane waves:  168006
 k-point  3 :  -0.3333 0.0000 0.0000  plane waves:  168006
 k-point  4 :   0.0000 0.3333-0.0000  plane waves:  167990
 k-point  5 :   0.3333 0.3333 0.0000  plane waves:  168036
 k-point  6 :  -0.3333 0.3333 0.0000  plane waves:  168038
 k-point  7 :  -0.0000-0.3333 0.0000  plane waves:  167990
 k-point  8 :   0.3333-0.3333-0.0000  plane waves:  168038
 k-point  9 :  -0.3333-0.3333-0.0000  plane waves:  168036
 k-point 10 :   0.0000 0.0000 0.3333  plane waves:  167920
 k-point 11 :   0.3333 0.0000 0.3333  plane waves:  167874
 k-point 12 :  -0.3333 0.0000 0.3333  plane waves:  167964
 k-point 13 :   0.0000 0.3333 0.3333  plane waves:  167968
 k-point 14 :   0.3333 0.3333 0.3333  plane waves:  168024
 k-point 15 :  -0.3333 0.3333 0.3333  plane waves:  167940
 k-point 16 :   0.0000-0.3333 0.3333  plane waves:  167954
 k-point 17 :   0.3333-0.3333 0.3333  plane waves:  168026
 k-point 18 :  -0.3333-0.3333 0.3333  plane waves:  167946
 k-point 19 :   0.0000 0.0000-0.3333  plane waves:  167920
 k-point 20 :   0.3333-0.0000-0.3333  plane waves:  167964
 k-point 21 :  -0.3333-0.0000-0.3333  plane waves:  167874
 k-point 22 :  -0.0000 0.3333-0.3333  plane waves:  167954
 k-point 23 :   0.3333 0.3333-0.3333  plane waves:  167946
 k-point 24 :  -0.3333 0.3333-0.3333  plane waves:  168026
 k-point 25 :  -0.0000-0.3333-0.3333  plane waves:  167968
 k-point 26 :   0.3333-0.3333-0.3333  plane waves:  167940
 k-point 27 :  -0.3333-0.3333-0.3333  plane waves:  168024

 maximum and minimum number of plane-waves per node :      7122     6820

 maximum number of plane-waves:    168038
 maximum index in each direction: 
   IXMAX=   27   IYMAX=   27   IZMAX=   27
   IXMIN=  -27   IYMIN=  -27   IZMIN=  -27

 NGX is ok and might be reduce to 110
 WARNING: aliasing errors must be expected set NGY to 110 to avoid them
 NGZ is ok and might be reduce to 110
 aliasing errors are usually negligible using standard VASP settings
 and one can safely disregard these warnings

 parallel 3D FFT for wavefunctions:
    minimum data exchange during FFTs selected (reduces bandwidth)
 parallel 3D FFT for charge:
    minimum data exchange during FFTs selected (reduces bandwidth)


 total amount of memory used by VASP on root node   392927. kBytes
========================================================================

   base      :      30000. kBytes
   nonl-proj :      73667. kBytes
   fftplans  :      22714. kBytes
   grid      :      35610. kBytes
   one-center:        248. kBytes
   wavefun   :     230688. kBytes
 
     INWAV:  cpu time    0.0000: real time    0.0000
 Broyden mixing: mesh for mixing (old mesh)
   NGX = 55   NGY = 53   NGZ = 55
  (NGX  =224   NGY  =216   NGZ  =224)
  gives a total of 160325 points

 initial charge density was supplied:
 charge density of overlapping atoms calculated
 number of electron     400.0000000 magnetization      96.0000000     96.0000000     96.0000000
 keeping initial charge density in first step


--------------------------------------------------------------------------------------------------------


 Maximum index for augmentation-charges         5369 (set IRDMAX)


--------------------------------------------------------------------------------------------------------


 First call to EWALD:  gamma=   0.141
 Maximum number of real-space cells 3x 3x 3
 Maximum number of reciprocal cells 3x 3x 3

 FEWALD executed in parallel
    FEWALD:  cpu time    0.0120: real time    0.0127


----------------------------------------- Iteration    1(   1)  ---------------------------------------


    POTLOK:  cpu time    0.6760: real time    0.6762
    SETDIJ:  cpu time    2.2081: real time    2.2081
     EDDAV:  cpu time  248.9956: real time  249.1618
       DOS:  cpu time    0.0080: real time    0.0089
    --------------------------------------------
      LOOP:  cpu time  251.8877: real time  252.1004

 eigenvalue-minimisations  : 32544
 total energy-change (2. order) : 0.4219627E+04  (-0.1928408E+05)
 number of electron     400.0000000 magnetization      96.0000000     96.0000000     96.0000000
 augmentation part      400.0000000 magnetization      96.0000000     96.0000000     96.0000000

 Free energy of the ion-electron system (eV)
  ---------------------------------------------------
  alpha Z        PSCENC =       370.05370877
  Ewald energy   TEWEN  =    -15569.67885133
  -Hartree energ DENC   =     -8089.50152466
  -exchange      EXHF   =         0.00000000
  -V(xc)+E(xc)   XCENC  =       671.89307582
  PAW double counting   =     20172.90621935   -19413.33347658
  entropy T*S    EENTRO =        -0.00002988
  eigenvalues    EBANDS =      1328.28156078
  atomic energy  EATOM  =     24749.00668030
  Solvation  Ediel_sol  =         0.00000000
  ---------------------------------------------------
  free energy    TOTEN  =      4219.62736256 eV

  energy without entropy =     4219.62739245  energy(sigma->0) =     4219.62737750


--------------------------------------------------------------------------------------------------------




----------------------------------------- Iteration    1(   2)  ---------------------------------------


     EDDAV:  cpu time  265.6606: real time  265.8370
       DOS:  cpu time    0.0080: real time    0.0096
    --------------------------------------------
      LOOP:  cpu time  265.6726: real time  265.8575

 eigenvalue-minimisations  : 35600
 total energy-change (2. order) :-0.3378061E+04  (-0.3128441E+04)
 number of electron     400.0000000 magnetization      96.0000000     96.0000000     96.0000000
 augmentation part      400.0000000 magnetization      96.0000000     96.0000000     96.0000000

 Free energy of the ion-electron system (eV)
  ---------------------------------------------------
  alpha Z        PSCENC =       370.05370877
  Ewald energy   TEWEN  =    -15569.67885133
  -Hartree energ DENC   =     -8089.50152466
  -exchange      EXHF   =         0.00000000
  -V(xc)+E(xc)   XCENC  =       671.89307582
  PAW double counting   =     20172.90621935   -19413.33347658
  entropy T*S    EENTRO =        -0.00000193
  eigenvalues    EBANDS =     -2049.77944689
  atomic energy  EATOM  =     24749.00668030
  Solvation  Ediel_sol  =         0.00000000
  ---------------------------------------------------
  free energy    TOTEN  =       841.56638285 eV

  energy without entropy =      841.56638478  energy(sigma->0) =      841.56638381


--------------------------------------------------------------------------------------------------------




----------------------------------------- Iteration    1(   3)  ---------------------------------------


     EDDAV:  cpu time  312.7395: real time  312.9457
       DOS:  cpu time    0.0080: real time    0.0075
    --------------------------------------------
      LOOP:  cpu time  312.7515: real time  313.5757

 eigenvalue-minimisations  : 43920
 total energy-change (2. order) :-0.6085391E+03  (-0.5883627E+03)
 number of electron     400.0000000 magnetization      96.0000000     96.0000000     96.0000000
 augmentation part      400.0000000 magnetization      96.0000000     96.0000000     96.0000000

 Free energy of the ion-electron system (eV)
  ---------------------------------------------------
  alpha Z        PSCENC =       370.05370877
  Ewald energy   TEWEN  =    -15569.67885133
  -Hartree energ DENC   =     -8089.50152466
  -exchange      EXHF   =         0.00000000
  -V(xc)+E(xc)   XCENC  =       671.89307582
  PAW double counting   =     20172.90621935   -19413.33347658
  entropy T*S    EENTRO =        -0.00000172
  eigenvalues    EBANDS =     -2658.31857673
  atomic energy  EATOM  =     24749.00668030
  Solvation  Ediel_sol  =         0.00000000
  ---------------------------------------------------
  free energy    TOTEN  =       233.02725321 eV

  energy without entropy =      233.02725494  energy(sigma->0) =      233.02725408


--------------------------------------------------------------------------------------------------------




----------------------------------------- Iteration    1(   4)  ---------------------------------------


     EDDAV:  cpu time  313.0396: real time  313.2466
       DOS:  cpu time    0.0080: real time    0.0088
    --------------------------------------------
      LOOP:  cpu time  313.0516: real time  313.2908

 eigenvalue-minimisations  : 44096
 total energy-change (2. order) :-0.4569480E+02  (-0.4464408E+02)
 number of electron     400.0000000 magnetization      96.0000000     96.0000000     96.0000000
 augmentation part      400.0000000 magnetization      96.0000000     96.0000000     96.0000000

 Free energy of the ion-electron system (eV)
  ---------------------------------------------------
  alpha Z        PSCENC =       370.05370877
  Ewald energy   TEWEN  =    -15569.67885133
  -Hartree energ DENC   =     -8089.50152466
  -exchange      EXHF   =         0.00000000
  -V(xc)+E(xc)   XCENC  =       671.89307582
  PAW double counting   =     20172.90621935   -19413.33347658
  entropy T*S    EENTRO =        -0.00017663
  eigenvalues    EBANDS =     -2704.01320672
  atomic energy  EATOM  =     24749.00668030
  Solvation  Ediel_sol  =         0.00000000
  ---------------------------------------------------
  free energy    TOTEN  =       187.33244832 eV

  energy without entropy =      187.33262495  energy(sigma->0) =      187.33253663


--------------------------------------------------------------------------------------------------------




----------------------------------------- Iteration    1(   5)  ---------------------------------------


     EDDAV:  cpu time  345.5296: real time  345.7554
       DOS:  cpu time    0.0080: real time    0.0088
    CHARGE:  cpu time   11.8007: real time   11.8080
    MIXING:  cpu time    0.0160: real time    0.0165
    --------------------------------------------
      LOOP:  cpu time  357.3583: real time  357.6209

 eigenvalue-minimisations  : 50432
 total energy-change (2. order) :-0.2202625E+01  (-0.2190042E+01)
 number of electron     400.0000000 magnetization      67.1431858     67.1480767     67.1445739
 augmentation part        6.9528594 magnetization      63.3790787     63.3661841     63.3753215

 Broyden mixing:
  rms(total) = 0.97496E+01    rms(broyden)= 0.97495E+01
  rms(prec ) = 0.10246E+02
  weight for this iteration     100.00

 Free energy of the ion-electron system (eV)
  ---------------------------------------------------
  alpha Z        PSCENC =       370.05370877
  Ewald energy   TEWEN  =    -15569.67885133
  -Hartree energ DENC   =     -8089.50152466
  -exchange      EXHF   =         0.00000000
  -V(xc)+E(xc)   XCENC  =       671.89307582
  PAW double counting   =     20172.90621935   -19413.33347658
  entropy T*S    EENTRO =        -0.00012309
  eigenvalues    EBANDS =     -2706.21588562
  atomic energy  EATOM  =     24749.00668030
  Solvation  Ediel_sol  =         0.00000000
  ---------------------------------------------------
  free energy    TOTEN  =       185.12982296 eV

  energy without entropy =      185.12994605  energy(sigma->0) =      185.12988451


--------------------------------------------------------------------------------------------------------




----------------------------------------- Iteration    1(   6)  ---------------------------------------


    POTLOK:  cpu time    0.6480: real time    0.6497
    SETDIJ:  cpu time    2.1801: real time    2.1802
     EDDAV:  cpu time  274.3731: real time  274.5575
       DOS:  cpu time    0.0080: real time    0.0067
    CHARGE:  cpu time   11.9887: real time   11.9969
    MIXING:  cpu time    0.0160: real time    0.0152
    --------------------------------------------
      LOOP:  cpu time  289.2181: real time  289.4490

 eigenvalue-minimisations  : 37304
 total energy-change (2. order) :-0.1303183E+03  (-0.1518889E+03)
 number of electron     400.0000000 magnetization      50.2378618     50.2391899     50.2387638
 augmentation part        5.9959434 magnetization      51.1017429     51.1114013     51.1016595

 Broyden mixing:
  rms(total) = 0.48249E+01    rms(broyden)= 0.48248E+01
  rms(prec ) = 0.50106E+01
  weight for this iteration     100.00

 eigenvalues of (default mixing * dielectric matrix)
  average eigenvalue GAMMA=   0.7620
  0.7620

 Free energy of the ion-electron system (eV)
  ---------------------------------------------------
  alpha Z        PSCENC =       370.05370877
  Ewald energy   TEWEN  =    -15569.67885133
  -Hartree energ DENC   =     -8442.78570031
  -exchange      EXHF   =         0.00000000
  -V(xc)+E(xc)   XCENC  =       689.24973471
  PAW double counting   =     24149.85161306   -23412.77393376
  entropy T*S    EENTRO =        -0.00000003
  eigenvalues    EBANDS =     -2478.11172022
  atomic energy  EATOM  =     24749.00668030
  Solvation  Ediel_sol  =         0.00000000
  ---------------------------------------------------
  free energy    TOTEN  =        54.81153118 eV

  energy without entropy =       54.81153121  energy(sigma->0) =       54.81153120


--------------------------------------------------------------------------------------------------------




----------------------------------------- Iteration    1(   7)  ---------------------------------------


    POTLOK:  cpu time    0.6520: real time    0.6542
    SETDIJ:  cpu time    2.1641: real time    2.1666
     EDDAV:  cpu time  285.4778: real time  285.6675
       DOS:  cpu time    0.0080: real time    0.0085
    CHARGE:  cpu time   11.9527: real time   11.9579
    MIXING:  cpu time    0.0160: real time    0.0157
    --------------------------------------------
      LOOP:  cpu time  300.2748: real time  300.4824

 eigenvalue-minimisations  : 39200
 total energy-change (2. order) :-0.1491261E+03  (-0.1607363E+02)
 number of electron     400.0000000 magnetization      34.3422471     34.3393304     34.3428347
 augmentation part        5.5997055 magnetization      35.3552933     35.3665028     35.3533362

 Broyden mixing:
  rms(total) = 0.28271E+01    rms(broyden)= 0.28270E+01
  rms(prec ) = 0.29812E+01
  weight for this iteration     100.00

 eigenvalues of (default mixing * dielectric matrix)
  average eigenvalue GAMMA=   0.8393
  0.8393  0.8393

 Free energy of the ion-electron system (eV)
  ---------------------------------------------------
  alpha Z        PSCENC =       370.05370877
  Ewald energy   TEWEN  =    -15569.67885133
  -Hartree energ DENC   =     -8491.51375895
  -exchange      EXHF   =         0.00000000
  -V(xc)+E(xc)   XCENC  =       591.04279784
  PAW double counting   =     26582.57029027   -25845.46852094
  entropy T*S    EENTRO =        -0.00002109
  eigenvalues    EBANDS =     -2480.32684602
  atomic energy  EATOM  =     24749.00668030
  Solvation  Ediel_sol  =         0.00000000
  ---------------------------------------------------
  free energy    TOTEN  =       -94.31452115 eV

  energy without entropy =      -94.31450006  energy(sigma->0) =      -94.31451060


--------------------------------------------------------------------------------------------------------




----------------------------------------- Iteration    1(   8)  ---------------------------------------


    POTLOK:  cpu time    0.8401: real time    0.8381
    SETDIJ:  cpu time    2.1881: real time    2.1893
     EDDAV:  cpu time  273.8971: real time  274.0843
       DOS:  cpu time    0.0080: real time    0.0077
    CHARGE:  cpu time   11.9607: real time   11.9692
    MIXING:  cpu time    0.0160: real time    0.0161
    --------------------------------------------
      LOOP:  cpu time  288.9101: real time  289.1594

 eigenvalue-minimisations  : 37488
 total energy-change (2. order) :-0.1079742E+03  (-0.6486524E+01)
 number of electron     400.0000000 magnetization      15.9795959     15.9704712     15.9776499
 augmentation part        6.6498891 magnetization      17.1560058     17.1630065     17.1605163

 Broyden mixing:
  rms(total) = 0.18357E+01    rms(broyden)= 0.18357E+01
  rms(prec ) = 0.18912E+01
  weight for this iteration     100.00

 eigenvalues of (default mixing * dielectric matrix)
  average eigenvalue GAMMA=   1.0062
  1.4165  0.9736  0.6286

 Free energy of the ion-electron system (eV)
  ---------------------------------------------------
  alpha Z        PSCENC =       370.05370877
  Ewald energy   TEWEN  =    -15569.67885133
  -Hartree energ DENC   =     -8524.51035413
  -exchange      EXHF   =         0.00000000
  -V(xc)+E(xc)   XCENC  =       528.40153786
  PAW double counting   =     28534.58317261   -27799.46939089
  entropy T*S    EENTRO =        -0.00000000
  eigenvalues    EBANDS =     -2490.67519469
  atomic energy  EATOM  =     24749.00668030
  Solvation  Ediel_sol  =         0.00000000
  ---------------------------------------------------
  free energy    TOTEN  =      -202.28869150 eV

  energy without entropy =     -202.28869150  energy(sigma->0) =     -202.28869150


--------------------------------------------------------------------------------------------------------




----------------------------------------- Iteration    1(   9)  ---------------------------------------


    POTLOK:  cpu time    0.6200: real time    0.6228
    SETDIJ:  cpu time    2.2241: real time    2.2248
     EDDAV:  cpu time  266.7047: real time  266.8798
       DOS:  cpu time    0.0040: real time    0.0054
    CHARGE:  cpu time   11.9407: real time   11.9494
    MIXING:  cpu time    0.0200: real time    0.0165
    --------------------------------------------
      LOOP:  cpu time  281.5176: real time  281.7256

 eigenvalue-minimisations  : 36416
 total energy-change (2. order) :-0.1303463E+03  (-0.1194981E+02)
 number of electron     400.0000000 magnetization      10.3155748     10.3045485     10.3107775
 augmentation part        7.9014395 magnetization      11.1400448     11.1475395     11.1493193

 Broyden mixing:
  rms(total) = 0.91611E+00    rms(broyden)= 0.91610E+00
  rms(prec ) = 0.96713E+00
  weight for this iteration     100.00

 eigenvalues of (default mixing * dielectric matrix)
  average eigenvalue GAMMA=   1.0805
  1.8290  1.1040  0.6945  0.6945

 Free energy of the ion-electron system (eV)
  ---------------------------------------------------
  alpha Z        PSCENC =       370.05370877
  Ewald energy   TEWEN  =    -15569.67885133
  -Hartree energ DENC   =     -8554.49596456
  -exchange      EXHF   =         0.00000000
  -V(xc)+E(xc)   XCENC  =       463.38657581
  PAW double counting   =     30543.73847539   -29809.58048374
  entropy T*S    EENTRO =         0.00000000
  eigenvalues    EBANDS =     -2525.06516359
  atomic energy  EATOM  =     24749.00668030
  Solvation  Ediel_sol  =         0.00000000
  ---------------------------------------------------
  free energy    TOTEN  =      -332.63502296 eV

  energy without entropy =     -332.63502296  energy(sigma->0) =     -332.63502296


--------------------------------------------------------------------------------------------------------




----------------------------------------- Iteration    1(  10)  ---------------------------------------


    POTLOK:  cpu time    0.7040: real time    0.7059
    SETDIJ:  cpu time    2.2081: real time    2.2067
     EDDAV:  cpu time  273.7891: real time  273.9711
       DOS:  cpu time    0.0040: real time    0.0047
    CHARGE:  cpu time   12.0008: real time   12.0097
    MIXING:  cpu time    0.0160: real time    0.0165
    --------------------------------------------
      LOOP:  cpu time  288.7220: real time  289.0259

 eigenvalue-minimisations  : 37424
 total energy-change (2. order) :-0.4953568E+02  (-0.5146567E+01)
 number of electron     400.0000000 magnetization       6.3775565      6.3690638      6.3727154
 augmentation part        8.2198355 magnetization       6.9012354      6.9005789      6.9034480

 Broyden mixing:
  rms(total) = 0.66802E+00    rms(broyden)= 0.66801E+00
  rms(prec ) = 0.74363E+00
  weight for this iteration     100.00

 eigenvalues of (default mixing * dielectric matrix)
  average eigenvalue GAMMA=   1.1362
  1.7049  1.7049  0.8296  0.8296  0.6121

 Free energy of the ion-electron system (eV)
  ---------------------------------------------------
  alpha Z        PSCENC =       370.05370877
  Ewald energy   TEWEN  =    -15569.67885133
  -Hartree energ DENC   =     -8541.60592473
  -exchange      EXHF   =         0.00000000
  -V(xc)+E(xc)   XCENC  =       442.10638880
  PAW double counting   =     30903.04547651   -30167.34306203
  entropy T*S    EENTRO =         0.00000000
  eigenvalues    EBANDS =     -2567.75511535
  atomic energy  EATOM  =     24749.00668030
  Solvation  Ediel_sol  =         0.00000000
  ---------------------------------------------------
  free energy    TOTEN  =      -382.17069906 eV

  energy without entropy =     -382.17069906  energy(sigma->0) =     -382.17069906


--------------------------------------------------------------------------------------------------------




----------------------------------------- Iteration    1(  11)  ---------------------------------------


    POTLOK:  cpu time    0.6520: real time    0.6530
    SETDIJ:  cpu time    2.2041: real time    2.2040
     EDDAV:  cpu time  276.0373: real time  276.2193
       DOS:  cpu time    0.0040: real time    0.0053
    CHARGE:  cpu time   11.8927: real time   11.9010
    MIXING:  cpu time    0.0200: real time    0.0168
    --------------------------------------------
      LOOP:  cpu time  290.8142: real time  291.0117

 eigenvalue-minimisations  : 38432
 total energy-change (2. order) :-0.2794434E+02  (-0.3834254E+01)
 number of electron     400.0000000 magnetization       3.2097237      3.2042490      3.2063126
 augmentation part        8.0908748 magnetization       3.4333007      3.4293070      3.4306550

 Broyden mixing:
  rms(total) = 0.38524E+00    rms(broyden)= 0.38524E+00
  rms(prec ) = 0.44152E+00
  weight for this iteration     100.00

 eigenvalues of (default mixing * dielectric matrix)
  average eigenvalue GAMMA=   1.2100
  2.0617  2.0617  0.9483  0.9483  0.6621  0.5782

 Free energy of the ion-electron system (eV)
  ---------------------------------------------------
  alpha Z        PSCENC =       370.05370877
  Ewald energy   TEWEN  =    -15569.67885133
  -Hartree energ DENC   =     -8489.68147583
  -exchange      EXHF   =         0.00000000
  -V(xc)+E(xc)   XCENC  =       428.13234482
  PAW double counting   =     30846.35308195   -30107.32717399
  entropy T*S    EENTRO =         0.00000000
  eigenvalues    EBANDS =     -2636.97334887
  atomic energy  EATOM  =     24749.00668030
  Solvation  Ediel_sol  =         0.00000000
  ---------------------------------------------------
  free energy    TOTEN  =      -410.11503418 eV

  energy without entropy =     -410.11503418  energy(sigma->0) =     -410.11503418


--------------------------------------------------------------------------------------------------------




----------------------------------------- Iteration    1(  12)  ---------------------------------------


    POTLOK:  cpu time    0.6360: real time    0.6348
    SETDIJ:  cpu time    2.2241: real time    2.2259
     EDDAV:  cpu time  285.1098: real time  285.3001
       DOS:  cpu time    0.0040: real time    0.0054
    CHARGE:  cpu time   11.8807: real time   11.8869
    MIXING:  cpu time    0.0160: real time    0.0185
    --------------------------------------------
      LOOP:  cpu time  299.8707: real time  300.1491

 eigenvalue-minimisations  : 39648
 total energy-change (2. order) :-0.1069756E+02  (-0.1599536E+01)
 number of electron     400.0000000 magnetization       2.4593815      2.4549264      2.4567276
 augmentation part        7.8824361 magnetization       2.5264983      2.5223962      2.5236738

 Broyden mixing:
  rms(total) = 0.25029E+00    rms(broyden)= 0.25029E+00
  rms(prec ) = 0.28811E+00
  weight for this iteration     100.00

 eigenvalues of (default mixing * dielectric matrix)
  average eigenvalue GAMMA=   1.1583
  2.0659  2.0659  1.0027  1.0027  0.6865  0.6865  0.5980

 Free energy of the ion-electron system (eV)
  ---------------------------------------------------
  alpha Z        PSCENC =       370.05370877
  Ewald energy   TEWEN  =    -15569.67885133
  -Hartree energ DENC   =     -8441.80648093
  -exchange      EXHF   =         0.00000000
  -V(xc)+E(xc)   XCENC  =       421.55294801
  PAW double counting   =     30684.02436572   -29942.26305168
  entropy T*S    EENTRO =         0.00000000
  eigenvalues    EBANDS =     -2691.70191425
  atomic energy  EATOM  =     24749.00668030
  Solvation  Ediel_sol  =         0.00000000
  ---------------------------------------------------
  free energy    TOTEN  =      -420.81259540 eV

  energy without entropy =     -420.81259540  energy(sigma->0) =     -420.81259540


--------------------------------------------------------------------------------------------------------




----------------------------------------- Iteration    1(  13)  ---------------------------------------


    POTLOK:  cpu time    0.6720: real time    0.6736
    SETDIJ:  cpu time    2.2281: real time    2.2287
     EDDAV:  cpu time  287.4180: real time  287.6092
       DOS:  cpu time    0.0040: real time    0.0047
    CHARGE:  cpu time   11.8847: real time   11.8938
    MIXING:  cpu time    0.0200: real time    0.0182
    --------------------------------------------
      LOOP:  cpu time  302.2309: real time  302.4395

 eigenvalue-minimisations  : 40584
 total energy-change (2. order) :-0.1964610E+01  (-0.2845575E+00)
 number of electron     400.0000000 magnetization       1.7525742      1.7499164      1.7510977
 augmentation part        7.8953417 magnetization       1.8024712      1.8004060      1.8012616

 Broyden mixing:
  rms(total) = 0.20721E+00    rms(broyden)= 0.20721E+00
  rms(prec ) = 0.24437E+00
  weight for this iteration     100.00

 eigenvalues of (default mixing * dielectric matrix)
  average eigenvalue GAMMA=   1.1790
  2.1913  2.1913  1.0678  1.0678  0.8616  0.8616  0.6202  0.5706

 Free energy of the ion-electron system (eV)
  ---------------------------------------------------
  alpha Z        PSCENC =       370.05370877
  Ewald energy   TEWEN  =    -15569.67885133
  -Hartree energ DENC   =     -8430.29310306
[...]
     0.0000000     0.0000000     0.0000000     0.0000000     0.0000000     0.0000000     0.0000000
     0.0000000     0.0000000     0.0000000     0.0000000     0.0000000     0.0000000     0.0000000
     0.0000000     0.0000000     0.0000000     0.0000000     0.0000000     0.0000000     0.0000000
     0.0000000     0.0000000     0.0000000     0.0000000     0.0000000     0.0000000     0.0000000

 Ion:   82  E_soc:     -0.2774045
 l=   1
     0.0000000    -0.0474619    -0.0481818
    -0.0474619     0.0000000    -0.0430739
    -0.0481818    -0.0430739     0.0000000
 l=   2
     0.0000000    -0.0000081     0.0000000    -0.0000027     0.0000202
    -0.0000081     0.0000000     0.0000039    -0.0000026     0.0000101
     0.0000000     0.0000039     0.0000000    -0.0000037     0.0000000
    -0.0000027    -0.0000026    -0.0000037     0.0000000    -0.0000018
     0.0000202     0.0000101     0.0000000    -0.0000018     0.0000000
 l=   3
     0.0000000     0.0000000     0.0000000     0.0000000     0.0000000     0.0000000     0.0000000
     0.0000000     0.0000000     0.0000000     0.0000000     0.0000000     0.0000000     0.0000000
     0.0000000     0.0000000     0.0000000     0.0000000     0.0000000     0.0000000     0.0000000
     0.0000000     0.0000000     0.0000000     0.0000000     0.0000000     0.0000000     0.0000000
     0.0000000     0.0000000     0.0000000     0.0000000     0.0000000     0.0000000     0.0000000
     0.0000000     0.0000000     0.0000000     0.0000000     0.0000000     0.0000000     0.0000000
     0.0000000     0.0000000     0.0000000     0.0000000     0.0000000     0.0000000     0.0000000

 Ion:   83  E_soc:     -0.2774045
 l=   1
     0.0000000    -0.0474619    -0.0481818
    -0.0474619     0.0000000    -0.0430739
    -0.0481818    -0.0430739     0.0000000
 l=   2
     0.0000000    -0.0000081     0.0000000    -0.0000027     0.0000202
    -0.0000081     0.0000000     0.0000039    -0.0000026     0.0000101
     0.0000000     0.0000039     0.0000000    -0.0000037     0.0000000
    -0.0000027    -0.0000026    -0.0000037     0.0000000    -0.0000018
     0.0000202     0.0000101     0.0000000    -0.0000018     0.0000000
 l=   3
     0.0000000     0.0000000     0.0000000     0.0000000     0.0000000     0.0000000     0.0000000
     0.0000000     0.0000000     0.0000000     0.0000000     0.0000000     0.0000000     0.0000000
     0.0000000     0.0000000     0.0000000     0.0000000     0.0000000     0.0000000     0.0000000
     0.0000000     0.0000000     0.0000000     0.0000000     0.0000000     0.0000000     0.0000000
     0.0000000     0.0000000     0.0000000     0.0000000     0.0000000     0.0000000     0.0000000
     0.0000000     0.0000000     0.0000000     0.0000000     0.0000000     0.0000000     0.0000000
     0.0000000     0.0000000     0.0000000     0.0000000     0.0000000     0.0000000     0.0000000

 Ion:   84  E_soc:     -0.2819896
 l=   1
     0.0000000    -0.0490639    -0.0490323
    -0.0490639     0.0000000    -0.0429236
    -0.0490323    -0.0429236     0.0000000
 l=   2
     0.0000000    -0.0000105     0.0000000    -0.0000027     0.0000241
    -0.0000105     0.0000000     0.0000063    -0.0000022     0.0000143
     0.0000000     0.0000063     0.0000000    -0.0000031     0.0000000
    -0.0000027    -0.0000022    -0.0000031     0.0000000    -0.0000011
     0.0000241     0.0000143     0.0000000    -0.0000011     0.0000000
 l=   3
     0.0000000     0.0000000     0.0000000     0.0000000     0.0000000     0.0000000     0.0000000
     0.0000000     0.0000000     0.0000000     0.0000000     0.0000000     0.0000000     0.0000000
     0.0000000     0.0000000     0.0000000     0.0000000     0.0000000     0.0000000     0.0000000
     0.0000000     0.0000000     0.0000000     0.0000000     0.0000000     0.0000000     0.0000000
     0.0000000     0.0000000     0.0000000     0.0000000     0.0000000     0.0000000     0.0000000
     0.0000000     0.0000000     0.0000000     0.0000000     0.0000000     0.0000000     0.0000000
     0.0000000     0.0000000     0.0000000     0.0000000     0.0000000     0.0000000     0.0000000

 Ion:   85  E_soc:     -0.2819896
 l=   1
     0.0000000    -0.0490639    -0.0490323
    -0.0490639     0.0000000    -0.0429236
    -0.0490323    -0.0429236     0.0000000
 l=   2
     0.0000000    -0.0000105     0.0000000    -0.0000027     0.0000241
    -0.0000105     0.0000000     0.0000063    -0.0000022     0.0000143
     0.0000000     0.0000063     0.0000000    -0.0000031     0.0000000
    -0.0000027    -0.0000022    -0.0000031     0.0000000    -0.0000011
     0.0000241     0.0000143     0.0000000    -0.0000011     0.0000000
 l=   3
     0.0000000     0.0000000     0.0000000     0.0000000     0.0000000     0.0000000     0.0000000
     0.0000000     0.0000000     0.0000000     0.0000000     0.0000000     0.0000000     0.0000000
     0.0000000     0.0000000     0.0000000     0.0000000     0.0000000     0.0000000     0.0000000
     0.0000000     0.0000000     0.0000000     0.0000000     0.0000000     0.0000000     0.0000000
     0.0000000     0.0000000     0.0000000     0.0000000     0.0000000     0.0000000     0.0000000
     0.0000000     0.0000000     0.0000000     0.0000000     0.0000000     0.0000000     0.0000000
     0.0000000     0.0000000     0.0000000     0.0000000     0.0000000     0.0000000     0.0000000

 Ion:   86  E_soc:     -0.2774045
 l=   1
     0.0000000    -0.0474619    -0.0481818
    -0.0474619     0.0000000    -0.0430739
    -0.0481818    -0.0430739     0.0000000
 l=   2
     0.0000000    -0.0000081     0.0000000    -0.0000027     0.0000202
    -0.0000081     0.0000000     0.0000039    -0.0000026     0.0000101
     0.0000000     0.0000039     0.0000000    -0.0000037     0.0000000
    -0.0000027    -0.0000026    -0.0000037     0.0000000    -0.0000018
     0.0000202     0.0000101     0.0000000    -0.0000018     0.0000000
 l=   3
     0.0000000     0.0000000     0.0000000     0.0000000     0.0000000     0.0000000     0.0000000
     0.0000000     0.0000000     0.0000000     0.0000000     0.0000000     0.0000000     0.0000000
     0.0000000     0.0000000     0.0000000     0.0000000     0.0000000     0.0000000     0.0000000
     0.0000000     0.0000000     0.0000000     0.0000000     0.0000000     0.0000000     0.0000000
     0.0000000     0.0000000     0.0000000     0.0000000     0.0000000     0.0000000     0.0000000
     0.0000000     0.0000000     0.0000000     0.0000000     0.0000000     0.0000000     0.0000000
     0.0000000     0.0000000     0.0000000     0.0000000     0.0000000     0.0000000     0.0000000

 Ion:   87  E_soc:     -0.2774045
 l=   1
     0.0000000    -0.0474619    -0.0481818
    -0.0474619     0.0000000    -0.0430739
    -0.0481818    -0.0430739     0.0000000
 l=   2
     0.0000000    -0.0000081     0.0000000    -0.0000027     0.0000202
    -0.0000081     0.0000000     0.0000039    -0.0000026     0.0000101
     0.0000000     0.0000039     0.0000000    -0.0000037     0.0000000
    -0.0000027    -0.0000026    -0.0000037     0.0000000    -0.0000018
     0.0000202     0.0000101     0.0000000    -0.0000018     0.0000000
 l=   3
     0.0000000     0.0000000     0.0000000     0.0000000     0.0000000     0.0000000     0.0000000
     0.0000000     0.0000000     0.0000000     0.0000000     0.0000000     0.0000000     0.0000000
     0.0000000     0.0000000     0.0000000     0.0000000     0.0000000     0.0000000     0.0000000
     0.0000000     0.0000000     0.0000000     0.0000000     0.0000000     0.0000000     0.0000000
     0.0000000     0.0000000     0.0000000     0.0000000     0.0000000     0.0000000     0.0000000
     0.0000000     0.0000000     0.0000000     0.0000000     0.0000000     0.0000000     0.0000000
     0.0000000     0.0000000     0.0000000     0.0000000     0.0000000     0.0000000     0.0000000

 Ion:   88  E_soc:     -0.2819896
 l=   1
     0.0000000    -0.0490639    -0.0490323
    -0.0490639     0.0000000    -0.0429236
    -0.0490323    -0.0429236     0.0000000
 l=   2
     0.0000000    -0.0000105     0.0000000    -0.0000027     0.0000241
    -0.0000105     0.0000000     0.0000063    -0.0000022     0.0000143
     0.0000000     0.0000063     0.0000000    -0.0000031     0.0000000
    -0.0000027    -0.0000022    -0.0000031     0.0000000    -0.0000011
     0.0000241     0.0000143     0.0000000    -0.0000011     0.0000000
 l=   3
     0.0000000     0.0000000     0.0000000     0.0000000     0.0000000     0.0000000     0.0000000
     0.0000000     0.0000000     0.0000000     0.0000000     0.0000000     0.0000000     0.0000000
     0.0000000     0.0000000     0.0000000     0.0000000     0.0000000     0.0000000     0.0000000
     0.0000000     0.0000000     0.0000000     0.0000000     0.0000000     0.0000000     0.0000000
     0.0000000     0.0000000     0.0000000     0.0000000     0.0000000     0.0000000     0.0000000
     0.0000000     0.0000000     0.0000000     0.0000000     0.0000000     0.0000000     0.0000000
     0.0000000     0.0000000     0.0000000     0.0000000     0.0000000     0.0000000     0.0000000

 Ion:   89  E_soc:     -0.2857493
 l=   1
     0.0000000    -0.0430976    -0.0494802
    -0.0430976     0.0000000    -0.0503156
    -0.0494802    -0.0503156     0.0000000
 l=   2
     0.0000000    -0.0000018     0.0000000    -0.0000073     0.0000179
    -0.0000018     0.0000000    -0.0000022    -0.0000024    -0.0000016
     0.0000000    -0.0000022     0.0000000     0.0000046     0.0000000
    -0.0000073    -0.0000024     0.0000046     0.0000000     0.0000115
     0.0000179    -0.0000016     0.0000000     0.0000115     0.0000000
 l=   3
     0.0000000     0.0000000     0.0000000     0.0000000     0.0000000     0.0000000     0.0000000
     0.0000000     0.0000000     0.0000000     0.0000000     0.0000000     0.0000000     0.0000000
     0.0000000     0.0000000     0.0000000     0.0000000     0.0000000     0.0000000     0.0000000
     0.0000000     0.0000000     0.0000000     0.0000000     0.0000000     0.0000000     0.0000000
     0.0000000     0.0000000     0.0000000     0.0000000     0.0000000     0.0000000     0.0000000
     0.0000000     0.0000000     0.0000000     0.0000000     0.0000000     0.0000000     0.0000000
     0.0000000     0.0000000     0.0000000     0.0000000     0.0000000     0.0000000     0.0000000

 Ion:   90  E_soc:     -0.2857651
 l=   1
     0.0000000    -0.0430979    -0.0494852
    -0.0430979     0.0000000    -0.0503183
    -0.0494852    -0.0503183     0.0000000
 l=   2
     0.0000000    -0.0000018     0.0000000    -0.0000073     0.0000180
    -0.0000018     0.0000000    -0.0000022    -0.0000024    -0.0000016
     0.0000000    -0.0000022     0.0000000     0.0000046     0.0000000
    -0.0000073    -0.0000024     0.0000046     0.0000000     0.0000115
     0.0000180    -0.0000016     0.0000000     0.0000115     0.0000000
 l=   3
     0.0000000     0.0000000     0.0000000     0.0000000     0.0000000     0.0000000     0.0000000
     0.0000000     0.0000000     0.0000000     0.0000000     0.0000000     0.0000000     0.0000000
     0.0000000     0.0000000     0.0000000     0.0000000     0.0000000     0.0000000     0.0000000
     0.0000000     0.0000000     0.0000000     0.0000000     0.0000000     0.0000000     0.0000000
     0.0000000     0.0000000     0.0000000     0.0000000     0.0000000     0.0000000     0.0000000
     0.0000000     0.0000000     0.0000000     0.0000000     0.0000000     0.0000000     0.0000000
     0.0000000     0.0000000     0.0000000     0.0000000     0.0000000     0.0000000     0.0000000

 Ion:   91  E_soc:     -0.2857651
 l=   1
     0.0000000    -0.0430979    -0.0494852
    -0.0430979     0.0000000    -0.0503183
    -0.0494852    -0.0503183     0.0000000
 l=   2
     0.0000000    -0.0000018     0.0000000    -0.0000073     0.0000180
    -0.0000018     0.0000000    -0.0000022    -0.0000024    -0.0000016
     0.0000000    -0.0000022     0.0000000     0.0000046     0.0000000
    -0.0000073    -0.0000024     0.0000046     0.0000000     0.0000115
     0.0000180    -0.0000016     0.0000000     0.0000115     0.0000000
 l=   3
     0.0000000     0.0000000     0.0000000     0.0000000     0.0000000     0.0000000     0.0000000
     0.0000000     0.0000000     0.0000000     0.0000000     0.0000000     0.0000000     0.0000000
     0.0000000     0.0000000     0.0000000     0.0000000     0.0000000     0.0000000     0.0000000
     0.0000000     0.0000000     0.0000000     0.0000000     0.0000000     0.0000000     0.0000000
     0.0000000     0.0000000     0.0000000     0.0000000     0.0000000     0.0000000     0.0000000
     0.0000000     0.0000000     0.0000000     0.0000000     0.0000000     0.0000000     0.0000000
     0.0000000     0.0000000     0.0000000     0.0000000     0.0000000     0.0000000     0.0000000

 Ion:   92  E_soc:     -0.2857493
 l=   1
     0.0000000    -0.0430976    -0.0494802
    -0.0430976     0.0000000    -0.0503156
    -0.0494802    -0.0503156     0.0000000
 l=   2
     0.0000000    -0.0000018     0.0000000    -0.0000073     0.0000179
    -0.0000018     0.0000000    -0.0000022    -0.0000024    -0.0000016
     0.0000000    -0.0000022     0.0000000     0.0000046     0.0000000
    -0.0000073    -0.0000024     0.0000046     0.0000000     0.0000115
     0.0000179    -0.0000016     0.0000000     0.0000115     0.0000000
 l=   3
     0.0000000     0.0000000     0.0000000     0.0000000     0.0000000     0.0000000     0.0000000
     0.0000000     0.0000000     0.0000000     0.0000000     0.0000000     0.0000000     0.0000000
     0.0000000     0.0000000     0.0000000     0.0000000     0.0000000     0.0000000     0.0000000
     0.0000000     0.0000000     0.0000000     0.0000000     0.0000000     0.0000000     0.0000000
     0.0000000     0.0000000     0.0000000     0.0000000     0.0000000     0.0000000     0.0000000
     0.0000000     0.0000000     0.0000000     0.0000000     0.0000000     0.0000000     0.0000000
     0.0000000     0.0000000     0.0000000     0.0000000     0.0000000     0.0000000     0.0000000

 Ion:   93  E_soc:     -0.2857493
 l=   1
     0.0000000    -0.0430976    -0.0494802
    -0.0430976     0.0000000    -0.0503156
    -0.0494802    -0.0503156     0.0000000
 l=   2
     0.0000000    -0.0000018     0.0000000    -0.0000073     0.0000179
    -0.0000018     0.0000000    -0.0000022    -0.0000024    -0.0000016
     0.0000000    -0.0000022     0.0000000     0.0000046     0.0000000
    -0.0000073    -0.0000024     0.0000046     0.0000000     0.0000115
     0.0000179    -0.0000016     0.0000000     0.0000115     0.0000000
 l=   3
     0.0000000     0.0000000     0.0000000     0.0000000     0.0000000     0.0000000     0.0000000
     0.0000000     0.0000000     0.0000000     0.0000000     0.0000000     0.0000000     0.0000000
     0.0000000     0.0000000     0.0000000     0.0000000     0.0000000     0.0000000     0.0000000
     0.0000000     0.0000000     0.0000000     0.0000000     0.0000000     0.0000000     0.0000000
     0.0000000     0.0000000     0.0000000     0.0000000     0.0000000     0.0000000     0.0000000
     0.0000000     0.0000000     0.0000000     0.0000000     0.0000000     0.0000000     0.0000000
     0.0000000     0.0000000     0.0000000     0.0000000     0.0000000     0.0000000     0.0000000

 Ion:   94  E_soc:     -0.2857651
 l=   1
     0.0000000    -0.0430979    -0.0494852
    -0.0430979     0.0000000    -0.0503183
    -0.0494852    -0.0503183     0.0000000
 l=   2
     0.0000000    -0.0000018     0.0000000    -0.0000073     0.0000180
    -0.0000018     0.0000000    -0.0000022    -0.0000024    -0.0000016
     0.0000000    -0.0000022     0.0000000     0.0000046     0.0000000
    -0.0000073    -0.0000024     0.0000046     0.0000000     0.0000115
     0.0000180    -0.0000016     0.0000000     0.0000115     0.0000000
 l=   3
     0.0000000     0.0000000     0.0000000     0.0000000     0.0000000     0.0000000     0.0000000
     0.0000000     0.0000000     0.0000000     0.0000000     0.0000000     0.0000000     0.0000000
     0.0000000     0.0000000     0.0000000     0.0000000     0.0000000     0.0000000     0.0000000
     0.0000000     0.0000000     0.0000000     0.0000000     0.0000000     0.0000000     0.0000000
     0.0000000     0.0000000     0.0000000     0.0000000     0.0000000     0.0000000     0.0000000
     0.0000000     0.0000000     0.0000000     0.0000000     0.0000000     0.0000000     0.0000000
     0.0000000     0.0000000     0.0000000     0.0000000     0.0000000     0.0000000     0.0000000

 Ion:   95  E_soc:     -0.2857651
 l=   1
     0.0000000    -0.0430979    -0.0494852
    -0.0430979     0.0000000    -0.0503183
    -0.0494852    -0.0503183     0.0000000
 l=   2
     0.0000000    -0.0000018     0.0000000    -0.0000073     0.0000180
    -0.0000018     0.0000000    -0.0000022    -0.0000024    -0.0000016
     0.0000000    -0.0000022     0.0000000     0.0000046     0.0000000
    -0.0000073    -0.0000024     0.0000046     0.0000000     0.0000115
     0.0000180    -0.0000016     0.0000000     0.0000115     0.0000000
 l=   3
     0.0000000     0.0000000     0.0000000     0.0000000     0.0000000     0.0000000     0.0000000
     0.0000000     0.0000000     0.0000000     0.0000000     0.0000000     0.0000000     0.0000000
     0.0000000     0.0000000     0.0000000     0.0000000     0.0000000     0.0000000     0.0000000
     0.0000000     0.0000000     0.0000000     0.0000000     0.0000000     0.0000000     0.0000000
     0.0000000     0.0000000     0.0000000     0.0000000     0.0000000     0.0000000     0.0000000
     0.0000000     0.0000000     0.0000000     0.0000000     0.0000000     0.0000000     0.0000000
     0.0000000     0.0000000     0.0000000     0.0000000     0.0000000     0.0000000     0.0000000

 Ion:   96  E_soc:     -0.2857493
 l=   1
     0.0000000    -0.0430976    -0.0494802
    -0.0430976     0.0000000    -0.0503156
    -0.0494802    -0.0503156     0.0000000
 l=   2
     0.0000000    -0.0000018     0.0000000    -0.0000073     0.0000179
    -0.0000018     0.0000000    -0.0000022    -0.0000024    -0.0000016
     0.0000000    -0.0000022     0.0000000     0.0000046     0.0000000
    -0.0000073    -0.0000024     0.0000046     0.0000000     0.0000115
     0.0000179    -0.0000016     0.0000000     0.0000115     0.0000000
 l=   3
     0.0000000     0.0000000     0.0000000     0.0000000     0.0000000     0.0000000     0.0000000
     0.0000000     0.0000000     0.0000000     0.0000000     0.0000000     0.0000000     0.0000000
     0.0000000     0.0000000     0.0000000     0.0000000     0.0000000     0.0000000     0.0000000
     0.0000000     0.0000000     0.0000000     0.0000000     0.0000000     0.0000000     0.0000000
     0.0000000     0.0000000     0.0000000     0.0000000     0.0000000     0.0000000     0.0000000
     0.0000000     0.0000000     0.0000000     0.0000000     0.0000000     0.0000000     0.0000000
     0.0000000     0.0000000     0.0000000     0.0000000     0.0000000     0.0000000     0.0000000

 total amount of memory used by VASP on root node   392927. kBytes
========================================================================

   base      :      30000. kBytes
   nonl-proj :      73667. kBytes
   fftplans  :      22714. kBytes
   grid      :      35610. kBytes
   one-center:        248. kBytes
   wavefun   :     230688. kBytes
 
  
  
 General timing and accounting informations for this job:
 ========================================================
  
                  Total CPU time used (sec):     9342.000
                            User time (sec):     9327.455
                          System time (sec):       14.545
                         Elapsed time (sec):     9368.688
  
                   Maximum memory used (kb):      413384.
                   Average memory used (kb):           0.
  
                          Minor page faults:       622693
                          Major page faults:            0
                 Voluntary context switches:        14900
