 running on  192 total cores
 distrk:  each k-point on  192 cores,    1 groups
 distr:  one band on   24 cores,    8 groups
 using from now: INCAR     
 vasp.5.4.1 24Jun15 (build Nov 25 2015 16:39:35) complex                        
  
 POSCAR found type information on POSCAR  C  N  H  Pb I 
 POSCAR found :  5 types and      96 ions
 scaLAPACK will be used

 ----------------------------------------------------------------------------- 
|                                                                             |
|  ADVICE TO THIS USER RUNNING 'VASP/VAMP'   (HEAR YOUR MASTER'S VOICE ...):  |
|                                                                             |
|      You have a (more or less) 'large supercell' and for larger cells       |
|      it might be more efficient to use real space projection opertators     |
|      So try LREAL= Auto  in the INCAR   file.                               |
|      Mind: At the moment your POTCAR file does not contain real space       |
|       projectors, and has to be modified,  BUT if you                       |
|      want to do an extremely  accurate calculation you might also keep the  |
|      reciprocal projection scheme          (i.e. LREAL=.FALSE.)             |
|                                                                             |
 ----------------------------------------------------------------------------- 


 ----------------------------------------------------------------------------- 
|                                                                             |
|  ADVICE TO THIS USER RUNNING 'VASP/VAMP'   (HEAR YOUR MASTER'S VOICE ...):  |
|                                                                             |
|      You enforced a specific xc-type in the INCAR file,                     |
|      a different type was found on the POTCAR file                          |
|          I HOPE YOU KNOW, WHAT YOU ARE  DOING                               |
|                                                                             |
 ----------------------------------------------------------------------------- 

 LDA part: xc-table for Pade appr. of Perdew
 POSCAR, INCAR and KPOINTS ok, starting setup
 WARNING: small aliasing (wrap around) errors must be expected
 FFT: planning ...
 WAVECAR not read
 entering main loop
       N       E                     dE             d eps       ncg     rms          rms(c)
DAV:   1     0.421962736256E+04    0.42196E+04   -0.19284E+05 32544   0.146E+03
DAV:   2     0.841566382845E+03   -0.33781E+04   -0.31284E+04 35600   0.322E+02
DAV:   3     0.233027253215E+03   -0.60854E+03   -0.58836E+03 43920   0.156E+02
DAV:   4     0.187332448321E+03   -0.45695E+02   -0.44644E+02 44096   0.438E+01
DAV:   5     0.185129822963E+03   -0.22026E+01   -0.21900E+01 50432   0.991E+00    0.975E+01
DAV:   6     0.548115311809E+02   -0.13032E+03   -0.15189E+03 37304   0.505E+01    0.482E+01
DAV:   7    -0.943145211455E+02   -0.14913E+03   -0.16074E+02 39200   0.218E+01    0.283E+01
DAV:   8    -0.202288691501E+03   -0.10797E+03   -0.64865E+01 37488   0.130E+01    0.184E+01
DAV:   9    -0.332635022956E+03   -0.13035E+03   -0.11950E+02 36416   0.161E+01    0.916E+00
DAV:  10    -0.382170699057E+03   -0.49536E+02   -0.51466E+01 37424   0.105E+01    0.668E+00
DAV:  11    -0.410115034184E+03   -0.27944E+02   -0.38343E+01 38432   0.818E+00    0.385E+00
DAV:  12    -0.420812595396E+03   -0.10698E+02   -0.15995E+01 39648   0.546E+00    0.250E+00
DAV:  13    -0.422777205467E+03   -0.19646E+01   -0.28456E+00 40584   0.263E+00    0.207E+00
DAV:  14    -0.423375542883E+03   -0.59834E+00   -0.81911E-01 39080   0.133E+00    0.119E+00
DAV:  15    -0.423479801912E+03   -0.10426E+00   -0.23255E-01 40192   0.762E-01    0.664E-01
DAV:  16    -0.423489238296E+03   -0.94364E-02   -0.35069E-02 42864   0.348E-01    0.427E-01
DAV:  17    -0.423492680602E+03   -0.34423E-02   -0.97999E-03 39144   0.167E-01    0.237E-01
DAV:  18    -0.423494589672E+03   -0.19091E-02   -0.27773E-03 39848   0.922E-02    0.812E-02
DAV:  19    -0.423495137405E+03   -0.54773E-03   -0.72894E-04 40024   0.540E-02    0.457E-02
DAV:  20    -0.423495419421E+03   -0.28202E-03   -0.22103E-04 38296   0.281E-02    0.249E-02
DAV:  21    -0.423495593721E+03   -0.17430E-03   -0.15960E-04 36904   0.202E-02    0.163E-02
DAV:  22    -0.423495610120E+03   -0.16399E-04   -0.21486E-05 43088   0.884E-03    0.102E-02
DAV:  23    -0.423495613148E+03   -0.30281E-05   -0.84226E-06 39040   0.430E-03    0.430E-03
DAV:  24    -0.423495616781E+03   -0.36332E-05   -0.35086E-06 37392   0.328E-03    0.205E-03
DAV:  25    -0.423495616937E+03   -0.15521E-06   -0.80494E-07 39848   0.154E-03    0.109E-03
DAV:  26    -0.423495616950E+03   -0.13835E-07   -0.14145E-07 41848   0.749E-04    0.912E-04
DAV:  27    -0.423495616892E+03    0.58732E-07   -0.26432E-08 36728   0.344E-04    0.383E-04
DAV:  28    -0.423495616821E+03    0.71061E-07   -0.21586E-08 31088   0.281E-04    0.221E-04
DAV:  29    -0.423495616802E+03    0.18907E-07   -0.43186E-09 28368   0.154E-04    0.149E-04
DAV:  30    -0.423495616812E+03   -0.10084E-07   -0.15204E-09 27288   0.145E-04    0.605E-05
DAV:  31    -0.423495616817E+03   -0.56461E-08   -0.61382E-10 23040   0.976E-05
   1 F= -.42349562E+03 E0= -.42349562E+03  d E =0.000000E+00  mag=     0.0000     0.0000     0.0000
Application 22254256 resources: utime ~1793772s, stime ~2901s, Rss ~417092, inblocks ~2743738, outblocks ~4030597
