 vasp.5.3.5 31Mar14 (build Apr 15 2015 10:45:18) complex                        
  
 executed on             LinuxIFC date 2016.02.17  12:31:01
 running on  256 total cores
 distrk:  each k-point on   16 cores,   16 groups
 distr:  one band on NCORES_PER_BAND=   4 cores,    4 groups


--------------------------------------------------------------------------------------------------------


 INCAR:
 POTCAR:    PAW_PBE C 08Apr2002                   
 POTCAR:    PAW_PBE N 08Apr2002                   
 POTCAR:    PAW_PBE H 15Jun2001                   
 POTCAR:    PAW_PBE Pb_d 06Sep2000                
 POTCAR:    PAW_PBE I 08Apr2002                   

 ----------------------------------------------------------------------------- 
|                                                                             |
|           W    W    AA    RRRRR   N    N  II  N    N   GGGG   !!!           |
|           W    W   A  A   R    R  NN   N  II  NN   N  G    G  !!!           |
|           W    W  A    A  R    R  N N  N  II  N N  N  G       !!!           |
|           W WW W  AAAAAA  RRRRR   N  N N  II  N  N N  G  GGG   !            |
|           WW  WW  A    A  R   R   N   NN  II  N   NN  G    G                |
|           W    W  A    A  R    R  N    N  II  N    N   GGGG   !!!           |
|                                                                             |
|      For optimal performance we recommend to set                            |
|        NCORE= 4 - approx SQRT( number of cores)                             |
|      NCORE specifies how many cores store one orbital (NPAR=cpu/NCORE).     |
|      This setting can  greatly improve the performance of VASP for DFT.     |
|      The default, NPAR=number of cores might be grossly inefficient         |
|      on modern multi-core architectures or massively parallel machines.     |
|      Do your own testing !!!!                                               |
|      Unfortunately you need to use the default for GW and RPA calculations. |
|      (for HF NCORE is supported but not extensively tested yet)             |
|                                                                             |
 ----------------------------------------------------------------------------- 


 ----------------------------------------------------------------------------- 
|                                                                             |
|           W    W    AA    RRRRR   N    N  II  N    N   GGGG   !!!           |
|           W    W   A  A   R    R  NN   N  II  NN   N  G    G  !!!           |
|           W    W  A    A  R    R  N N  N  II  N N  N  G       !!!           |
|           W WW W  AAAAAA  RRRRR   N  N N  II  N  N N  G  GGG   !            |
|           WW  WW  A    A  R   R   N   NN  II  N   NN  G    G                |
|           W    W  A    A  R    R  N    N  II  N    N   GGGG   !!!           |
|                                                                             |
|      You have enabled k-point parallelism (KPAR>1).                         |
|      This developmental code was originally  written by Paul Kent at ORNL,  |
|      and carefully double checked in Vienna.                                |
|      GW as well as linear response parallelism added by Martijn Marsman     |
|      and Georg Kresse.                                                      |
|      Carefully verify results versus KPAR=1.                                |
|      Report problems to Paul Kent and Vienna.                               |
|                                                                             |
 ----------------------------------------------------------------------------- 


 ----------------------------------------------------------------------------- 
|                                                                             |
|           W    W    AA    RRRRR   N    N  II  N    N   GGGG   !!!           |
|           W    W   A  A   R    R  NN   N  II  NN   N  G    G  !!!           |
|           W    W  A    A  R    R  N N  N  II  N N  N  G       !!!           |
|           W WW W  AAAAAA  RRRRR   N  N N  II  N  N N  G  GGG   !            |
|           WW  WW  A    A  R   R   N   NN  II  N   NN  G    G                |
|           W    W  A    A  R    R  N    N  II  N    N   GGGG   !!!           |
|                                                                             |
|      You have selected ISYM=2 for HF type calculation. This will symmetrize |
|      the charge density but not the exchange potential.                     |
|      I suggest to use ISYM=3 instead. This uses symmetry to obtain          |
|      the orbitals at all k-points in the Brillouine zone, but does not      |
|      apply symmetry to the Hartree potential directly.                      |
|      The resultant charge might have lower symmetry than the crystal,       |
|      but at least, Hartree and exchange are fully compatible.               |
|                                                                             |
 ----------------------------------------------------------------------------- 

 POTCAR:    PAW_PBE C 08Apr2002                   
   VRHFIN =C: s2p2                                                              
   LEXCH  = PE                                                                  
   EATOM  =   147.1560 eV,   10.8157 Ry                                         
                                                                                
   TITEL  = PAW_PBE C 08Apr2002                                                 
   LULTRA =        F    use ultrasoft PP ?                                      
   IUNSCR =        1    unscreen: 0-lin 1-nonlin 2-no                           
   RPACOR =    1.200    partial core radius                                     
   POMASS =   12.011; ZVAL   =    4.000    mass and valenz                      
   RCORE  =    1.500    outmost cutoff radius                                   
   RWIGS  =    1.630; RWIGS  =    0.863    wigner-seitz radius (au A)           
   ENMAX  =  400.000; ENMIN  =  300.000 eV                                      
   ICORE  =        2    local potential                                         
   LCOR   =        T    correct aug charges                                     
   LPAW   =        T    paw PP                                                  
   EAUG   =  644.873                                                            
   DEXC   =    0.000                                                            
   RMAX   =    1.529    core radius for proj-oper                               
   RAUG   =    1.300    factor for augmentation sphere                          
   RDEP   =    1.501    radius for radial grids                                 
   RDEPT  =    1.300    core radius for aug-charge                              
                                                                                
   Atomic configuration                                                         
    4 entries                                                                   
     n  l   j            E        occ.                                          
     1  0  0.50      -273.3789   2.0000                                         
     2  0  0.50       -13.7508   2.0000                                         
     2  1  0.50        -5.2854   2.0000                                         
     3  2  1.50        -5.4423   0.0000                                         
   Description                                                                  
     l       E           TYP  RCUT    TYP  RCUT                                 
     0    -13.7508458     23  1.200                                             
     0     -8.2022199     23  1.200                                             
     1     -5.2854383     23  1.500                                             
     1     34.0145650     23  1.500                                             
     2     -5.4423304      7  1.500                                             
  local pseudopotential read in
  partial core-charges read in
  partial kinetic energy density read in
  atomic valenz-charges read in
  non local Contribution for L=           0  read in
    real space projection operators read in
  non local Contribution for L=           0  read in
    real space projection operators read in
  non local Contribution for L=           1  read in
    real space projection operators read in
  non local Contribution for L=           1  read in
    real space projection operators read in
    PAW grid and wavefunctions read in
 
   number of l-projection  operators is LMAX  =           4
   number of lm-projection operators is LMMAX =           8
 
 POTCAR:    PAW_PBE N 08Apr2002                   
   VRHFIN =N: s2p3                                                              
   LEXCH  = PE                                                                  
   EATOM  =   264.5486 eV,   19.4438 Ry                                         
                                                                                
   TITEL  = PAW_PBE N 08Apr2002                                                 
   LULTRA =        F    use ultrasoft PP ?                                      
   IUNSCR =        1    unscreen: 0-lin 1-nonlin 2-no                           
   RPACOR =    1.200    partial core radius                                     
   POMASS =   14.001; ZVAL   =    5.000    mass and valenz                      
   RCORE  =    1.500    outmost cutoff radius                                   
   RWIGS  =    1.400; RWIGS  =    0.741    wigner-seitz radius (au A)           
   ENMAX  =  400.000; ENMIN  =  300.000 eV                                      
   ICORE  =        2    local potential                                         
   LCOR   =        T    correct aug charges                                     
   LPAW   =        T    paw PP                                                  
   EAUG   =  627.112                                                            
   DEXC   =    0.000                                                            
   RMAX   =    1.529    core radius for proj-oper                               
   RAUG   =    1.300    factor for augmentation sphere                          
   RDEP   =    1.514    radius for radial grids                                 
   RDEPT  =    1.338    core radius for aug-charge                              
                                                                                
   Atomic configuration                                                         
    4 entries                                                                   
     n  l   j            E        occ.                                          
     1  0  0.50      -384.7179   2.0000                                         
     2  0  0.50       -18.5828   2.0000                                         
     2  1  0.50        -7.0898   3.0000                                         
     3  2  1.50        -6.8029   0.0000                                         
   Description                                                                  
     l       E           TYP  RCUT    TYP  RCUT                                 
     0    -18.5828119     23  1.200                                             
     0    -13.5018863     23  1.200                                             
     1     -7.0897853     23  1.500                                             
     1      9.5240782     23  1.500                                             
     2     -6.8029130      7  1.500                                             
  local pseudopotential read in
  partial core-charges read in
  partial kinetic energy density read in
  atomic valenz-charges read in
  non local Contribution for L=           0  read in
    real space projection operators read in
  non local Contribution for L=           0  read in
    real space projection operators read in
  non local Contribution for L=           1  read in
    real space projection operators read in
  non local Contribution for L=           1  read in
    real space projection operators read in
    PAW grid and wavefunctions read in
 
   number of l-projection  operators is LMAX  =           4
   number of lm-projection operators is LMMAX =           8
 
 POTCAR:    PAW_PBE H 15Jun2001                   
   VRHFIN =H: ultrasoft test                                                    
   LEXCH  = PE                                                                  
   EATOM  =    12.4884 eV,    0.9179 Ry                                         
                                                                                
   TITEL  = PAW_PBE H 15Jun2001                                                 
   LULTRA =        F    use ultrasoft PP ?                                      
   IUNSCR =        0    unscreen: 0-lin 1-nonlin 2-no                           
   RPACOR =    0.000    partial core radius                                     
   POMASS =    1.000; ZVAL   =    1.000    mass and valenz                      
   RCORE  =    1.100    outmost cutoff radius                                   
   RWIGS  =    0.700; RWIGS  =    0.370    wigner-seitz radius (au A)           
   ENMAX  =  250.000; ENMIN  =  200.000 eV                                      
   RCLOC  =    0.701    cutoff for local pot                                    
   LCOR   =        T    correct aug charges                                     
   LPAW   =        T    paw PP                                                  
   EAUG   =  400.000                                                            
   RMAX   =    1.123    core radius for proj-oper                               
   RAUG   =    1.200    factor for augmentation sphere                          
   RDEP   =    1.112    radius for radial grids                                 
   RDEPT  =    0.926    core radius for aug-charge                              
                                                                                
   Atomic configuration                                                         
    2 entries                                                                   
     n  l   j            E        occ.                                          
     1  0  0.50        -6.4927   1.0000                                         
     2  1  0.50        -3.4015   0.0000                                         
   Description                                                                  
     l       E           TYP  RCUT    TYP  RCUT                                 
     0     -6.4927494     23  1.100                                             
     0      6.8029130     23  1.100                                             
     1     -4.0817478     23  1.100                                             
  local pseudopotential read in
  atomic valenz-charges read in
  non local Contribution for L=           0  read in
    real space projection operators read in
  non local Contribution for L=           0  read in
    real space projection operators read in
  non local Contribution for L=           1  read in
    real space projection operators read in
    PAW grid and wavefunctions read in
 
   number of l-projection  operators is LMAX  =           3
   number of lm-projection operators is LMMAX =           5
 
 POTCAR:    PAW_PBE Pb_d 06Sep2000                
   VRHFIN =Pb:                                                                  
   LEXCH  = PE                                                                  
   EATOM  =  1661.6185 eV,  122.1255 Ry                                         
                                                                                
   TITEL  = PAW_PBE Pb_d 06Sep2000                                              
   LULTRA =        F    use ultrasoft PP ?                                      
   IUNSCR =        1    unscreen: 0-lin 1-nonlin 2-no                           
   RPACOR =    2.200    partial core radius                                     
   POMASS =  207.200; ZVAL   =   14.000    mass and valenz                      
   RCORE  =    2.500    outmost cutoff radius                                   
   RWIGS  =    3.260; RWIGS  =    1.725    wigner-seitz radius (au A)           
   ENMAX  =  237.835; ENMIN  =  178.376 eV                                      
   ICORE  =        3    local potential                                         
   LCOR   =        T    correct aug charges                                     
   LPAW   =        T    paw PP                                                  
   EAUG   =  391.914                                                            
   DEXC   =    0.000                                                            
   RMAX   =    2.565    core radius for proj-oper                               
   RAUG   =    1.300    factor for augmentation sphere                          
   RDEP   =    2.643    radius for radial grids                                 
   RDEPT  =    2.092    core radius for aug-charge                              
                                                                                
   Atomic configuration                                                         
   16 entries                                                                   
     n  l   j            E        occ.                                          
     1  0  0.50    -88091.8466   2.0000                                         
     2  0  0.50    -15753.4197   2.0000                                         
     2  1  1.50    -13508.1797   6.0000                                         
     3  0  0.50     -3781.7194   2.0000                                         
     3  1  1.50     -3138.2529   6.0000                                         
     3  2  2.50     -2483.2977  10.0000                                         
     4  0  0.50      -856.2895   2.0000                                         
     4  1  1.50      -645.4942   6.0000                                         
     4  2  2.50      -401.8768  10.0000                                         
     4  3  3.50      -132.9059  14.0000                                         
     5  0  0.50      -144.0950   2.0000                                         
     5  1  1.50       -85.7879   6.0000                                         
     5  2  2.50       -21.1769  10.0000                                         
     6  0  0.50       -12.0372   2.0000                                         
     6  1  1.50        -3.4971   2.0000                                         
     5  3  2.50        -2.7212   0.0000                                         
   Description                                                                  
     l       E           TYP  RCUT    TYP  RCUT                                 
     2    -21.1768523     23  2.500                                             
     2      1.3605826     23  2.500                                             
     0    -12.0371562     23  2.500                                             
     0     13.6058260     23  2.500                                             
     1     -3.4971339     23  2.500                                             
     1     13.6058260     23  2.500                                             
     3     -1.3605826      7  2.500                                             
  local pseudopotential read in
  partial core-charges read in
  partial kinetic energy density read in
  atomic valenz-charges read in
  non local Contribution for L=           2  read in
    real space projection operators read in
  non local Contribution for L=           2  read in
    real space projection operators read in
  non local Contribution for L=           0  read in
    real space projection operators read in
  non local Contribution for L=           0  read in
    real space projection operators read in
  non local Contribution for L=           1  read in
    real space projection operators read in
  non local Contribution for L=           1  read in
    real space projection operators read in
    PAW grid and wavefunctions read in
 
   number of l-projection  operators is LMAX  =           6
   number of lm-projection operators is LMMAX =          18
 
 POTCAR:    PAW_PBE I 08Apr2002                   
   VRHFIN =I : s2p5                                                             
   LEXCH  = PE                                                                  
   EATOM  =   315.8678 eV,   23.2156 Ry                                         
                                                                                
   TITEL  = PAW_PBE I 08Apr2002                                                 
   LULTRA =        F    use ultrasoft PP ?                                      
   IUNSCR =        1    unscreen: 0-lin 1-nonlin 2-no                           
   RPACOR =    2.200    partial core radius                                     
   POMASS =  126.904; ZVAL   =    7.000    mass and valenz                      
   RCORE  =    2.300    outmost cutoff radius                                   
   RWIGS  =    2.810; RWIGS  =    1.487    wigner-seitz radius (au A)           
   ENMAX  =  175.647; ENMIN  =  131.735 eV                                      
   ICORE  =        3    local potential                                         
   LCOR   =        T    correct aug charges                                     
   LPAW   =        T    paw PP                                                  
   EAUG   =  370.139                                                            
   DEXC   =    0.000                                                            
   RMAX   =    2.359    core radius for proj-oper                               
   RAUG   =    1.300    factor for augmentation sphere                          
   RDEP   =    2.392    radius for radial grids                                 
   RDEPT  =    2.170    core radius for aug-charge                              
                                                                                
   Atomic configuration                                                         
   13 entries                                                                   
     n  l   j            E        occ.                                          
     1  0  0.50    -32976.3739   2.0000                                         
     2  0  0.50     -5094.5933   2.0000                                         
     2  1  1.50     -4572.0131   6.0000                                         
     3  0  0.50     -1028.2813   2.0000                                         
     3  1  1.50      -859.0250   6.0000                                         
     3  2  2.50      -605.7620  10.0000                                         
     4  0  0.50      -180.5540   2.0000                                         
     4  1  1.50      -127.5306   6.0000                                         
     4  2  2.50       -50.2720  10.0000                                         
     5  0  0.50       -17.4058   2.0000                                         
     5  1  0.50        -7.0851   5.0000                                         
     5  2  1.50        -7.0750   0.0000                                         
     4  3  2.50        -7.0750   0.0000                                         
   Description                                                                  
     l       E           TYP  RCUT    TYP  RCUT                                 
     0    -17.4058016     23  2.300                                             
     0    -18.7663842     23  2.300                                             
     1     -7.0850686     23  2.300                                             
     1     -4.2150896     23  2.300                                             
     2     -7.0750295     23  2.300                                             
     3     -1.3605826     23  2.300                                             
  local pseudopotential read in
  partial core-charges read in
  partial kinetic energy density read in
  atomic valenz-charges read in
  non local Contribution for L=           0  read in
    real space projection operators read in
  non local Contribution for L=           0  read in
    real space projection operators read in
  non local Contribution for L=           1  read in
    real space projection operators read in
  non local Contribution for L=           1  read in
    real space projection operators read in
  non local Contribution for L=           2  read in
    real space projection operators read in
    PAW grid and wavefunctions read in
 
   number of l-projection  operators is LMAX  =           5
   number of lm-projection operators is LMMAX =          13
 
  PAW_PBE C 08Apr2002                   :
 energy of atom  1       EATOM= -147.1560
 kinetic energy error for atom=    0.0076 (will be added to EATOM!!)
  PAW_PBE N 08Apr2002                   :
 energy of atom  2       EATOM= -264.5486
 kinetic energy error for atom=    0.0138 (will be added to EATOM!!)
  PAW_PBE H 15Jun2001                   :
 energy of atom  3       EATOM=  -12.4884
 kinetic energy error for atom=    0.0020 (will be added to EATOM!!)
  PAW_PBE Pb_d 06Sep2000                :
 energy of atom  4       EATOM=-1661.6185
 kinetic energy error for atom=    0.0047 (will be added to EATOM!!)
  PAW_PBE I 08Apr2002                   :
 energy of atom  5       EATOM= -315.8678
 kinetic energy error for atom=    0.0009 (will be added to EATOM!!)
 
 
 POSCAR: MA-Pb-I (Github: hybrid-perovskites/2014
  positions in direct lattice
  velocities in cartesian coordinates
 exchange correlation table for  LEXCH =        8
   RHO(1)=    0.500       N(1)  =     2000
   RHO(2)=  100.500       N(2)  =     4000
 


--------------------------------------------------------------------------------------------------------


 ion  position               nearest neighbor table
   1  0.903  1.000  0.996-   3 1.10   5 1.10   4 1.10   2 1.48
   2  0.137  1.000  0.025-   6 1.04   7 1.04   8 1.05   1 1.48
   3  0.865  1.000  0.826-   1 1.10
   4  0.838  0.144  0.072-   1 1.10
   5  0.838  0.857  0.072-   1 1.10
   6  0.208  0.134  0.958-   2 1.04
   7  0.207  0.865  0.958-   2 1.04
   8  0.182  0.000  0.185-   2 1.05
   9  0.476  0.500  0.476-  12 3.07  10 3.15  11 3.15  11 3.15  10 3.18  12 3.23
  10  0.427  0.500  0.973-   9 3.15   9 3.18
  11  0.436  0.000  0.507-   9 3.15   9 3.15
  12  0.963  0.500  0.448-   9 3.07   9 3.23
 
  LATTYP: Found a simple monoclinic cell.
 ALAT       =     6.2901201248
 B/A-ratio  =     0.9974197462
 C/A-ratio  =     1.4105278383
 COS(beta)  =    -0.7044835581
  
  Lattice vectors:
  
 A1 = (  -6.2901201248,   0.0000000000,   0.0000000000)
 A2 = (  -0.0000776940,  -6.2738900180,   0.0000000000)
 A3 = (   6.2504525538,  -0.0001537931,   6.2969150416)


Analysis of symmetry for initial positions (statically):
=====================================================================
 Subroutine PRICEL returns:
 Original cell was already a primitive cell.
 

 Routine SETGRP: Setting up the symmetry group for a 
 simple monoclinic supercell.


 Subroutine GETGRP returns: Found  1 space group operations
 (whereof  1 operations were pure point group operations)
 out of a pool of  4 trial point group operations.


The static configuration has the point symmetry C_1 .


Analysis of symmetry for dynamics (positions and initial velocities):
=====================================================================
 Subroutine PRICEL returns:
 Original cell was already a primitive cell.
 

 Routine SETGRP: Setting up the symmetry group for a 
 simple monoclinic supercell.


 Subroutine GETGRP returns: Found  1 space group operations
 (whereof  1 operations were pure point group operations)
 out of a pool of  4 trial point group operations.


The dynamic configuration has the point symmetry C_1 .
 
 
 KPOINTS: Automatically generated mesh            
  k-points in reciprocal lattice
Space group operators:
 irot       det(A)        alpha          n_x          n_y          n_z        tau_x        tau_y        tau_z
    1     1.000000     0.000000     1.000000     0.000000     0.000000     0.000000     0.000000     0.000000

 ----------------------------------------------------------------------------- 
|                                                                             |
|           W    W    AA    RRRRR   N    N  II  N    N   GGGG   !!!           |
|           W    W   A  A   R    R  NN   N  II  NN   N  G    G  !!!           |
|           W    W  A    A  R    R  N N  N  II  N N  N  G       !!!           |
|           W WW W  AAAAAA  RRRRR   N  N N  II  N  N N  G  GGG   !            |
|           WW  WW  A    A  R   R   N   NN  II  N   NN  G    G                |
|           W    W  A    A  R    R  N    N  II  N    N   GGGG   !!!           |
|                                                                             |
|      Your generating k-point grid is not commensurate to the symmetry       |
|      of the lattice.  This can cause   slow convergence with respect        |
|      to k-points for HF type calculations                                   |
|      suggested SOLUTIONS:                                                   |
|       ) if not already the case, use automatic k-point generation           |
|       ) shift your grid to Gamma (G) (e.g. required for hex or fcc lattice) |
|                                                                             |
 ----------------------------------------------------------------------------- 

 
 Subroutine IBZKPT_HF returns following result:
 ==============================================
 
 Found    868 k-points in 1st BZ
 the following    868 k-points will be used (e.g. in the exchange kernel)
 Following reciprocal coordinates:   # in IRBZ
  0.000000  0.000000  0.000000       1 t-inv F
  0.166667  0.000000  0.000000       2 t-inv F
  0.333333  0.000000  0.000000       3 t-inv F
  0.500000  0.000000  0.000000       4 t-inv F
  0.000000  0.166667  0.000000       5 t-inv F
  0.166667  0.166667  0.000000       6 t-inv F
  0.333333  0.166667  0.000000       7 t-inv F
  0.500000  0.166667  0.000000       8 t-inv F
 -0.333333  0.166667  0.000000       9 t-inv F
 -0.166667  0.166667  0.000000      10 t-inv F
  0.000000  0.333333  0.000000      11 t-inv F
  0.166667  0.333333  0.000000      12 t-inv F
  0.333333  0.333333  0.000000      13 t-inv F
  0.500000  0.333333  0.000000      14 t-inv F
 -0.333333  0.333333  0.000000      15 t-inv F
 -0.166667  0.333333  0.000000      16 t-inv F
  0.000000  0.500000  0.000000      17 t-inv F
  0.166667  0.500000  0.000000      18 t-inv F
  0.333333  0.500000  0.000000      19 t-inv F
  0.500000  0.500000  0.000000      20 t-inv F
  0.000000  0.000000  0.166667      21 t-inv F
  0.166667  0.000000  0.166667      22 t-inv F
  0.333333  0.000000  0.166667      23 t-inv F
  0.500000  0.000000  0.166667      24 t-inv F
 -0.333333  0.000000  0.166667      25 t-inv F
 -0.166667  0.000000  0.166667      26 t-inv F
  0.000000  0.166667  0.166667      27 t-inv F
  0.166667  0.166667  0.166667      28 t-inv F
  0.333333  0.166667  0.166667      29 t-inv F
  0.500000  0.166667  0.166667      30 t-inv F
 -0.333333  0.166667  0.166667      31 t-inv F
 -0.166667  0.166667  0.166667      32 t-inv F
  0.000000  0.333333  0.166667      33 t-inv F
  0.166667  0.333333  0.166667      34 t-inv F
  0.333333  0.333333  0.166667      35 t-inv F
  0.500000  0.333333  0.166667      36 t-inv F
 -0.333333  0.333333  0.166667      37 t-inv F
 -0.166667  0.333333  0.166667      38 t-inv F
  0.000000  0.500000  0.166667      39 t-inv F
  0.166667  0.500000  0.166667      40 t-inv F
  0.333333  0.500000  0.166667      41 t-inv F
  0.500000  0.500000  0.166667      42 t-inv F
 -0.333333  0.500000  0.166667      43 t-inv F
 -0.166667  0.500000  0.166667      44 t-inv F
  0.000000 -0.333333  0.166667      45 t-inv F
  0.166667 -0.333333  0.166667      46 t-inv F
  0.333333 -0.333333  0.166667      47 t-inv F
  0.500000 -0.333333  0.166667      48 t-inv F
 -0.333333 -0.333333  0.166667      49 t-inv F
 -0.166667 -0.333333  0.166667      50 t-inv F
  0.000000 -0.166667  0.166667      51 t-inv F
  0.166667 -0.166667  0.166667      52 t-inv F
  0.333333 -0.166667  0.166667      53 t-inv F
  0.500000 -0.166667  0.166667      54 t-inv F
 -0.333333 -0.166667  0.166667      55 t-inv F
 -0.166667 -0.166667  0.166667      56 t-inv F
  0.000000  0.000000  0.333333      57 t-inv F
  0.166667  0.000000  0.333333      58 t-inv F
  0.333333  0.000000  0.333333      59 t-inv F
  0.500000  0.000000  0.333333      60 t-inv F
 -0.333333  0.000000  0.333333      61 t-inv F
 -0.166667  0.000000  0.333333      62 t-inv F
  0.000000  0.166667  0.333333      63 t-inv F
  0.166667  0.166667  0.333333      64 t-inv F
  0.333333  0.166667  0.333333      65 t-inv F
  0.500000  0.166667  0.333333      66 t-inv F
 -0.333333  0.166667  0.333333      67 t-inv F
 -0.166667  0.166667  0.333333      68 t-inv F
  0.000000  0.333333  0.333333      69 t-inv F
  0.166667  0.333333  0.333333      70 t-inv F
  0.333333  0.333333  0.333333      71 t-inv F
  0.500000  0.333333  0.333333      72 t-inv F
 -0.333333  0.333333  0.333333      73 t-inv F
 -0.166667  0.333333  0.333333      74 t-inv F
  0.000000  0.500000  0.333333      75 t-inv F
  0.166667  0.500000  0.333333      76 t-inv F
  0.333333  0.500000  0.333333      77 t-inv F
  0.500000  0.500000  0.333333      78 t-inv F
 -0.333333  0.500000  0.333333      79 t-inv F
 -0.166667  0.500000  0.333333      80 t-inv F
  0.000000 -0.333333  0.333333      81 t-inv F
  0.166667 -0.333333  0.333333      82 t-inv F
  0.333333 -0.333333  0.333333      83 t-inv F
  0.500000 -0.333333  0.333333      84 t-inv F
 -0.333333 -0.333333  0.333333      85 t-inv F
 -0.166667 -0.333333  0.333333      86 t-inv F
  0.000000 -0.166667  0.333333      87 t-inv F
  0.166667 -0.166667  0.333333      88 t-inv F
  0.333333 -0.166667  0.333333      89 t-inv F
  0.500000 -0.166667  0.333333      90 t-inv F
 -0.333333 -0.166667  0.333333      91 t-inv F
 -0.166667 -0.166667  0.333333      92 t-inv F
  0.000000  0.000000  0.500000      93 t-inv F
  0.166667  0.000000  0.500000      94 t-inv F
  0.333333  0.000000  0.500000      95 t-inv F
  0.500000  0.000000  0.500000      96 t-inv F
  0.000000  0.166667  0.500000      97 t-inv F
  0.166667  0.166667  0.500000      98 t-inv F
  0.333333  0.166667  0.500000      99 t-inv F
  0.500000  0.166667  0.500000     100 t-inv F
 -0.333333  0.166667  0.500000     101 t-inv F
 -0.166667  0.166667  0.500000     102 t-inv F
  0.000000  0.333333  0.500000     103 t-inv F
  0.166667  0.333333  0.500000     104 t-inv F
  0.333333  0.333333  0.500000     105 t-inv F
  0.500000  0.333333  0.500000     106 t-inv F
 -0.333333  0.333333  0.500000     107 t-inv F
 -0.166667  0.333333  0.500000     108 t-inv F
  0.000000  0.500000  0.500000     109 t-inv F
  0.166667  0.500000  0.500000     110 t-inv F
  0.333333  0.500000  0.500000     111 t-inv F
  0.500000  0.500000  0.500000     112 t-inv F
  0.000000  0.000000  0.000000     113 t-inv F
  0.000000  0.005000  0.000000     114 t-inv F
  0.000000  0.010000  0.000000     115 t-inv F
  0.000000  0.015000  0.000000     116 t-inv F
  0.000000  0.020000  0.000000     117 t-inv F
  0.000000  0.025000  0.000000     118 t-inv F
  0.000000  0.030000  0.000000     119 t-inv F
  0.000000  0.035000  0.000000     120 t-inv F
  0.000000  0.040000  0.000000     121 t-inv F
  0.000000  0.045000  0.000000     122 t-inv F
  0.000000  0.050000  0.000000     123 t-inv F
  0.000000  0.055000  0.000000     124 t-inv F
  0.000000  0.060000  0.000000     125 t-inv F
  0.000000  0.065000  0.000000     126 t-inv F
  0.000000  0.070000  0.000000     127 t-inv F
  0.000000  0.075000  0.000000     128 t-inv F
  0.000000  0.080000  0.000000     129 t-inv F
  0.000000  0.085000  0.000000     130 t-inv F
  0.000000  0.090000  0.000000     131 t-inv F
  0.000000  0.095000  0.000000     132 t-inv F
  0.000000  0.100000  0.000000     133 t-inv F
  0.000000  0.105000  0.000000     134 t-inv F
  0.000000  0.110000  0.000000     135 t-inv F
  0.000000  0.115000  0.000000     136 t-inv F
  0.000000  0.120000  0.000000     137 t-inv F
  0.000000  0.125000  0.000000     138 t-inv F
  0.000000  0.130000  0.000000     139 t-inv F
  0.000000  0.135000  0.000000     140 t-inv F
  0.000000  0.140000  0.000000     141 t-inv F
  0.000000  0.145000  0.000000     142 t-inv F
  0.000000  0.150000  0.000000     143 t-inv F
  0.000000  0.155000  0.000000     144 t-inv F
  0.000000  0.160000  0.000000     145 t-inv F
  0.000000  0.165000  0.000000     146 t-inv F
  0.000000  0.170000  0.000000     147 t-inv F
  0.000000  0.175000  0.000000     148 t-inv F
  0.000000  0.180000  0.000000     149 t-inv F
  0.000000  0.185000  0.000000     150 t-inv F
  0.000000  0.190000  0.000000     151 t-inv F
  0.000000  0.195000  0.000000     152 t-inv F
  0.000000  0.200000  0.000000     153 t-inv F
  0.000000  0.205000  0.000000     154 t-inv F
  0.000000  0.210000  0.000000     155 t-inv F
  0.000000  0.215000  0.000000     156 t-inv F
  0.000000  0.220000  0.000000     157 t-inv F
  0.000000  0.225000  0.000000     158 t-inv F
  0.000000  0.230000  0.000000     159 t-inv F
  0.000000  0.235000  0.000000     160 t-inv F
  0.000000  0.240000  0.000000     161 t-inv F
  0.000000  0.245000  0.000000     162 t-inv F
  0.000000  0.250000  0.000000     163 t-inv F
  0.000000  0.255000  0.000000     164 t-inv F
  0.000000  0.260000  0.000000     165 t-inv F
  0.000000  0.265000  0.000000     166 t-inv F
  0.000000  0.270000  0.000000     167 t-inv F
  0.000000  0.275000  0.000000     168 t-inv F
  0.000000  0.280000  0.000000     169 t-inv F
  0.000000  0.285000  0.000000     170 t-inv F
  0.000000  0.290000  0.000000     171 t-inv F
  0.000000  0.295000  0.000000     172 t-inv F
  0.000000  0.300000  0.000000     173 t-inv F
  0.000000  0.305000  0.000000     174 t-inv F
  0.000000  0.310000  0.000000     175 t-inv F
  0.000000  0.315000  0.000000     176 t-inv F
  0.000000  0.320000  0.000000     177 t-inv F
  0.000000  0.325000  0.000000     178 t-inv F
  0.000000  0.330000  0.000000     179 t-inv F
  0.000000  0.335000  0.000000     180 t-inv F
  0.000000  0.340000  0.000000     181 t-inv F
  0.000000  0.345000  0.000000     182 t-inv F
  0.000000  0.350000  0.000000     183 t-inv F
  0.000000  0.355000  0.000000     184 t-inv F
  0.000000  0.360000  0.000000     185 t-inv F
  0.000000  0.365000  0.000000     186 t-inv F
  0.000000  0.370000  0.000000     187 t-inv F
  0.000000  0.375000  0.000000     188 t-inv F
  0.000000  0.380000  0.000000     189 t-inv F
  0.000000  0.385000  0.000000     190 t-inv F
  0.000000  0.390000  0.000000     191 t-inv F
  0.000000  0.395000  0.000000     192 t-inv F
  0.000000  0.400000  0.000000     193 t-inv F
  0.000000  0.405000  0.000000     194 t-inv F
  0.000000  0.410000  0.000000     195 t-inv F
  0.000000  0.415000  0.000000     196 t-inv F
  0.000000  0.420000  0.000000     197 t-inv F
  0.000000  0.425000  0.000000     198 t-inv F
  0.000000  0.430000  0.000000     199 t-inv F
  0.000000  0.435000  0.000000     200 t-inv F
  0.000000  0.440000  0.000000     201 t-inv F
  0.000000  0.445000  0.000000     202 t-inv F
  0.000000  0.450000  0.000000     203 t-inv F
  0.000000  0.455000  0.000000     204 t-inv F
  0.000000  0.460000  0.000000     205 t-inv F
  0.000000  0.465000  0.000000     206 t-inv F
  0.000000  0.470000  0.000000     207 t-inv F
  0.000000  0.475000  0.000000     208 t-inv F
  0.000000  0.480000  0.000000     209 t-inv F
  0.000000  0.485000  0.000000     210 t-inv F
  0.000000  0.490000  0.000000     211 t-inv F
  0.000000  0.495000  0.000000     212 t-inv F
  0.000000  0.500000  0.000000     213 t-inv F
  0.005051  0.500000  0.000000     214 t-inv F
  0.010101  0.500000  0.000000     215 t-inv F
  0.015152  0.500000  0.000000     216 t-inv F
  0.020202  0.500000  0.000000     217 t-inv F
  0.025253  0.500000  0.000000     218 t-inv F
  0.030303  0.500000  0.000000     219 t-inv F
  0.035354  0.500000  0.000000     220 t-inv F
  0.040404  0.500000  0.000000     221 t-inv F
  0.045455  0.500000  0.000000     222 t-inv F
  0.050505  0.500000  0.000000     223 t-inv F
  0.055556  0.500000  0.000000     224 t-inv F
  0.060606  0.500000  0.000000     225 t-inv F
  0.065657  0.500000  0.000000     226 t-inv F
  0.070707  0.500000  0.000000     227 t-inv F
  0.075758  0.500000  0.000000     228 t-inv F
  0.080808  0.500000  0.000000     229 t-inv F
  0.085859  0.500000  0.000000     230 t-inv F
  0.090909  0.500000  0.000000     231 t-inv F
  0.095960  0.500000  0.000000     232 t-inv F
  0.101010  0.500000  0.000000     233 t-inv F
  0.106061  0.500000  0.000000     234 t-inv F
  0.111111  0.500000  0.000000     235 t-inv F
  0.116162  0.500000  0.000000     236 t-inv F
  0.121212  0.500000  0.000000     237 t-inv F
  0.126263  0.500000  0.000000     238 t-inv F
  0.131313  0.500000  0.000000     239 t-inv F
  0.136364  0.500000  0.000000     240 t-inv F
  0.141414  0.500000  0.000000     241 t-inv F
  0.146465  0.500000  0.000000     242 t-inv F
  0.151515  0.500000  0.000000     243 t-inv F
  0.156566  0.500000  0.000000     244 t-inv F
  0.161616  0.500000  0.000000     245 t-inv F
  0.166667  0.500000  0.000000     246 t-inv F
  0.171717  0.500000  0.000000     247 t-inv F
  0.176768  0.500000  0.000000     248 t-inv F
  0.181818  0.500000  0.000000     249 t-inv F
  0.186869  0.500000  0.000000     250 t-inv F
  0.191919  0.500000  0.000000     251 t-inv F
  0.196970  0.500000  0.000000     252 t-inv F
  0.202020  0.500000  0.000000     253 t-inv F
  0.207071  0.500000  0.000000     254 t-inv F
  0.212121  0.500000  0.000000     255 t-inv F
  0.217172  0.500000  0.000000     256 t-inv F
  0.222222  0.500000  0.000000     257 t-inv F
  0.227273  0.500000  0.000000     258 t-inv F
  0.232323  0.500000  0.000000     259 t-inv F
  0.237374  0.500000  0.000000     260 t-inv F
  0.242424  0.500000  0.000000     261 t-inv F
  0.247475  0.500000  0.000000     262 t-inv F
  0.252525  0.500000  0.000000     263 t-inv F
  0.257576  0.500000  0.000000     264 t-inv F
  0.262626  0.500000  0.000000     265 t-inv F
  0.267677  0.500000  0.000000     266 t-inv F
  0.272727  0.500000  0.000000     267 t-inv F
  0.277778  0.500000  0.000000     268 t-inv F
  0.282828  0.500000  0.000000     269 t-inv F
  0.287879  0.500000  0.000000     270 t-inv F
  0.292929  0.500000  0.000000     271 t-inv F
  0.297980  0.500000  0.000000     272 t-inv F
  0.303030  0.500000  0.000000     273 t-inv F
  0.308081  0.500000  0.000000     274 t-inv F
  0.313131  0.500000  0.000000     275 t-inv F
  0.318182  0.500000  0.000000     276 t-inv F
  0.323232  0.500000  0.000000     277 t-inv F
  0.328283  0.500000  0.000000     278 t-inv F
  0.333333  0.500000  0.000000     279 t-inv F
  0.338384  0.500000  0.000000     280 t-inv F
  0.343434  0.500000  0.000000     281 t-inv F
  0.348485  0.500000  0.000000     282 t-inv F
  0.353535  0.500000  0.000000     283 t-inv F
  0.358586  0.500000  0.000000     284 t-inv F
  0.363636  0.500000  0.000000     285 t-inv F
  0.368687  0.500000  0.000000     286 t-inv F
  0.373737  0.500000  0.000000     287 t-inv F
  0.378788  0.500000  0.000000     288 t-inv F
  0.383838  0.500000  0.000000     289 t-inv F
  0.388889  0.500000  0.000000     290 t-inv F
  0.393939  0.500000  0.000000     291 t-inv F
  0.398990  0.500000  0.000000     292 t-inv F
  0.404040  0.500000  0.000000     293 t-inv F
  0.409091  0.500000  0.000000     294 t-inv F
  0.414141  0.500000  0.000000     295 t-inv F
  0.419192  0.500000  0.000000     296 t-inv F
  0.424242  0.500000  0.000000     297 t-inv F
  0.429293  0.500000  0.000000     298 t-inv F
  0.434343  0.500000  0.000000     299 t-inv F
  0.439394  0.500000  0.000000     300 t-inv F
  0.444444  0.500000  0.000000     301 t-inv F
  0.449495  0.500000  0.000000     302 t-inv F
  0.454545  0.500000  0.000000     303 t-inv F
  0.459596  0.500000  0.000000     304 t-inv F
  0.464646  0.500000  0.000000     305 t-inv F
  0.469697  0.500000  0.000000     306 t-inv F
  0.474747  0.500000  0.000000     307 t-inv F
  0.479798  0.500000  0.000000     308 t-inv F
  0.484849  0.500000  0.000000     309 t-inv F
  0.489899  0.500000  0.000000     310 t-inv F
  0.494949  0.500000  0.000000     311 t-inv F
  0.500000  0.500000  0.000000     312 t-inv F
  0.496454  0.496454  0.000000     313 t-inv F
  0.492908  0.492908  0.000000     314 t-inv F
  0.489362  0.489362  0.000000     315 t-inv F
  0.485816  0.485816  0.000000     316 t-inv F
  0.482270  0.482270  0.000000     317 t-inv F
  0.478723  0.478723  0.000000     318 t-inv F
  0.475177  0.475177  0.000000     319 t-inv F
  0.471631  0.471631  0.000000     320 t-inv F
  0.468085  0.468085  0.000000     321 t-inv F
  0.464539  0.464539  0.000000     322 t-inv F
  0.460993  0.460993  0.000000     323 t-inv F
  0.457447  0.457447  0.000000     324 t-inv F
  0.453901  0.453901  0.000000     325 t-inv F
  0.450355  0.450355  0.000000     326 t-inv F
  0.446809  0.446809  0.000000     327 t-inv F
  0.443262  0.443262  0.000000     328 t-inv F
  0.439716  0.439716  0.000000     329 t-inv F
  0.436170  0.436170  0.000000     330 t-inv F
  0.432624  0.432624  0.000000     331 t-inv F
  0.429078  0.429078  0.000000     332 t-inv F
  0.425532  0.425532  0.000000     333 t-inv F
  0.421986  0.421986  0.000000     334 t-inv F
  0.418440  0.418440  0.000000     335 t-inv F
  0.414894  0.414894  0.000000     336 t-inv F
  0.411348  0.411348  0.000000     337 t-inv F
  0.407801  0.407801  0.000000     338 t-inv F
  0.404255  0.404255  0.000000     339 t-inv F
  0.400709  0.400709  0.000000     340 t-inv F
  0.397163  0.397163  0.000000     341 t-inv F
  0.393617  0.393617  0.000000     342 t-inv F
  0.390071  0.390071  0.000000     343 t-inv F
  0.386525  0.386525  0.000000     344 t-inv F
  0.382979  0.382979  0.000000     345 t-inv F
  0.379433  0.379433  0.000000     346 t-inv F
  0.375887  0.375887  0.000000     347 t-inv F
  0.372340  0.372340  0.000000     348 t-inv F
  0.368794  0.368794  0.000000     349 t-inv F
  0.365248  0.365248  0.000000     350 t-inv F
  0.361702  0.361702  0.000000     351 t-inv F
  0.358156  0.358156  0.000000     352 t-inv F
  0.354610  0.354610  0.000000     353 t-inv F
  0.351064  0.351064  0.000000     354 t-inv F
  0.347518  0.347518  0.000000     355 t-inv F
  0.343972  0.343972  0.000000     356 t-inv F
  0.340426  0.340426  0.000000     357 t-inv F
  0.336879  0.336879  0.000000     358 t-inv F
  0.333333  0.333333  0.000000     359 t-inv F
  0.329787  0.329787  0.000000     360 t-inv F
  0.326241  0.326241  0.000000     361 t-inv F
  0.322695  0.322695  0.000000     362 t-inv F
  0.319149  0.319149  0.000000     363 t-inv F
  0.315603  0.315603  0.000000     364 t-inv F
  0.312057  0.312057  0.000000     365 t-inv F
  0.308511  0.308511  0.000000     366 t-inv F
  0.304965  0.304965  0.000000     367 t-inv F
  0.301418  0.301418  0.000000     368 t-inv F
  0.297872  0.297872  0.000000     369 t-inv F
  0.294326  0.294326  0.000000     370 t-inv F
  0.290780  0.290780  0.000000     371 t-inv F
  0.287234  0.287234  0.000000     372 t-inv F
  0.283688  0.283688  0.000000     373 t-inv F
  0.280142  0.280142  0.000000     374 t-inv F
  0.276596  0.276596  0.000000     375 t-inv F
  0.273050  0.273050  0.000000     376 t-inv F
  0.269504  0.269504  0.000000     377 t-inv F
  0.265957  0.265957  0.000000     378 t-inv F
  0.262411  0.262411  0.000000     379 t-inv F
  0.258865  0.258865  0.000000     380 t-inv F
  0.255319  0.255319  0.000000     381 t-inv F
  0.251773  0.251773  0.000000     382 t-inv F
  0.248227  0.248227  0.000000     383 t-inv F
  0.244681  0.244681  0.000000     384 t-inv F
  0.241135  0.241135  0.000000     385 t-inv F
  0.237589  0.237589  0.000000     386 t-inv F
  0.234043  0.234043  0.000000     387 t-inv F
  0.230496  0.230496  0.000000     388 t-inv F
  0.226950  0.226950  0.000000     389 t-inv F
  0.223404  0.223404  0.000000     390 t-inv F
  0.219858  0.219858  0.000000     391 t-inv F
  0.216312  0.216312  0.000000     392 t-inv F
  0.212766  0.212766  0.000000     393 t-inv F
  0.209220  0.209220  0.000000     394 t-inv F
  0.205674  0.205674  0.000000     395 t-inv F
  0.202128  0.202128  0.000000     396 t-inv F
  0.198582  0.198582  0.000000     397 t-inv F
  0.195035  0.195035  0.000000     398 t-inv F
  0.191489  0.191489  0.000000     399 t-inv F
  0.187943  0.187943  0.000000     400 t-inv F
  0.184397  0.184397  0.000000     401 t-inv F
  0.180851  0.180851  0.000000     402 t-inv F
  0.177305  0.177305  0.000000     403 t-inv F
  0.173759  0.173759  0.000000     404 t-inv F
  0.170213  0.170213  0.000000     405 t-inv F
  0.166667  0.166667  0.000000     406 t-inv F
  0.163121  0.163121  0.000000     407 t-inv F
  0.159574  0.159574  0.000000     408 t-inv F
  0.156028  0.156028  0.000000     409 t-inv F
  0.152482  0.152482  0.000000     410 t-inv F
  0.148936  0.148936  0.000000     411 t-inv F
  0.145390  0.145390  0.000000     412 t-inv F
  0.141844  0.141844  0.000000     413 t-inv F
  0.138298  0.138298  0.000000     414 t-inv F
  0.134752  0.134752  0.000000     415 t-inv F
  0.131206  0.131206  0.000000     416 t-inv F
  0.127660  0.127660  0.000000     417 t-inv F
  0.124114  0.124114  0.000000     418 t-inv F
  0.120567  0.120567  0.000000     419 t-inv F
  0.117021  0.117021  0.000000     420 t-inv F
  0.113475  0.113475  0.000000     421 t-inv F
  0.109929  0.109929  0.000000     422 t-inv F
  0.106383  0.106383  0.000000     423 t-inv F
  0.102837  0.102837  0.000000     424 t-inv F
  0.099291  0.099291  0.000000     425 t-inv F
  0.095745  0.095745  0.000000     426 t-inv F
  0.092199  0.092199  0.000000     427 t-inv F
  0.088652  0.088652  0.000000     428 t-inv F
  0.085106  0.085106  0.000000     429 t-inv F
  0.081560  0.081560  0.000000     430 t-inv F
  0.078014  0.078014  0.000000     431 t-inv F
  0.074468  0.074468  0.000000     432 t-inv F
  0.070922  0.070922  0.000000     433 t-inv F
  0.067376  0.067376  0.000000     434 t-inv F
  0.063830  0.063830  0.000000     435 t-inv F
  0.060284  0.060284  0.000000     436 t-inv F
  0.056738  0.056738  0.000000     437 t-inv F
  0.053192  0.053192  0.000000     438 t-inv F
  0.049645  0.049645  0.000000     439 t-inv F
  0.046099  0.046099  0.000000     440 t-inv F
  0.042553  0.042553  0.000000     441 t-inv F
  0.039007  0.039007  0.000000     442 t-inv F
  0.035461  0.035461  0.000000     443 t-inv F
  0.031915  0.031915  0.000000     444 t-inv F
  0.028369  0.028369  0.000000     445 t-inv F
  0.024823  0.024823  0.000000     446 t-inv F
  0.021277  0.021277  0.000000     447 t-inv F
  0.017730  0.017730  0.000000     448 t-inv F
  0.014184  0.014184  0.000000     449 t-inv F
  0.010638  0.010638  0.000000     450 t-inv F
  0.007092  0.007092  0.000000     451 t-inv F
  0.003546  0.003546  0.000000     452 t-inv F
  0.000000  0.000000  0.000000     453 t-inv F
  0.002907  0.002907  0.002907     454 t-inv F
  0.005814  0.005814  0.005814     455 t-inv F
  0.008721  0.008721  0.008721     456 t-inv F
  0.011628  0.011628  0.011628     457 t-inv F
  0.014535  0.014535  0.014535     458 t-inv F
  0.017442  0.017442  0.017442     459 t-inv F
  0.020349  0.020349  0.020349     460 t-inv F
  0.023256  0.023256  0.023256     461 t-inv F
  0.026163  0.026163  0.026163     462 t-inv F
  0.029070  0.029070  0.029070     463 t-inv F
  0.031977  0.031977  0.031977     464 t-inv F
  0.034884  0.034884  0.034884     465 t-inv F
  0.037791  0.037791  0.037791     466 t-inv F
  0.040698  0.040698  0.040698     467 t-inv F
  0.043605  0.043605  0.043605     468 t-inv F
  0.046512  0.046512  0.046512     469 t-inv F
  0.049419  0.049419  0.049419     470 t-inv F
  0.052326  0.052326  0.052326     471 t-inv F
  0.055233  0.055233  0.055233     472 t-inv F
  0.058140  0.058140  0.058140     473 t-inv F
  0.061047  0.061047  0.061047     474 t-inv F
  0.063953  0.063953  0.063953     475 t-inv F
  0.066860  0.066860  0.066860     476 t-inv F
  0.069767  0.069767  0.069767     477 t-inv F
  0.072674  0.072674  0.072674     478 t-inv F
  0.075581  0.075581  0.075581     479 t-inv F
  0.078488  0.078488  0.078488     480 t-inv F
  0.081395  0.081395  0.081395     481 t-inv F
  0.084302  0.084302  0.084302     482 t-inv F
  0.087209  0.087209  0.087209     483 t-inv F
  0.090116  0.090116  0.090116     484 t-inv F
  0.093023  0.093023  0.093023     485 t-inv F
  0.095930  0.095930  0.095930     486 t-inv F
  0.098837  0.098837  0.098837     487 t-inv F
  0.101744  0.101744  0.101744     488 t-inv F
  0.104651  0.104651  0.104651     489 t-inv F
  0.107558  0.107558  0.107558     490 t-inv F
  0.110465  0.110465  0.110465     491 t-inv F
  0.113372  0.113372  0.113372     492 t-inv F
  0.116279  0.116279  0.116279     493 t-inv F
  0.119186  0.119186  0.119186     494 t-inv F
  0.122093  0.122093  0.122093     495 t-inv F
  0.125000  0.125000  0.125000     496 t-inv F
  0.127907  0.127907  0.127907     497 t-inv F
  0.130814  0.130814  0.130814     498 t-inv F
  0.133721  0.133721  0.133721     499 t-inv F
  0.136628  0.136628  0.136628     500 t-inv F
  0.139535  0.139535  0.139535     501 t-inv F
  0.142442  0.142442  0.142442     502 t-inv F
  0.145349  0.145349  0.145349     503 t-inv F
  0.148256  0.148256  0.148256     504 t-inv F
  0.151163  0.151163  0.151163     505 t-inv F
  0.154070  0.154070  0.154070     506 t-inv F
  0.156977  0.156977  0.156977     507 t-inv F
  0.159884  0.159884  0.159884     508 t-inv F
  0.162791  0.162791  0.162791     509 t-inv F
  0.165698  0.165698  0.165698     510 t-inv F
  0.168605  0.168605  0.168605     511 t-inv F
  0.171512  0.171512  0.171512     512 t-inv F
  0.174419  0.174419  0.174419     513 t-inv F
  0.177326  0.177326  0.177326     514 t-inv F
  0.180233  0.180233  0.180233     515 t-inv F
  0.183140  0.183140  0.183140     516 t-inv F
  0.186047  0.186047  0.186047     517 t-inv F
  0.188953  0.188953  0.188953     518 t-inv F
  0.191860  0.191860  0.191860     519 t-inv F
  0.194767  0.194767  0.194767     520 t-inv F
  0.197674  0.197674  0.197674     521 t-inv F
  0.200581  0.200581  0.200581     522 t-inv F
  0.203488  0.203488  0.203488     523 t-inv F
  0.206395  0.206395  0.206395     524 t-inv F
  0.209302  0.209302  0.209302     525 t-inv F
  0.212209  0.212209  0.212209     526 t-inv F
  0.215116  0.215116  0.215116     527 t-inv F
  0.218023  0.218023  0.218023     528 t-inv F
  0.220930  0.220930  0.220930     529 t-inv F
  0.223837  0.223837  0.223837     530 t-inv F
  0.226744  0.226744  0.226744     531 t-inv F
  0.229651  0.229651  0.229651     532 t-inv F
  0.232558  0.232558  0.232558     533 t-inv F
  0.235465  0.235465  0.235465     534 t-inv F
  0.238372  0.238372  0.238372     535 t-inv F
  0.241279  0.241279  0.241279     536 t-inv F
  0.244186  0.244186  0.244186     537 t-inv F
  0.247093  0.247093  0.247093     538 t-inv F
  0.250000  0.250000  0.250000     539 t-inv F
  0.252907  0.252907  0.252907     540 t-inv F
  0.255814  0.255814  0.255814     541 t-inv F
  0.258721  0.258721  0.258721     542 t-inv F
  0.261628  0.261628  0.261628     543 t-inv F
  0.264535  0.264535  0.264535     544 t-inv F
  0.267442  0.267442  0.267442     545 t-inv F
  0.270349  0.270349  0.270349     546 t-inv F
  0.273256  0.273256  0.273256     547 t-inv F
  0.276163  0.276163  0.276163     548 t-inv F
  0.279070  0.279070  0.279070     549 t-inv F
  0.281977  0.281977  0.281977     550 t-inv F
  0.284884  0.284884  0.284884     551 t-inv F
  0.287791  0.287791  0.287791     552 t-inv F
  0.290698  0.290698  0.290698     553 t-inv F
  0.293605  0.293605  0.293605     554 t-inv F
  0.296512  0.296512  0.296512     555 t-inv F
  0.299419  0.299419  0.299419     556 t-inv F
  0.302326  0.302326  0.302326     557 t-inv F
  0.305233  0.305233  0.305233     558 t-inv F
  0.308140  0.308140  0.308140     559 t-inv F
  0.311046  0.311046  0.311046     560 t-inv F
  0.313953  0.313953  0.313953     561 t-inv F
  0.316860  0.316860  0.316860     562 t-inv F
  0.319767  0.319767  0.319767     563 t-inv F
  0.322674  0.322674  0.322674     564 t-inv F
  0.325581  0.325581  0.325581     565 t-inv F
  0.328488  0.328488  0.328488     566 t-inv F
  0.331395  0.331395  0.331395     567 t-inv F
  0.334302  0.334302  0.334302     568 t-inv F
  0.337209  0.337209  0.337209     569 t-inv F
  0.340116  0.340116  0.340116     570 t-inv F
  0.343023  0.343023  0.343023     571 t-inv F
  0.345930  0.345930  0.345930     572 t-inv F
  0.348837  0.348837  0.348837     573 t-inv F
  0.351744  0.351744  0.351744     574 t-inv F
  0.354651  0.354651  0.354651     575 t-inv F
  0.357558  0.357558  0.357558     576 t-inv F
  0.360465  0.360465  0.360465     577 t-inv F
  0.363372  0.363372  0.363372     578 t-inv F
  0.366279  0.366279  0.366279     579 t-inv F
  0.369186  0.369186  0.369186     580 t-inv F
  0.372093  0.372093  0.372093     581 t-inv F
  0.375000  0.375000  0.375000     582 t-inv F
  0.377907  0.377907  0.377907     583 t-inv F
  0.380814  0.380814  0.380814     584 t-inv F
  0.383721  0.383721  0.383721     585 t-inv F
  0.386628  0.386628  0.386628     586 t-inv F
  0.389535  0.389535  0.389535     587 t-inv F
  0.392442  0.392442  0.392442     588 t-inv F
  0.395349  0.395349  0.395349     589 t-inv F
  0.398256  0.398256  0.398256     590 t-inv F
  0.401163  0.401163  0.401163     591 t-inv F
  0.404070  0.404070  0.404070     592 t-inv F
  0.406977  0.406977  0.406977     593 t-inv F
  0.409884  0.409884  0.409884     594 t-inv F
  0.412791  0.412791  0.412791     595 t-inv F
  0.415698  0.415698  0.415698     596 t-inv F
  0.418605  0.418605  0.418605     597 t-inv F
  0.421512  0.421512  0.421512     598 t-inv F
  0.424419  0.424419  0.424419     599 t-inv F
  0.427326  0.427326  0.427326     600 t-inv F
  0.430233  0.430233  0.430233     601 t-inv F
  0.433140  0.433140  0.433140     602 t-inv F
  0.436047  0.436047  0.436047     603 t-inv F
  0.438953  0.438953  0.438953     604 t-inv F
  0.441860  0.441860  0.441860     605 t-inv F
  0.444767  0.444767  0.444767     606 t-inv F
  0.447674  0.447674  0.447674     607 t-inv F
  0.450581  0.450581  0.450581     608 t-inv F
  0.453488  0.453488  0.453488     609 t-inv F
  0.456395  0.456395  0.456395     610 t-inv F
  0.459302  0.459302  0.459302     611 t-inv F
  0.462209  0.462209  0.462209     612 t-inv F
  0.465116  0.465116  0.465116     613 t-inv F
  0.468023  0.468023  0.468023     614 t-inv F
  0.470930  0.470930  0.470930     615 t-inv F
  0.473837  0.473837  0.473837     616 t-inv F
  0.476744  0.476744  0.476744     617 t-inv F
  0.479651  0.479651  0.479651     618 t-inv F
  0.482558  0.482558  0.482558     619 t-inv F
  0.485465  0.485465  0.485465     620 t-inv F
  0.488372  0.488372  0.488372     621 t-inv F
  0.491279  0.491279  0.491279     622 t-inv F
  0.494186  0.494186  0.494186     623 t-inv F
  0.497093  0.497093  0.497093     624 t-inv F
  0.500000  0.500000  0.500000     625 t-inv F
  0.496429  0.500000  0.496429     626 t-inv F
  0.492857  0.500000  0.492857     627 t-inv F
  0.489286  0.500000  0.489286     628 t-inv F
  0.485714  0.500000  0.485714     629 t-inv F
  0.482143  0.500000  0.482143     630 t-inv F
  0.478571  0.500000  0.478571     631 t-inv F
  0.475000  0.500000  0.475000     632 t-inv F
  0.471429  0.500000  0.471429     633 t-inv F
  0.467857  0.500000  0.467857     634 t-inv F
  0.464286  0.500000  0.464286     635 t-inv F
  0.460714  0.500000  0.460714     636 t-inv F
  0.457143  0.500000  0.457143     637 t-inv F
  0.453571  0.500000  0.453571     638 t-inv F
  0.450000  0.500000  0.450000     639 t-inv F
  0.446429  0.500000  0.446429     640 t-inv F
  0.442857  0.500000  0.442857     641 t-inv F
  0.439286  0.500000  0.439286     642 t-inv F
  0.435714  0.500000  0.435714     643 t-inv F
  0.432143  0.500000  0.432143     644 t-inv F
  0.428571  0.500000  0.428571     645 t-inv F
  0.425000  0.500000  0.425000     646 t-inv F
  0.421429  0.500000  0.421429     647 t-inv F
  0.417857  0.500000  0.417857     648 t-inv F
  0.414286  0.500000  0.414286     649 t-inv F
  0.410714  0.500000  0.410714     650 t-inv F
  0.407143  0.500000  0.407143     651 t-inv F
  0.403571  0.500000  0.403571     652 t-inv F
  0.400000  0.500000  0.400000     653 t-inv F
  0.396429  0.500000  0.396429     654 t-inv F
  0.392857  0.500000  0.392857     655 t-inv F
  0.389286  0.500000  0.389286     656 t-inv F
  0.385714  0.500000  0.385714     657 t-inv F
  0.382143  0.500000  0.382143     658 t-inv F
  0.378571  0.500000  0.378571     659 t-inv F
  0.375000  0.500000  0.375000     660 t-inv F
  0.371429  0.500000  0.371429     661 t-inv F
  0.367857  0.500000  0.367857     662 t-inv F
  0.364286  0.500000  0.364286     663 t-inv F
  0.360714  0.500000  0.360714     664 t-inv F
  0.357143  0.500000  0.357143     665 t-inv F
  0.353571  0.500000  0.353571     666 t-inv F
  0.350000  0.500000  0.350000     667 t-inv F
  0.346429  0.500000  0.346429     668 t-inv F
  0.342857  0.500000  0.342857     669 t-inv F
  0.339286  0.500000  0.339286     670 t-inv F
  0.335714  0.500000  0.335714     671 t-inv F
  0.332143  0.500000  0.332143     672 t-inv F
  0.328571  0.500000  0.328571     673 t-inv F
  0.325000  0.500000  0.325000     674 t-inv F
  0.321429  0.500000  0.321429     675 t-inv F
  0.317857  0.500000  0.317857     676 t-inv F
  0.314286  0.500000  0.314286     677 t-inv F
  0.310714  0.500000  0.310714     678 t-inv F
  0.307143  0.500000  0.307143     679 t-inv F
  0.303571  0.500000  0.303571     680 t-inv F
  0.300000  0.500000  0.300000     681 t-inv F
  0.296429  0.500000  0.296429     682 t-inv F
  0.292857  0.500000  0.292857     683 t-inv F
  0.289286  0.500000  0.289286     684 t-inv F
  0.285714  0.500000  0.285714     685 t-inv F
  0.282143  0.500000  0.282143     686 t-inv F
  0.278571  0.500000  0.278571     687 t-inv F
  0.275000  0.500000  0.275000     688 t-inv F
  0.271429  0.500000  0.271429     689 t-inv F
  0.267857  0.500000  0.267857     690 t-inv F
  0.264286  0.500000  0.264286     691 t-inv F
  0.260714  0.500000  0.260714     692 t-inv F
  0.257143  0.500000  0.257143     693 t-inv F
  0.253571  0.500000  0.253571     694 t-inv F
  0.250000  0.500000  0.250000     695 t-inv F
  0.246429  0.500000  0.246429     696 t-inv F
  0.242857  0.500000  0.242857     697 t-inv F
  0.239286  0.500000  0.239286     698 t-inv F
  0.235714  0.500000  0.235714     699 t-inv F
  0.232143  0.500000  0.232143     700 t-inv F
  0.228571  0.500000  0.228571     701 t-inv F
  0.225000  0.500000  0.225000     702 t-inv F
  0.221429  0.500000  0.221429     703 t-inv F
  0.217857  0.500000  0.217857     704 t-inv F
  0.214286  0.500000  0.214286     705 t-inv F
  0.210714  0.500000  0.210714     706 t-inv F
  0.207143  0.500000  0.207143     707 t-inv F
  0.203571  0.500000  0.203571     708 t-inv F
  0.200000  0.500000  0.200000     709 t-inv F
  0.196429  0.500000  0.196429     710 t-inv F
  0.192857  0.500000  0.192857     711 t-inv F
  0.189286  0.500000  0.189286     712 t-inv F
  0.185714  0.500000  0.185714     713 t-inv F
  0.182143  0.500000  0.182143     714 t-inv F
  0.178571  0.500000  0.178571     715 t-inv F
  0.175000  0.500000  0.175000     716 t-inv F
  0.171429  0.500000  0.171429     717 t-inv F
  0.167857  0.500000  0.167857     718 t-inv F
  0.164286  0.500000  0.164286     719 t-inv F
  0.160714  0.500000  0.160714     720 t-inv F
  0.157143  0.500000  0.157143     721 t-inv F
  0.153571  0.500000  0.153571     722 t-inv F
  0.150000  0.500000  0.150000     723 t-inv F
  0.146429  0.500000  0.146429     724 t-inv F
  0.142857  0.500000  0.142857     725 t-inv F
  0.139286  0.500000  0.139286     726 t-inv F
  0.135714  0.500000  0.135714     727 t-inv F
  0.132143  0.500000  0.132143     728 t-inv F
  0.128571  0.500000  0.128571     729 t-inv F
  0.125000  0.500000  0.125000     730 t-inv F
  0.121429  0.500000  0.121429     731 t-inv F
  0.117857  0.500000  0.117857     732 t-inv F
  0.114286  0.500000  0.114286     733 t-inv F
  0.110714  0.500000  0.110714     734 t-inv F
  0.107143  0.500000  0.107143     735 t-inv F
  0.103571  0.500000  0.103571     736 t-inv F
  0.100000  0.500000  0.100000     737 t-inv F
  0.096429  0.500000  0.096429     738 t-inv F
  0.092857  0.500000  0.092857     739 t-inv F
  0.089286  0.500000  0.089286     740 t-inv F
  0.085714  0.500000  0.085714     741 t-inv F
  0.082143  0.500000  0.082143     742 t-inv F
  0.078571  0.500000  0.078571     743 t-inv F
  0.075000  0.500000  0.075000     744 t-inv F
  0.071429  0.500000  0.071429     745 t-inv F
  0.067857  0.500000  0.067857     746 t-inv F
  0.064286  0.500000  0.064286     747 t-inv F
  0.060714  0.500000  0.060714     748 t-inv F
  0.057143  0.500000  0.057143     749 t-inv F
  0.053571  0.500000  0.053571     750 t-inv F
  0.050000  0.500000  0.050000     751 t-inv F
  0.046429  0.500000  0.046429     752 t-inv F
  0.042857  0.500000  0.042857     753 t-inv F
  0.039286  0.500000  0.039286     754 t-inv F
  0.035714  0.500000  0.035714     755 t-inv F
  0.032143  0.500000  0.032143     756 t-inv F
  0.028571  0.500000  0.028571     757 t-inv F
  0.025000  0.500000  0.025000     758 t-inv F
  0.021429  0.500000  0.021429     759 t-inv F
  0.017857  0.500000  0.017857     760 t-inv F
  0.014286  0.500000  0.014286     761 t-inv F
  0.010714  0.500000  0.010714     762 t-inv F
  0.007143  0.500000  0.007143     763 t-inv F
  0.003571  0.500000  0.003571     764 t-inv F
 -0.166667  0.000000  0.000000       2 t-inv T
 -0.333333  0.000000  0.000000       3 t-inv T
  0.000000 -0.166667  0.000000       5 t-inv T
 -0.166667 -0.166667  0.000000       6 t-inv T
 -0.333333 -0.166667  0.000000       7 t-inv T
 -0.500000 -0.166667  0.000000       8 t-inv T
  0.333333 -0.166667  0.000000       9 t-inv T
  0.166667 -0.166667  0.000000      10 t-inv T
  0.000000 -0.333333  0.000000      11 t-inv T
 -0.166667 -0.333333  0.000000      12 t-inv T
 -0.333333 -0.333333  0.000000      13 t-inv T
 -0.500000 -0.333333  0.000000      14 t-inv T
  0.333333 -0.333333  0.000000      15 t-inv T
  0.166667 -0.333333  0.000000      16 t-inv T
 -0.166667 -0.500000  0.000000      18 t-inv T
 -0.333333 -0.500000  0.000000      19 t-inv T
  0.000000  0.000000 -0.166667      21 t-inv T
 -0.166667  0.000000 -0.166667      22 t-inv T
 -0.333333  0.000000 -0.166667      23 t-inv T
 -0.500000  0.000000 -0.166667      24 t-inv T
  0.333333  0.000000 -0.166667      25 t-inv T
  0.166667  0.000000 -0.166667      26 t-inv T
  0.000000 -0.166667 -0.166667      27 t-inv T
 -0.166667 -0.166667 -0.166667      28 t-inv T
 -0.333333 -0.166667 -0.166667      29 t-inv T
 -0.500000 -0.166667 -0.166667      30 t-inv T
  0.333333 -0.166667 -0.166667      31 t-inv T
  0.166667 -0.166667 -0.166667      32 t-inv T
  0.000000 -0.333333 -0.166667      33 t-inv T
 -0.166667 -0.333333 -0.166667      34 t-inv T
 -0.333333 -0.333333 -0.166667      35 t-inv T
 -0.500000 -0.333333 -0.166667      36 t-inv T
  0.333333 -0.333333 -0.166667      37 t-inv T
  0.166667 -0.333333 -0.166667      38 t-inv T
  0.000000 -0.500000 -0.166667      39 t-inv T
 -0.166667 -0.500000 -0.166667      40 t-inv T
 -0.333333 -0.500000 -0.166667      41 t-inv T
 -0.500000 -0.500000 -0.166667      42 t-inv T
  0.333333 -0.500000 -0.166667      43 t-inv T
  0.166667 -0.500000 -0.166667      44 t-inv T
  0.000000  0.333333 -0.166667      45 t-inv T
 -0.166667  0.333333 -0.166667      46 t-inv T
 -0.333333  0.333333 -0.166667      47 t-inv T
 -0.500000  0.333333 -0.166667      48 t-inv T
  0.333333  0.333333 -0.166667      49 t-inv T
  0.166667  0.333333 -0.166667      50 t-inv T
  0.000000  0.166667 -0.166667      51 t-inv T
 -0.166667  0.166667 -0.166667      52 t-inv T
 -0.333333  0.166667 -0.166667      53 t-inv T
 -0.500000  0.166667 -0.166667      54 t-inv T
  0.333333  0.166667 -0.166667      55 t-inv T
  0.166667  0.166667 -0.166667      56 t-inv T
  0.000000  0.000000 -0.333333      57 t-inv T
 -0.166667  0.000000 -0.333333      58 t-inv T
 -0.333333  0.000000 -0.333333      59 t-inv T
 -0.500000  0.000000 -0.333333      60 t-inv T
  0.333333  0.000000 -0.333333      61 t-inv T
  0.166667  0.000000 -0.333333      62 t-inv T
  0.000000 -0.166667 -0.333333      63 t-inv T
 -0.166667 -0.166667 -0.333333      64 t-inv T
 -0.333333 -0.166667 -0.333333      65 t-inv T
 -0.500000 -0.166667 -0.333333      66 t-inv T
  0.333333 -0.166667 -0.333333      67 t-inv T
  0.166667 -0.166667 -0.333333      68 t-inv T
  0.000000 -0.333333 -0.333333      69 t-inv T
 -0.166667 -0.333333 -0.333333      70 t-inv T
 -0.333333 -0.333333 -0.333333      71 t-inv T
 -0.500000 -0.333333 -0.333333      72 t-inv T
  0.333333 -0.333333 -0.333333      73 t-inv T
  0.166667 -0.333333 -0.333333      74 t-inv T
  0.000000 -0.500000 -0.333333      75 t-inv T
 -0.166667 -0.500000 -0.333333      76 t-inv T
 -0.333333 -0.500000 -0.333333      77 t-inv T
 -0.500000 -0.500000 -0.333333      78 t-inv T
  0.333333 -0.500000 -0.333333      79 t-inv T
  0.166667 -0.500000 -0.333333      80 t-inv T
  0.000000  0.333333 -0.333333      81 t-inv T
 -0.166667  0.333333 -0.333333      82 t-inv T
 -0.333333  0.333333 -0.333333      83 t-inv T
 -0.500000  0.333333 -0.333333      84 t-inv T
  0.333333  0.333333 -0.333333      85 t-inv T
  0.166667  0.333333 -0.333333      86 t-inv T
  0.000000  0.166667 -0.333333      87 t-inv T
 -0.166667  0.166667 -0.333333      88 t-inv T
 -0.333333  0.166667 -0.333333      89 t-inv T
 -0.500000  0.166667 -0.333333      90 t-inv T
  0.333333  0.166667 -0.333333      91 t-inv T
  0.166667  0.166667 -0.333333      92 t-inv T
 -0.166667  0.000000 -0.500000      94 t-inv T
 -0.333333  0.000000 -0.500000      95 t-inv T
  0.000000 -0.166667 -0.500000      97 t-inv T
 -0.166667 -0.166667 -0.500000      98 t-inv T
 -0.333333 -0.166667 -0.500000      99 t-inv T
 -0.500000 -0.166667 -0.500000     100 t-inv T
  0.333333 -0.166667 -0.500000     101 t-inv T
  0.166667 -0.166667 -0.500000     102 t-inv T
  0.000000 -0.333333 -0.500000     103 t-inv T
 -0.166667 -0.333333 -0.500000     104 t-inv T
 -0.333333 -0.333333 -0.500000     105 t-inv T
 -0.500000 -0.333333 -0.500000     106 t-inv T
  0.333333 -0.333333 -0.500000     107 t-inv T
  0.166667 -0.333333 -0.500000     108 t-inv T
 -0.166667 -0.500000 -0.500000     110 t-inv T
 -0.333333 -0.500000 -0.500000     111 t-inv T


--------------------------------------------------------------------------------------------------------




 Dimension of arrays:
   k-points           NKPTS =    764   k-points in BZ     NKDIM =    868   number of bands    NBANDS=     32
   number of dos      NEDOS =    301   number of ions     NIONS =     12
   non local maximal  LDIM  =      6   non local SUM 2l+1 LMDIM =     18
   total plane-waves  NPLWV = 110592
   max r-space proj   IRMAX =      1   max aug-charges    IRDMAX=  25940
   dimension x,y,z NGX =    48 NGY =   48 NGZ =   48
   dimension x,y,z NGXF=    96 NGYF=   96 NGZF=   96
   support grid    NGXF=    96 NGYF=   96 NGZF=   96
   ions per type =               1   1   6   1   3
 NGX,Y,Z   is equivalent  to a cutoff of  12.69, 12.72, 12.67 a.u.
 NGXF,Y,Z  is equivalent  to a cutoff of  25.37, 25.44, 25.34 a.u.


 I would recommend the setting:
   dimension x,y,z NGX =    46 NGY =   46 NGZ =   46
 SYSTEM =  Name                                    
 POSCAR =  MA-Pb-I (Github: hybrid-perovskites/2014

 Startparameter for this run:
   NWRITE =      2    write-flag & timer
   PREC   = accura    normal or accurate (medium, high low for compatibility)
   ISTART =      0    job   : 0-new  1-cont  2-samecut
   ICHARG =      2    charge: 1-file 2-atom 10-const
   ISPIN  =      1    spin polarized calculation?
   LNONCOLLINEAR =      F non collinear calculations
   LSORBIT =      F    spin-orbit coupling
   INIWAV =      1    electr: 0-lowe 1-rand  2-diag
   LASPH  =      F    aspherical Exc in radial PAW
   METAGGA=      F    non-selfconsistent MetaGGA calc.

 Electronic Relaxation 1
   ENCUT  =  500.0 eV  36.75 Ry    6.06 a.u.  11.47 11.44 11.48*2*pi/ulx,y,z
   ENINI  =  500.0     initial cutoff
   ENAUG  =  644.9 eV  augmentation charge cutoff
   NELM   =     60;   NELMIN=  5; NELMDL=  0     # of ELM steps 
   EDIFF  = 0.1E-05   stopping-criterion for ELM
   LREAL  =      F    real-space projection
   NLSPLINE    = F    spline interpolate recip. space projectors
   LCOMPAT=      F    compatible to vasp.4.4
   GGA_COMPAT  = T    GGA compatible to vasp.4.4-vasp.4.6
   LMAXPAW     = -100 max onsite density
   LMAXMIX     =    2 max onsite mixed and CHGCAR
   VOSKOWN=      0    Vosko Wilk Nusair interpolation
   ROPT   =    0.00000   0.00000   0.00000   0.00000
   ROPT   =    0.00000
 Ionic relaxation
   EDIFFG = -.5E-02   stopping-criterion for IOM
   NSW    =      1    number of steps for IOM
   NBLOCK =      1;   KBLOCK =      1    inner block; outer block 
   IBRION =      2    ionic relax: 0-MD 1-quasi-New 2-CG
   NFREE  =      1    steps in history (QN), initial steepest desc. (CG)
   ISIF   =      3    stress and relaxation
   IWAVPR =     11    prediction:  0-non 1-charg 2-wave 3-comb
   ISYM   =      2    0-nonsym 1-usesym 2-fastsym
   LCORR  =      T    Harris-Foulkes like correction to forces

   POTIM  = 0.5000    time-step for ionic-motion
   TEIN   =    0.0    initial temperature
   TEBEG  =    0.0;   TEEND  =   0.0 temperature during run
   SMASS  =  -3.00    Nose mass-parameter (am)
   estimated Nose-frequenzy (Omega)   =  0.10E-29 period in steps =****** mass=  -0.904E-27a.u.
   SCALEE = 1.0000    scale energy and forces
   NPACO  =    256;   APACO  = 16.0  distance and # of slots for P.C.
   PSTRESS=    0.0 pullay stress

  Mass of Ions in am
   POMASS =  12.01 14.00  1.00207.20126.90
  Ionic Valenz
   ZVAL   =   4.00  5.00  1.00 14.00  7.00
  Atomic Wigner-Seitz radii
   RWIGS  =  -1.00 -1.00 -1.00 -1.00 -1.00
  virtual crystal weights 
   VCA    =   1.00  1.00  1.00  1.00  1.00
   NELECT =      50.0000    total number of electrons
   NUPDOWN=      -1.0000    fix difference up-down

 DOS related values:
   EMIN   =  10.00;   EMAX   =-10.00  energy-range for DOS
   EFERMI =   0.00
   ISMEAR =     0;   SIGMA  =   0.01  broadening in eV -4-tet -1-fermi 0-gaus

 Electronic relaxation 2 (details)
   IALGO  =     58    algorithm
   LDIAG  =      T    sub-space diagonalisation (order eigenvalues)
   LSUBROT=      F    optimize rotation matrix (better conditioning)
   TURBO    =      0    0=normal 1=particle mesh
   IRESTART =      0    0=no restart 2=restart with 2 vectors
   NREBOOT  =      0    no. of reboots
   NMIN     =      0    reboot dimension
   EREF     =   0.00    reference energy to select bands
   IMIX   =      4    mixing-type and parameters
     AMIX     =   0.40;   BMIX     =  1.00
     AMIX_MAG =   1.60;   BMIX_MAG =  1.00
     AMIN     =   0.01
     WC   =   100.;   INIMIX=   1;  MIXPRE=   1;  MAXMIX= -45

 Intra band minimization:
   WEIMIN = 0.0010     energy-eigenvalue tresh-hold
   EBREAK =  0.78E-08  absolut break condition
   DEPER  =   0.30     relativ break condition  

   TIME   =   0.40     timestep for ELM

  volume/ion in A,a.u.               =      20.71       139.75
  Fermi-wavevector in a.u.,A,eV,Ry     =   0.959306  1.812825 12.520994  0.920267
  Thomas-Fermi vector in A             =   2.088490
 
 Write flags
   LWAVE  =      T    write WAVECAR
   LCHARG =      T    write CHGCAR
   LVTOT  =      F    write LOCPOT, total local potential
   LVHAR  =      F    write LOCPOT, Hartree potential only
   LELF   =      F    write electronic localiz. function (ELF)
   LORBIT =     10    0 simple, 1 ext, 2 COOP (PROOUT)


 Dipole corrections
   LMONO  =      F    monopole corrections only (constant potential shift)
   LDIPOL =      F    correct potential (dipole corrections)
   IDIPOL =      0    1-x, 2-y, 3-z, 4-all directions 
   EPSILON=  1.0000000 bulk dielectric constant

 Core level calculations are selected ICORELEVEL =  1
 Exchange correlation treatment:
   GGA     =    PE    GGA type
   LEXCH   =     8    internal setting for exchange type
   VOSKOWN=      0    Vosko Wilk Nusair interpolation
   EXXOEP  =     0    0=HF, 1=EXX-LHF (local Hartree Fock) 2=EXX OEP
   LHFCALC =     T    Hartree Fock is set to
   LSYMGRAD=     F    symmetrize gradient (conserves proper symmetry)
   PRECFOCK=fast      Normal, Fast or Accurate (Low or Medium for compatibility)
   LRHFCALC=     F    long range Hartree Fock
   LRSCOR  =     F    long range correlation only (use DFT for short range part)
   LTHOMAS =     F    Thomas Fermi screening in HF
   LMODELHF=     F    short range full HF, long range fraction AEXX
   ENCUT4O =  -1.0   cutoff for four orbital integrals eV
   LMAXFOCK=     4    L truncation for augmentation on plane wave grid
   LMAXFOCKAE=  -1    L truncation for all-electron charge restoration on plane wave grid
   NMAXFOCKAE=   1    number of basis functions for all-electron charge restoration
   LFOCKAEDFT=     F  apply the AE augmentation even for DFT
   NKREDX  =     1    reduce k-point grid by
   NKREDY  =     1    reduce k-point grid by
   NKREDZ  =     1    reduce k-point grid by
   SHIFTRED=     F    shift reduced grid of Gamma
   HFKIDENT=     F    idential grid for each k-point
   ODDONLY =     F    use only odd q-grid points
   EVENONLY=     F    use only even q-grid points
   HFALPHA =   -1.0000 decay constant for conv. correction
   MCALPHA =    0.0000 extent of test-charge in conv. correction in multipole expansion
   AEXX    =    0.2500 exact exchange contribution
   HFSCREEN=    0.2070 screening length (either q_TF or 0.3 A-1)
   HFSCREENC=   0.2070 screening length for correlation (either q_TF or 0.3 A-1)
   HFRCUT  =    0.0000 spherical cutoff for potential kernel
   ALDAX   =    0.7500 LDA exchange part
   AGGAX   =    0.7500 GGA exchange part
   ALDAC   =    1.0000 LDA correlation
   AGGAC   =    1.0000 GGA correlation
   NBANDSGWLOW=     1    first orbital included in HF term
   ENCUTFOCK=  -1.0 apply spherical cutoff to Coloumb kernel
 Linear response parameters
   LEPSILON=     F    determine dielectric tensor
   LRPA    =     F    only Hartree local field effects (RPA)
   LNABLA  =     F    use nabla operator in PAW spheres
   LVEL    =     F    velocity operator in full k-point grid
   LINTERFAST=   F  fast interpolation
   KINTER  =     0    interpolate to denser k-point grid
   CSHIFT  =0.1000    complex shift for real part using Kramers Kronig
   OMEGAMAX=  -1.0    maximum frequency
   DEG_THRESHOLD= 0.2000000E-02 threshold for treating states as degnerate
   RTIME   =    0.100 relaxation time in fs

 Orbital magnetization related:
   ORBITALMAG=     F  switch on orbital magnetization
   LCHIMAG   =     F  perturbation theory with respect to B field
   DQ        =  0.001000  dq finite difference perturbation B field



--------------------------------------------------------------------------------------------------------


 conjugate gradient relaxation of ions
 charge density and potential will be updated during run
 non-spin polarized calculation
 Conjugate gradient for all bands (Freysoldt, et al. PRB 79, 241103 (2009))
 preconditioned conjugated gradient                                        
 perform sub-space diagonalisation
    before iterative eigenvector-optimisation
 modified Broyden-mixing scheme, WC =      100.0
[...]
     18      -2.4828      2.00000
     19      -1.2105      2.00000
     20      -0.9173      2.00000
     21      -0.7785      2.00000
     22      -0.3897      2.00000
     23      -0.3839      2.00000
     24      -0.1226      2.00000
     25       0.2057      2.00000
     26       4.1292      0.00000
     27       6.5195      0.00000
     28       6.8360      0.00000
     29       7.0744      0.00000
     30       7.5082      0.00000
     31       7.8904      0.00000
     32       8.1622      0.00000

 k-point   757 :       0.0286    0.5000    0.0286
  band No.  band energies     occupation 
      1     -20.8437      2.00000
      2     -17.1631      2.00000
      3     -17.1406      2.00000
      4     -17.0990      2.00000
      5     -17.0802      2.00000
      6     -17.0767      2.00000
      7     -13.2946      2.00000
      8     -12.1453      2.00000
      9     -11.8285      2.00000
     10     -11.3482      2.00000
     11      -9.1575      2.00000
     12      -9.1013      2.00000
     13      -7.0728      2.00000
     14      -6.7299      2.00000
     15      -4.7811      2.00000
     16      -4.7367      2.00000
     17      -2.6752      2.00000
     18      -2.4870      2.00000
     19      -1.2080      2.00000
     20      -0.9196      2.00000
     21      -0.7771      2.00000
     22      -0.3930      2.00000
     23      -0.3827      2.00000
     24      -0.1221      2.00000
     25       0.2050      2.00000
     26       4.1309      0.00000
     27       6.5247      0.00000
     28       6.8317      0.00000
     29       7.0791      0.00000
     30       7.5648      0.00000
     31       7.6345      0.00000
     32       8.2612      0.00000

 k-point   758 :       0.0250    0.5000    0.0250
  band No.  band energies     occupation 
      1     -20.8437      2.00000
      2     -17.1631      2.00000
      3     -17.1406      2.00000
      4     -17.0990      2.00000
      5     -17.0802      2.00000
      6     -17.0767      2.00000
      7     -13.2945      2.00000
      8     -12.1458      2.00000
      9     -11.8285      2.00000
     10     -11.3478      2.00000
     11      -9.1575      2.00000
     12      -9.1015      2.00000
     13      -7.0727      2.00000
     14      -6.7268      2.00000
     15      -4.7813      2.00000
     16      -4.7364      2.00000
     17      -2.6788      2.00000
     18      -2.4907      2.00000
     19      -1.2058      2.00000
     20      -0.9217      2.00000
     21      -0.7756      2.00000
     22      -0.3960      2.00000
     23      -0.3816      2.00000
     24      -0.1217      2.00000
     25       0.2045      2.00000
     26       4.1323      0.00000
     27       6.5330      0.00000
     28       6.8282      0.00000
     29       7.0763      0.00000
     30       7.5101      0.00000
     31       7.7379      0.00000
     32       8.2993      0.00000

 k-point   759 :       0.0214    0.5000    0.0214
  band No.  band energies     occupation 
      1     -20.8437      2.00000
      2     -17.1632      2.00000
      3     -17.1406      2.00000
      4     -17.0990      2.00000
      5     -17.0802      2.00000
      6     -17.0767      2.00000
      7     -13.2945      2.00000
      8     -12.1462      2.00000
      9     -11.8286      2.00000
     10     -11.3474      2.00000
     11      -9.1575      2.00000
     12      -9.1017      2.00000
     13      -7.0727      2.00000
     14      -6.7241      2.00000
     15      -4.7814      2.00000
     16      -4.7361      2.00000
     17      -2.6819      2.00000
     18      -2.4939      2.00000
     19      -1.2038      2.00000
     20      -0.9237      2.00000
     21      -0.7743      2.00000
     22      -0.3986      2.00000
     23      -0.3806      2.00000
     24      -0.1212      2.00000
     25       0.2040      2.00000
     26       4.1337      0.00000
     27       6.5311      0.00000
     28       6.8208      0.00000
     29       7.0799      0.00000
     30       7.5027      0.00000
     31       7.5597      0.00000
     32       8.2241      0.00000

 k-point   760 :       0.0179    0.5000    0.0179
  band No.  band energies     occupation 
      1     -20.8437      2.00000
      2     -17.1632      2.00000
      3     -17.1406      2.00000
      4     -17.0990      2.00000
      5     -17.0802      2.00000
      6     -17.0767      2.00000
      7     -13.2944      2.00000
      8     -12.1466      2.00000
      9     -11.8286      2.00000
     10     -11.3470      2.00000
     11      -9.1574      2.00000
     12      -9.1018      2.00000
     13      -7.0727      2.00000
     14      -6.7218      2.00000
     15      -4.7815      2.00000
     16      -4.7359      2.00000
     17      -2.6845      2.00000
     18      -2.4967      2.00000
     19      -1.2020      2.00000
     20      -0.9254      2.00000
     21      -0.7732      2.00000
     22      -0.4008      2.00000
     23      -0.3798      2.00000
     24      -0.1209      2.00000
     25       0.2036      2.00000
     26       4.1346      0.00000
     27       6.5363      0.00000
     28       6.8192      0.00000
     29       7.0985      0.00000
     30       7.5110      0.00000
     31       7.5757      0.00000
     32       8.2140      0.00000

 k-point   761 :       0.0143    0.5000    0.0143
  band No.  band energies     occupation 
      1     -20.8437      2.00000
      2     -17.1632      2.00000
      3     -17.1407      2.00000
      4     -17.0990      2.00000
      5     -17.0802      2.00000
      6     -17.0767      2.00000
      7     -13.2944      2.00000
      8     -12.1469      2.00000
      9     -11.8286      2.00000
     10     -11.3467      2.00000
     11      -9.1574      2.00000
     12      -9.1019      2.00000
     13      -7.0726      2.00000
     14      -6.7199      2.00000
     15      -4.7815      2.00000
     16      -4.7357      2.00000
     17      -2.6867      2.00000
     18      -2.4989      2.00000
     19      -1.2006      2.00000
     20      -0.9268      2.00000
     21      -0.7722      2.00000
     22      -0.4026      2.00000
     23      -0.3792      2.00000
     24      -0.1206      2.00000
     25       0.2033      2.00000
     26       4.1357      0.00000
     27       6.5336      0.00000
     28       6.8176      0.00000
     29       7.0848      0.00000
     30       7.5095      0.00000
     31       7.5908      0.00000
     32       8.3110      0.00000

 k-point   762 :       0.0107    0.5000    0.0107
  band No.  band energies     occupation 
      1     -20.8437      2.00000
      2     -17.1632      2.00000
      3     -17.1407      2.00000
      4     -17.0990      2.00000
      5     -17.0802      2.00000
      6     -17.0767      2.00000
      7     -13.2944      2.00000
      8     -12.1471      2.00000
      9     -11.8286      2.00000
     10     -11.3465      2.00000
     11      -9.1574      2.00000
     12      -9.1020      2.00000
     13      -7.0726      2.00000
     14      -6.7184      2.00000
     15      -4.7816      2.00000
     16      -4.7356      2.00000
     17      -2.6884      2.00000
     18      -2.5006      2.00000
     19      -1.1995      2.00000
     20      -0.9280      2.00000
     21      -0.7714      2.00000
     22      -0.4041      2.00000
     23      -0.3787      2.00000
     24      -0.1204      2.00000
     25       0.2030      2.00000
     26       4.1359      0.00000
     27       6.5461      0.00000
     28       6.8149      0.00000
     29       7.0927      0.00000
     30       7.5181      0.00000
     31       7.7374      0.00000
     32       8.2236      0.00000

 k-point   763 :       0.0071    0.5000    0.0071
  band No.  band energies     occupation 
      1     -20.8437      2.00000
      2     -17.1632      2.00000
      3     -17.1407      2.00000
      4     -17.0990      2.00000
      5     -17.0802      2.00000
      6     -17.0767      2.00000
      7     -13.2943      2.00000
      8     -12.1473      2.00000
      9     -11.8287      2.00000
     10     -11.3463      2.00000
     11      -9.1574      2.00000
     12      -9.1021      2.00000
     13      -7.0726      2.00000
     14      -6.7174      2.00000
     15      -4.7817      2.00000
     16      -4.7354      2.00000
     17      -2.6896      2.00000
     18      -2.5019      2.00000
     19      -1.1987      2.00000
     20      -0.9288      2.00000
     21      -0.7708      2.00000
     22      -0.4051      2.00000
     23      -0.3783      2.00000
     24      -0.1202      2.00000
     25       0.2028      2.00000
     26       4.1366      0.00000
     27       6.5450      0.00000
     28       6.8109      0.00000
     29       7.0833      0.00000
     30       7.5084      0.00000
     31       7.6021      0.00000
     32       8.2631      0.00000

 k-point   764 :       0.0036    0.5000    0.0036
  band No.  band energies     occupation 
      1     -20.8437      2.00000
      2     -17.1632      2.00000
      3     -17.1407      2.00000
      4     -17.0990      2.00000
      5     -17.0802      2.00000
      6     -17.0767      2.00000
      7     -13.2943      2.00000
      8     -12.1474      2.00000
      9     -11.8287      2.00000
     10     -11.3462      2.00000
     11      -9.1574      2.00000
     12      -9.1021      2.00000
     13      -7.0726      2.00000
     14      -6.7167      2.00000
     15      -4.7817      2.00000
     16      -4.7354      2.00000
     17      -2.6903      2.00000
     18      -2.5026      2.00000
     19      -1.1982      2.00000
     20      -0.9294      2.00000
     21      -0.7704      2.00000
     22      -0.4057      2.00000
     23      -0.3781      2.00000
     24      -0.1201      2.00000
     25       0.2027      2.00000
     26       4.1366      0.00000
     27       6.5415      0.00000
     28       6.8114      0.00000
     29       7.1054      0.00000
     30       7.6056      0.00000
     31       7.5878      0.00000
     32       8.2608      0.00000


--------------------------------------------------------------------------------------------------------


 soft charge-density along one line, spin component           1
         0         1         2         3         4         5         6         7         8         9
 total charge-density along one line
 
 pseudopotential strength for first ion, spin component:           1
  9.657  12.833  -0.000   0.001   0.009   0.000  -0.003  -0.029
 12.833  17.053  -0.000   0.001   0.012   0.000  -0.004  -0.038
 -0.000  -0.000  -3.915   0.000   0.000   7.636  -0.000  -0.000
  0.001   0.001   0.000  -3.916  -0.002  -0.000   7.637   0.004
  0.009   0.012   0.000  -0.002  -3.934  -0.000   0.004   7.672
  0.000   0.000   7.636  -0.000  -0.000 -16.990   0.000   0.000
 -0.003  -0.004  -0.000   7.637   0.004   0.000 -16.992  -0.009
 -0.029  -0.038  -0.000   0.004   7.672   0.000  -0.009 -17.061
 total augmentation occupancy for first ion, spin component:           1
  8.482  -3.815  -0.000   0.010   0.063  -0.000   0.005   0.040
 -3.815   1.742   0.000  -0.019  -0.151   0.000  -0.004  -0.033
 -0.000   0.000   1.720  -0.000   0.000   0.139  -0.000  -0.000
  0.010  -0.019  -0.000   1.714  -0.041  -0.000   0.139   0.001
  0.063  -0.151   0.000  -0.041   1.371  -0.000   0.001   0.143
 -0.000   0.000   0.139  -0.000  -0.000   0.012  -0.000  -0.000
  0.005  -0.004  -0.000   0.139   0.001  -0.000   0.012   0.001
  0.040  -0.033  -0.000   0.001   0.143  -0.000   0.001   0.016


------------------------ aborting loop because EDIFF is reached ----------------------------------------


 


 total charge     
 
# of ion     s       p       d       tot
----------------------------------------
  1        0.844   1.760   0.000   2.604
  2        1.226   2.788   0.000   4.014
  3        0.638   0.046   0.000   0.684
  4        0.637   0.046   0.000   0.683
  5        0.637   0.046   0.000   0.683
  6        0.599   0.080   0.000   0.679
  7        0.599   0.080   0.000   0.679
  8        0.594   0.080   0.000   0.674
  9        1.519   0.477   9.846  11.841
 10        1.504   2.897   0.008   4.409
 11        1.504   2.897   0.008   4.409
 12        1.505   2.885   0.007   4.397
------------------------------------------------
tot       11.806  14.081   9.870  35.756
 
    FORLOC:  cpu time    0.01: real time    0.01
    FORHF :  cpu time 2344.40: real time 2350.22
    FORNL :  cpu time    0.48: real time    0.48
    STRESS:  cpu time   10.54: real time   10.54
    FORCOR:  cpu time    0.20: real time    0.20
    OFIELD:  cpu time    0.00: real time    0.00

  FORCE on cell =-STRESS in cart. coord.  units (eV):
  Direction    XX          YY          ZZ          XY          YZ          ZX
  --------------------------------------------------------------------------------------
  Alpha Z    46.46596    46.46596    46.46596
  Ewald    -631.85511  -642.25523  -667.21442    -0.07437    -0.09326    21.50540
  Hartree   355.18363   357.51196   342.01493    -0.04920    -0.05742    12.72034
  E(xc)    -154.50013  -154.51188  -154.56229    -0.00019     0.00001     0.04916
  Local    -620.76878  -609.60467  -570.45091     0.12509     0.14509   -33.74839
  n-local   534.15745   531.24657   531.17879    -0.00151     0.00001     0.31548
  augment    11.84431    11.81336    11.70558    -0.00009     0.00002     0.01514
  Kinetic   581.37945   580.86902   582.59392     0.00058     0.00441    -0.74586
  Fock            NaN         NaN         NaN         NaN         NaN         NaN
  -------------------------------------------------------------------------------------
  Total           NaN         NaN         NaN         NaN         NaN         NaN
  in kB           NaN         NaN         NaN         NaN         NaN         NaN
  external pressure =         NaN kB  Pullay stress =        0.00 kB


 VOLUME and BASIS-vectors are now :
 -----------------------------------------------------------------------------
  energy-cutoff  :      500.00
  volume of cell :      248.50
      direct lattice vectors                 reciprocal lattice vectors
     6.290120125  0.000000000  0.000000000     0.158979476 -0.000001969  0.001001495
     0.000077694  6.273890018  0.000000000     0.000000000  0.159390744  0.000003893
    -0.039667571 -0.000153793  6.296915042     0.000000000  0.000000000  0.158807923

  length of vectors
     6.290120125  6.273890018  6.297039986     0.158982630  0.159390744  0.158807923


 FORCES acting on ions:
    Electron-Ion                     Ewald-Force                    Non-Local-Force
 -----------------------------------------------------------------------------------------------
   0.889E+02 -.817E-01 0.171E+02   -.969E+02 0.863E-01 -.179E+02   0.730E+01 -.335E-02 0.825E+00
   -.422E+02 -.768E-02 0.335E+01   0.412E+02 0.321E-02 -.333E+01   0.141E+01 0.128E-02 0.668E-01
   0.171E+02 0.540E-01 0.496E+02   -.184E+02 -.616E-01 -.550E+02   0.135E+01 0.779E-02 0.547E+01
   0.253E+02 -.390E+02 -.177E+02   -.275E+02 0.435E+02 0.200E+02   0.223E+01 -.458E+01 -.241E+01
   0.253E+02 0.389E+02 -.178E+02   -.275E+02 -.434E+02 0.202E+02   0.224E+01 0.457E+01 -.242E+01
   -.271E+02 -.493E+02 0.271E+02   0.300E+02 0.546E+02 -.298E+02   -.297E+01 -.554E+01 0.275E+01
   -.270E+02 0.493E+02 0.270E+02   0.299E+02 -.546E+02 -.296E+02   -.296E+01 0.555E+01 0.273E+01
   -.145E+02 -.753E-01 -.586E+02   0.162E+02 0.820E-01 0.648E+02   -.182E+01 -.679E-02 -.648E+01
   -.317E+02 0.635E-01 -.104E+02   0.304E+02 -.626E-01 0.101E+02   0.114E+01 -.908E-03 0.328E+00
   -.110E+02 0.715E-01 0.416E+01   0.110E+02 -.738E-01 -.408E+01   0.607E-01 0.229E-02 -.782E-01
   -.128E+02 -.220E-01 -.173E+02   0.128E+02 0.215E-01 0.179E+02   0.351E-01 0.456E-03 -.511E+00
   0.167E+01 0.305E-01 -.696E+01   -.112E+01 -.291E-01 0.679E+01   -.551E+00 -.155E-02 0.176E+00
 -----------------------------------------------------------------------------------------------
   -.800E+01 0.222E-02 -.499E+00   -.124E-13 0.122E-14 -.444E-14   0.746E+01 -.191E-02 0.455E+00
 
 
 POSITION                                       TOTAL-FORCE (eV/Angst)
 -----------------------------------------------------------------------------------
      5.63915      6.27350      6.27384              NaN           NaN           NaN
      0.85821      6.27280      0.15665              NaN           NaN           NaN
      5.40518      6.27196      5.19958              NaN           NaN           NaN
      5.26698      0.90190      0.45292              NaN           NaN           NaN
      5.26573      5.37368      0.45579              NaN           NaN           NaN
      1.26776      0.84227      6.03329              NaN           NaN           NaN
      1.26657      5.42716      6.03557              NaN           NaN           NaN
      1.13753     -0.00001      1.16715              NaN           NaN           NaN
      2.97634      3.13707      2.99511              NaN           NaN           NaN
      2.64610      3.13606      6.12444              NaN           NaN           NaN
      2.72152      0.00020      3.18965              NaN           NaN           NaN
      6.03902      3.13830      2.81942              NaN           NaN           NaN
 -----------------------------------------------------------------------------------
    total drift:                                     NaN           NaN           NaN


--------------------------------------------------------------------------------------------------------



  FREE ENERGIE OF THE ION-ELECTRON SYSTEM (eV)
  ---------------------------------------------------
  free  energy   TOTEN  =       -59.87863386 eV

  energy  without entropy=      -59.87863386  energy(sigma->0) =      -59.87863386
 


--------------------------------------------------------------------------------------------------------


    POTLOK:  cpu time    0.43: real time    0.45


--------------------------------------------------------------------------------------------------------




--------------------------------------------------------------------------------------------------------


  
 reached required accuracy - stopping structural energy minimisation
 writing wavefunctions
     LOOP+:  cpu time26769.54: real time26855.13
    4ORBIT:  cpu time    0.00: real time    0.00
 


 total charge     
 
# of ion     s       p       d       tot
----------------------------------------
  1        0.844   1.760   0.000   2.604
  2        1.226   2.788   0.000   4.014
  3        0.638   0.046   0.000   0.684
  4        0.637   0.046   0.000   0.683
  5        0.637   0.046   0.000   0.683
  6        0.599   0.080   0.000   0.679
  7        0.599   0.080   0.000   0.679
  8        0.594   0.080   0.000   0.674
  9        1.519   0.477   9.846  11.841
 10        1.504   2.897   0.008   4.409
 11        1.504   2.897   0.008   4.409
 12        1.505   2.885   0.007   4.397
------------------------------------------------
tot       11.806  14.081   9.870  35.756
 

 total amount of memory used by VASP on root node  1433998. kBytes
========================================================================

   base      :      30000. kBytes
   nonl-proj :     902446. kBytes
   fftplans  :       2925. kBytes
   grid      :       5612. kBytes
   one-center:         46. kBytes
   HF        :        194. kBytes
   nonlr-proj:       2251. kBytes
   wavefun   :     490524. kBytes
 
  
  
 General timing and accounting informations for this job:
 ========================================================
  
                  Total CPU time used (sec):    27048.588
                            User time (sec):    27032.097
                          System time (sec):       16.490
                         Elapsed time (sec):    27135.716
  
                   Maximum memory used (kb):     1849004.
                   Average memory used (kb):           0.
  
                          Minor page faults:      3118494
                          Major page faults:            1
                 Voluntary context switches:       214665
