   2   2   1   0
  0.2258839E+02  0.3997699E-09  0.3997699E-09  0.3997699E-09  0.5000000E-15
  1.000000000000000E-004
  CAR 
 Name                                    
     21.09143500    -15.61611923  301      3.62475711      1.00000000
    -15.616  0.0000E+00  0.0000E+00
    -15.494  0.0000E+00  0.0000E+00
    -15.371  0.0000E+00  0.0000E+00
    -15.249  0.0000E+00  0.0000E+00
    -15.127  0.0000E+00  0.0000E+00
    -15.004  0.0000E+00  0.0000E+00
    -14.882  0.0000E+00  0.0000E+00
    -14.760  0.0000E+00  0.0000E+00
    -14.637  0.0000E+00  0.0000E+00
    -14.515  0.0000E+00  0.0000E+00
    -14.393  0.0000E+00  0.0000E+00
    -14.270  0.0000E+00  0.0000E+00
    -14.148  0.0000E+00  0.0000E+00
    -14.025  0.0000E+00  0.0000E+00
    -13.903  0.1383E+02  0.1693E+01
    -13.781  0.5484E+02  0.8729E+01
    -13.658  0.0000E+00  0.1000E+02
    -13.536  0.0000E+00  0.1000E+02
    -13.414  0.0000E+00  0.1000E+02
    -13.291  0.0000E+00  0.1000E+02
    -13.169  0.0000E+00  0.1000E+02
    -13.047  0.0000E+00  0.1000E+02
    -12.924  0.0000E+00  0.1000E+02
    -12.802  0.0000E+00  0.1000E+02
    -12.680  0.0000E+00  0.1000E+02
    -12.557  0.0000E+00  0.1000E+02
    -12.435  0.0000E+00  0.1000E+02
    -12.312  0.0000E+00  0.1000E+02
    -12.190  0.0000E+00  0.1000E+02
    -12.068  0.0000E+00  0.1000E+02
    -11.945  0.0000E+00  0.1000E+02
    -11.823  0.0000E+00  0.1000E+02
    -11.701  0.0000E+00  0.1000E+02
    -11.578  0.0000E+00  0.1000E+02
    -11.456  0.0000E+00  0.1000E+02
    -11.334  0.0000E+00  0.1000E+02
    -11.211  0.0000E+00  0.1000E+02
    -11.089  0.0000E+00  0.1000E+02
    -10.966  0.0000E+00  0.1000E+02
    -10.844  0.0000E+00  0.1000E+02
    -10.722  0.0000E+00  0.1000E+02
    -10.599  0.0000E+00  0.1000E+02
    -10.477  0.2114E-03  0.1000E+02
    -10.355  0.0000E+00  0.1001E+02
    -10.232  0.0000E+00  0.1001E+02
    -10.110  0.4082E+00  0.1006E+02
     -9.988  0.4133E+00  0.1013E+02
     -9.865  0.0000E+00  0.1014E+02
     -9.743  0.0000E+00  0.1014E+02
     -9.621  0.1556E-10  0.1014E+02
     -9.498  0.9081E+00  0.1025E+02
     -9.376  0.0000E+00  0.1025E+02
     -9.253  0.1756E+01  0.1046E+02
     -9.131  0.0000E+00  0.1055E+02
     -9.009  0.0000E+00  0.1055E+02
     -8.886  0.0000E+00  0.1055E+02
     -8.764  0.1047E+00  0.1056E+02
     -8.642  0.7727E+00  0.1070E+02
     -8.519  0.3012E+00  0.1086E+02
     -8.397  0.4223E+00  0.1114E+02
     -8.275  0.0000E+00  0.1131E+02
     -8.152  0.0000E+00  0.1131E+02
     -8.030  0.9802E-05  0.1131E+02
     -7.908  0.2721E+01  0.1186E+02
     -7.785  0.0000E+00  0.1186E+02
     -7.663  0.1024E+01  0.1199E+02
     -7.540  0.0000E+00  0.1200E+02
     -7.418  0.0000E+00  0.1200E+02
     -7.296  0.0000E+00  0.1200E+02
     -7.173  0.0000E+00  0.1200E+02
     -7.051  0.0000E+00  0.1200E+02
     -6.929  0.0000E+00  0.1200E+02
     -6.806  0.0000E+00  0.1200E+02
     -6.684  0.0000E+00  0.1200E+02
     -6.562  0.0000E+00  0.1200E+02
     -6.439  0.0000E+00  0.1200E+02
     -6.317  0.0000E+00  0.1200E+02
     -6.195  0.0000E+00  0.1200E+02
     -6.072  0.0000E+00  0.1200E+02
     -5.950  0.0000E+00  0.1200E+02
     -5.827  0.0000E+00  0.1200E+02
     -5.705  0.0000E+00  0.1200E+02
     -5.583  0.0000E+00  0.1200E+02
     -5.460  0.0000E+00  0.1200E+02
     -5.338  0.0000E+00  0.1200E+02
     -5.216  0.0000E+00  0.1200E+02
     -5.093  0.0000E+00  0.1200E+02
     -4.971  0.0000E+00  0.1200E+02
     -4.849  0.0000E+00  0.1200E+02
     -4.726  0.0000E+00  0.1200E+02
     -4.604  0.0000E+00  0.1200E+02
     -4.481  0.0000E+00  0.1200E+02
     -4.359  0.0000E+00  0.1200E+02
     -4.237  0.0000E+00  0.1200E+02
     -4.114  0.0000E+00  0.1200E+02
     -3.992  0.0000E+00  0.1200E+02
     -3.870  0.1537E+00  0.1202E+02
     -3.747  0.9034E-07  0.1203E+02
     -3.625  0.3027E+00  0.1218E+02
     -3.503  0.1011E+01  0.1230E+02
     -3.380  0.4540E+01  0.1295E+02
     -3.258  0.0000E+00  0.1295E+02
     -3.136  0.0000E+00  0.1295E+02
     -3.013  0.0000E+00  0.1295E+02
     -2.891  0.1816E+01  0.1318E+02
     -2.768  0.5056E-07  0.1318E+02
     -2.646  0.0000E+00  0.1340E+02
     -2.524  0.0000E+00  0.1340E+02
     -2.401  0.0000E+00  0.1340E+02
     -2.279  0.4147E+00  0.1345E+02
     -2.157  0.4540E+00  0.1353E+02
     -2.034  0.0000E+00  0.1353E+02
     -1.912  0.0000E+00  0.1353E+02
     -1.790  0.0000E+00  0.1353E+02
     -1.667  0.0000E+00  0.1353E+02
     -1.545  0.9098E+00  0.1364E+02
     -1.423  0.0000E+00  0.1375E+02
     -1.300  0.0000E+00  0.1375E+02
     -1.178  0.0000E+00  0.1375E+02
     -1.055  0.0000E+00  0.1375E+02
     -0.933  0.0000E+00  0.1375E+02
     -0.811  0.9083E+00  0.1386E+02
     -0.688  0.0000E+00  0.1397E+02
     -0.566  0.0000E+00  0.1397E+02
     -0.444  0.2103E+00  0.1400E+02
     -0.321  0.0000E+00  0.1419E+02
     -0.199  0.0000E+00  0.1419E+02
     -0.077  0.9081E+00  0.1431E+02
      0.046  0.1919E+01  0.1454E+02
      0.168  0.0000E+00  0.1486E+02
      0.290  0.0000E+00  0.1486E+02
      0.413  0.0000E+00  0.1486E+02
      0.535  0.1816E+01  0.1508E+02
      0.658  0.4540E+00  0.1514E+02
      0.780  0.2867E+01  0.1549E+02
      0.902  0.1816E+01  0.1571E+02
      1.025  0.0000E+00  0.1594E+02
      1.147  0.9081E+00  0.1605E+02
      1.269  0.7773E-03  0.1605E+02
      1.392  0.2014E+01  0.1640E+02
      1.514  0.4267E-09  0.1649E+02
      1.636  0.1816E+01  0.1671E+02
      1.759  0.1797E+01  0.1693E+02
      1.881  0.1816E+01  0.1716E+02
      2.004  0.0000E+00  0.1716E+02
      2.126  0.0000E+00  0.1716E+02
      2.248  0.1816E+01  0.1738E+02
      2.371  0.0000E+00  0.1745E+02
      2.493  0.9090E+00  0.1756E+02
      2.615  0.0000E+00  0.1771E+02
      2.738  0.0000E+00  0.1771E+02
      2.860  0.0000E+00  0.1771E+02
      2.982  0.9081E+00  0.1782E+02
      3.105  0.4119E+00  0.1787E+02
      3.227  0.0000E+00  0.1797E+02
      3.349  0.0000E+00  0.1797E+02
      3.472  0.2469E-07  0.1797E+02
      3.594  0.0000E+00  0.1800E+02
      3.717  0.0000E+00  0.1800E+02
      3.839  0.0000E+00  0.1800E+02
      3.961  0.0000E+00  0.1800E+02
      4.084  0.0000E+00  0.1800E+02
      4.206  0.0000E+00  0.1800E+02
      4.328  0.0000E+00  0.1800E+02
      4.451  0.0000E+00  0.1800E+02
      4.573  0.0000E+00  0.1800E+02
      4.695  0.0000E+00  0.1800E+02
      4.818  0.0000E+00  0.1800E+02
      4.940  0.7510E-01  0.1801E+02
      5.062  0.0000E+00  0.1801E+02
      5.185  0.0000E+00  0.1801E+02
      5.307  0.3027E+00  0.1805E+02
      5.430  0.0000E+00  0.1805E+02
      5.552  0.6054E+00  0.1812E+02
      5.674  0.8569E-15  0.1815E+02
      5.797  0.4540E+00  0.1820E+02
      5.919  0.2270E+00  0.1823E+02
      6.041  0.2416E+01  0.1853E+02
      6.164  0.0000E+00  0.1853E+02
      6.286  0.0000E+00  0.1853E+02
      6.408  0.5807E-13  0.1853E+02
      6.531  0.9081E+00  0.1864E+02
      6.653  0.1816E+01  0.1886E+02
      6.775  0.1910E+01  0.1909E+02
      6.898  0.4432E+00  0.1942E+02
      7.020  0.9081E+00  0.1953E+02
      7.143  0.0000E+00  0.1953E+02
      7.265  0.0000E+00  0.1953E+02
      7.387  0.0000E+00  0.1953E+02
      7.510  0.1355E+01  0.1969E+02
      7.632  0.1814E+01  0.1992E+02
      7.754  0.1817E+01  0.2014E+02
      7.877  0.0000E+00  0.2025E+02
      7.999  0.1816E+01  0.2047E+02
      8.121  0.2270E+00  0.2050E+02
      8.244  0.2033E+01  0.2075E+02
      8.366  0.0000E+00  0.2094E+02
      8.489  0.0000E+00  0.2094E+02
      8.611  0.1224E-01  0.2095E+02
      8.733  0.0000E+00  0.2131E+02
      8.856  0.2724E+01  0.2165E+02
      8.978  0.1396E+01  0.2182E+02
      9.100  0.3632E+01  0.2228E+02
      9.223  0.0000E+00  0.2228E+02
      9.345  0.1209E-10  0.2228E+02
      9.467  0.1816E+01  0.2250E+02
      9.590  0.0000E+00  0.2250E+02
      9.712  0.9568E+00  0.2262E+02
      9.834  0.0000E+00  0.2283E+02
      9.957  0.6290E-02  0.2283E+02
     10.079  0.9054E+00  0.2317E+02
     10.202  0.1780E+01  0.2338E+02
     10.324  0.0000E+00  0.2339E+02
     10.446  0.9081E+00  0.2350E+02
     10.569  0.1816E+01  0.2372E+02
     10.691  0.2789E-03  0.2372E+02
     10.813  0.0000E+00  0.2394E+02
     10.936  0.0000E+00  0.2394E+02
     11.058  0.0000E+00  0.2394E+02
     11.180  0.0000E+00  0.2394E+02
     11.303  0.0000E+00  0.2394E+02
     11.425  0.0000E+00  0.2394E+02
     11.547  0.1816E+01  0.2417E+02
     11.670  0.2118E+01  0.2443E+02
     11.792  0.1502E+01  0.2468E+02
     11.915  0.7158E+00  0.2483E+02
     12.037  0.1353E-11  0.2507E+02
     12.159  0.1138E+01  0.2521E+02
     12.282  0.2724E+01  0.2556E+02
     12.404  0.9081E+00  0.2568E+02
     12.526  0.0000E+00  0.2590E+02
     12.649  0.3715E+00  0.2594E+02
     12.771  0.0000E+00  0.2601E+02
     12.893  0.1441E-04  0.2601E+02
     13.016  0.0000E+00  0.2623E+02
     13.138  0.3101E-02  0.2623E+02
     13.260  0.9125E+00  0.2657E+02
     13.383  0.1519E+00  0.2660E+02
     13.505  0.2912E+01  0.2716E+02
     13.628  0.0000E+00  0.2725E+02
     13.750  0.0000E+00  0.2725E+02
     13.872  0.0000E+00  0.2725E+02
     13.995  0.1816E+01  0.2747E+02
     14.117  0.6185E+00  0.2755E+02
     14.239  0.1338E-01  0.2773E+02
     14.362  0.1821E-04  0.2779E+02
     14.484  0.9081E+00  0.2812E+02
     14.606  0.8264E+00  0.2822E+02
     14.729  0.0000E+00  0.2836E+02
     14.851  0.0000E+00  0.2836E+02
     14.974  0.1183E-09  0.2836E+02
     15.096  0.1111E+01  0.2850E+02
     15.218  0.1356E-13  0.2851E+02
     15.341  0.2281E+01  0.2879E+02
     15.463  0.2202E+01  0.2911E+02
     15.585  0.0000E+00  0.2929E+02
     15.708  0.1366E-11  0.2929E+02
     15.830  0.2172E+01  0.2955E+02
     15.952  0.0000E+00  0.2965E+02
     16.075  0.0000E+00  0.2965E+02
     16.197  0.2945E-03  0.2965E+02
     16.319  0.0000E+00  0.2987E+02
     16.442  0.1818E+01  0.3009E+02
     16.564  0.2384E+01  0.3044E+02
     16.687  0.0000E+00  0.3044E+02
     16.809  0.1514E-05  0.3044E+02
     16.931  0.1603E+01  0.3086E+02
     17.054  0.0000E+00  0.3100E+02
     17.176  0.0000E+00  0.3100E+02
     17.298  0.0000E+00  0.3100E+02
     17.421  0.0000E+00  0.3100E+02
     17.543  0.1601E+01  0.3120E+02
     17.665  0.1157E-05  0.3122E+02
     17.788  0.8198E-10  0.3144E+02
     17.910  0.9658E+00  0.3156E+02
     18.032  0.4540E+00  0.3178E+02
     18.155  0.0000E+00  0.3189E+02
     18.277  0.0000E+00  0.3189E+02
     18.400  0.0000E+00  0.3189E+02
     18.522  0.0000E+00  0.3189E+02
     18.644  0.0000E+00  0.3189E+02
     18.767  0.0000E+00  0.3189E+02
     18.889  0.0000E+00  0.3189E+02
     19.011  0.3659E+00  0.3193E+02
     19.134  0.0000E+00  0.3200E+02
     19.256  0.0000E+00  0.3200E+02
     19.378  0.0000E+00  0.3200E+02
     19.501  0.0000E+00  0.3200E+02
     19.623  0.0000E+00  0.3200E+02
     19.745  0.0000E+00  0.3200E+02
     19.868  0.0000E+00  0.3200E+02
     19.990  0.0000E+00  0.3200E+02
     20.113  0.0000E+00  0.3200E+02
     20.235  0.0000E+00  0.3200E+02
     20.357  0.0000E+00  0.3200E+02
     20.480  0.0000E+00  0.3200E+02
     20.602  0.0000E+00  0.3200E+02
     20.724  0.0000E+00  0.3200E+02
     20.847  0.0000E+00  0.3200E+02
     20.969  0.0000E+00  0.3200E+02
     21.091  0.0000E+00  0.3200E+02
     21.09143500    -15.61611923  301      3.62475711      1.00000000
    -15.616  0.0000E+00  0.0000E+00  0.0000E+00
    -15.494  0.0000E+00  0.0000E+00  0.0000E+00
    -15.371  0.0000E+00  0.0000E+00  0.0000E+00
    -15.249  0.0000E+00  0.0000E+00  0.0000E+00
    -15.127  0.0000E+00  0.0000E+00  0.0000E+00
    -15.004  0.0000E+00  0.0000E+00  0.0000E+00
    -14.882  0.0000E+00  0.0000E+00  0.0000E+00
    -14.760  0.0000E+00  0.0000E+00  0.0000E+00
    -14.637  0.0000E+00  0.0000E+00  0.0000E+00
    -14.515  0.0000E+00  0.0000E+00  0.0000E+00
    -14.393  0.0000E+00  0.0000E+00  0.0000E+00
    -14.270  0.0000E+00  0.0000E+00  0.0000E+00
    -14.148  0.0000E+00  0.0000E+00  0.0000E+00
    -14.025  0.0000E+00  0.0000E+00  0.0000E+00
    -13.903  0.3364E-02  0.6840E-02  0.1338E+02
    -13.781  0.4751E-03  0.2023E-02  0.5423E+02
    -13.658  0.0000E+00  0.0000E+00  0.0000E+00
    -13.536  0.0000E+00  0.0000E+00  0.0000E+00
    -13.414  0.0000E+00  0.0000E+00  0.0000E+00
    -13.291  0.0000E+00  0.0000E+00  0.0000E+00
    -13.169  0.0000E+00  0.0000E+00  0.0000E+00
    -13.047  0.0000E+00  0.0000E+00  0.0000E+00
    -12.924  0.0000E+00  0.0000E+00  0.0000E+00
    -12.802  0.0000E+00  0.0000E+00  0.0000E+00
    -12.680  0.0000E+00  0.0000E+00  0.0000E+00
    -12.557  0.0000E+00  0.0000E+00  0.0000E+00
    -12.435  0.0000E+00  0.0000E+00  0.0000E+00
    -12.312  0.0000E+00  0.0000E+00  0.0000E+00
    -12.190  0.0000E+00  0.0000E+00  0.0000E+00
    -12.068  0.0000E+00  0.0000E+00  0.0000E+00
    -11.945  0.0000E+00  0.0000E+00  0.0000E+00
    -11.823  0.0000E+00  0.0000E+00  0.0000E+00
    -11.701  0.0000E+00  0.0000E+00  0.0000E+00
    -11.578  0.0000E+00  0.0000E+00  0.0000E+00
    -11.456  0.0000E+00  0.0000E+00  0.0000E+00
    -11.334  0.0000E+00  0.0000E+00  0.0000E+00
    -11.211  0.0000E+00  0.0000E+00  0.0000E+00
    -11.089  0.0000E+00  0.0000E+00  0.0000E+00
    -10.966  0.0000E+00  0.0000E+00  0.0000E+00
    -10.844  0.0000E+00  0.0000E+00  0.0000E+00
    -10.722  0.0000E+00  0.0000E+00  0.0000E+00
    -10.599  0.0000E+00  0.0000E+00  0.0000E+00
    -10.477  0.3693E-04  0.8424E-15  0.1219E-14
    -10.355  0.0000E+00  0.0000E+00  0.0000E+00
    -10.232  0.0000E+00  0.0000E+00  0.0000E+00
    -10.110  0.6679E-01  0.2065E-02  0.2647E-02
     -9.988  0.6592E-01  0.2874E-02  0.3329E-02
     -9.865  0.0000E+00  0.0000E+00  0.0000E+00
     -9.743  0.0000E+00  0.0000E+00  0.0000E+00
     -9.621  0.2239E-11  0.2054E-12  0.2284E-12
     -9.498  0.1307E+00  0.1199E-01  0.1333E-01
     -9.376  0.0000E+00  0.0000E+00  0.0000E+00
     -9.253  0.2287E+00  0.3225E-01  0.3225E-01
     -9.131  0.0000E+00  0.0000E+00  0.0000E+00
     -9.009  0.0000E+00  0.0000E+00  0.0000E+00
     -8.886  0.0000E+00  0.0000E+00  0.0000E+00
     -8.764  0.1062E-01  0.3008E-02  0.2407E-02
     -8.642  0.7451E-01  0.2179E-01  0.2161E-01
     -8.519  0.2677E-01  0.8659E-02  0.9580E-02
     -8.397  0.3296E-01  0.1391E-01  0.1344E-01
     -8.275  0.0000E+00  0.0000E+00  0.0000E+00
     -8.152  0.0000E+00  0.0000E+00  0.0000E+00
     -8.030  0.3870E-06  0.4464E-06  0.3316E-06
     -7.908  0.9517E-01  0.1220E+00  0.1013E+00
     -7.785  0.0000E+00  0.0000E+00  0.0000E+00
     -7.663  0.7418E-11  0.5640E-01  0.4010E-01
     -7.540  0.0000E+00  0.0000E+00  0.0000E+00
     -7.418  0.0000E+00  0.0000E+00  0.0000E+00
     -7.296  0.0000E+00  0.0000E+00  0.0000E+00
     -7.173  0.0000E+00  0.0000E+00  0.0000E+00
     -7.051  0.0000E+00  0.0000E+00  0.0000E+00
     -6.929  0.0000E+00  0.0000E+00  0.0000E+00
     -6.806  0.0000E+00  0.0000E+00  0.0000E+00
     -6.684  0.0000E+00  0.0000E+00  0.0000E+00
     -6.562  0.0000E+00  0.0000E+00  0.0000E+00
     -6.439  0.0000E+00  0.0000E+00  0.0000E+00
     -6.317  0.0000E+00  0.0000E+00  0.0000E+00
     -6.195  0.0000E+00  0.0000E+00  0.0000E+00
     -6.072  0.0000E+00  0.0000E+00  0.0000E+00
     -5.950  0.0000E+00  0.0000E+00  0.0000E+00
     -5.827  0.0000E+00  0.0000E+00  0.0000E+00
     -5.705  0.0000E+00  0.0000E+00  0.0000E+00
     -5.583  0.0000E+00  0.0000E+00  0.0000E+00
     -5.460  0.0000E+00  0.0000E+00  0.0000E+00
     -5.338  0.0000E+00  0.0000E+00  0.0000E+00
     -5.216  0.0000E+00  0.0000E+00  0.0000E+00
     -5.093  0.0000E+00  0.0000E+00  0.0000E+00
     -4.971  0.0000E+00  0.0000E+00  0.0000E+00
     -4.849  0.0000E+00  0.0000E+00  0.0000E+00
     -4.726  0.0000E+00  0.0000E+00  0.0000E+00
     -4.604  0.0000E+00  0.0000E+00  0.0000E+00
     -4.481  0.0000E+00  0.0000E+00  0.0000E+00
     -4.359  0.0000E+00  0.0000E+00  0.0000E+00
     -4.237  0.0000E+00  0.0000E+00  0.0000E+00
     -4.114  0.0000E+00  0.0000E+00  0.0000E+00
     -3.992  0.0000E+00  0.0000E+00  0.0000E+00
     -3.870  0.6658E-01  0.6694E-13  0.8277E-03
     -3.747  0.4117E-07  0.1586E-10  0.2124E-09
     -3.625  0.7816E-01  0.1859E-01  0.8417E-04
     -3.503  0.4002E+00  0.2088E-01  0.2463E-02
     -3.380  0.1618E+01  0.1313E+00  0.2355E-01
     -3.258  0.0000E+00  0.0000E+00  0.0000E+00
     -3.136  0.0000E+00  0.0000E+00  0.0000E+00
     -3.013  0.0000E+00  0.0000E+00  0.0000E+00
     -2.891  0.4986E+00  0.9955E-01  0.1425E-01
     -2.768  0.1675E-07  0.1692E-08  0.6170E-09
     -2.646  0.0000E+00  0.0000E+00  0.0000E+00
     -2.524  0.0000E+00  0.0000E+00  0.0000E+00
     -2.401  0.0000E+00  0.0000E+00  0.0000E+00
     -2.279  0.8816E-01  0.3002E-01  0.5238E-02
     -2.157  0.1439E+00  0.1302E-01  0.9180E-02
     -2.034  0.0000E+00  0.0000E+00  0.0000E+00
     -1.912  0.0000E+00  0.0000E+00  0.0000E+00
     -1.790  0.0000E+00  0.0000E+00  0.0000E+00
     -1.667  0.0000E+00  0.0000E+00  0.0000E+00
     -1.545  0.2191E+00  0.5326E-01  0.1828E-01
     -1.423  0.0000E+00  0.0000E+00  0.0000E+00
     -1.300  0.0000E+00  0.0000E+00  0.0000E+00
     -1.178  0.0000E+00  0.0000E+00  0.0000E+00
     -1.055  0.0000E+00  0.0000E+00  0.0000E+00
     -0.933  0.0000E+00  0.0000E+00  0.0000E+00
     -0.811  0.1974E+00  0.5937E-01  0.2168E-01
     -0.688  0.0000E+00  0.0000E+00  0.0000E+00
     -0.566  0.0000E+00  0.0000E+00  0.0000E+00
     -0.444  0.4814E-02  0.3200E-01  0.2485E-02
     -0.321  0.0000E+00  0.0000E+00  0.0000E+00
     -0.199  0.0000E+00  0.0000E+00  0.0000E+00
     -0.077  0.4425E-02  0.1389E+00  0.1445E-01
      0.046  0.1890E-01  0.3232E+00  0.1907E-01
      0.168  0.0000E+00  0.0000E+00  0.0000E+00
      0.290  0.0000E+00  0.0000E+00  0.0000E+00
      0.413  0.0000E+00  0.0000E+00  0.0000E+00
      0.535  0.8420E-01  0.2681E+00  0.3164E-01
      0.658  0.8717E-14  0.8656E-01  0.3259E-02
      0.780  0.2884E+00  0.3350E+00  0.6983E-01
      0.902  0.3861E-02  0.3237E+00  0.2640E-01
      1.025  0.0000E+00  0.0000E+00  0.0000E+00
      1.147  0.6925E-12  0.1667E+00  0.1347E-01
      1.269  0.1742E-04  0.1222E-03  0.1798E-04
      1.392  0.1056E-01  0.3525E+00  0.3855E-01
      1.514  0.1632E-10  0.6381E-10  0.1093E-10
      1.636  0.6946E-01  0.2716E+00  0.4653E-01
      1.759  0.9264E-12  0.3213E+00  0.3905E-01
      1.881  0.1739E-10  0.3132E+00  0.4576E-01
      2.004  0.0000E+00  0.0000E+00  0.0000E+00
      2.126  0.0000E+00  0.0000E+00  0.0000E+00
      2.248  0.9429E-12  0.3112E+00  0.5140E-01
      2.371  0.0000E+00  0.0000E+00  0.0000E+00
      2.493  0.1155E-11  0.1398E+00  0.3370E-01
      2.615  0.0000E+00  0.0000E+00  0.0000E+00
      2.738  0.0000E+00  0.0000E+00  0.0000E+00
      2.860  0.0000E+00  0.0000E+00  0.0000E+00
      2.982  0.1489E-12  0.1326E+00  0.3886E-01
      3.105  0.1593E-12  0.5392E-01  0.2039E-01
      3.227  0.0000E+00  0.0000E+00  0.0000E+00
      3.349  0.0000E+00  0.0000E+00  0.0000E+00
      3.472  0.3593E-19  0.2525E-08  0.1529E-08
      3.594  0.0000E+00  0.0000E+00  0.0000E+00
      3.717  0.0000E+00  0.0000E+00  0.0000E+00
      3.839  0.0000E+00  0.0000E+00  0.0000E+00
      3.961  0.0000E+00  0.0000E+00  0.0000E+00
      4.084  0.0000E+00  0.0000E+00  0.0000E+00
      4.206  0.0000E+00  0.0000E+00  0.0000E+00
      4.328  0.0000E+00  0.0000E+00  0.0000E+00
      4.451  0.0000E+00  0.0000E+00  0.0000E+00
      4.573  0.0000E+00  0.0000E+00  0.0000E+00
      4.695  0.0000E+00  0.0000E+00  0.0000E+00
      4.818  0.0000E+00  0.0000E+00  0.0000E+00
      4.940  0.3078E-01  0.1778E-10  0.2650E-12
      5.062  0.0000E+00  0.0000E+00  0.0000E+00
      5.185  0.0000E+00  0.0000E+00  0.0000E+00
      5.307  0.8925E-01  0.1547E-01  0.5820E-02
      5.430  0.0000E+00  0.0000E+00  0.0000E+00
      5.552  0.1708E+00  0.4219E-01  0.8910E-02
      5.674  0.9428E-16  0.1046E-15  0.2892E-16
      5.797  0.4995E-01  0.5543E-01  0.1533E-01
      5.919  0.4777E-01  0.2605E-10  0.1069E-01
      6.041  0.3324E+00  0.2248E+00  0.8414E-01
      6.164  0.0000E+00  0.0000E+00  0.0000E+00
      6.286  0.0000E+00  0.0000E+00  0.0000E+00
      6.408  0.6757E-14  0.5378E-14  0.2450E-14
      6.531  0.1057E+00  0.8410E-01  0.3831E-01
      6.653  0.3246E+00  0.1627E+00  0.5844E-01
      6.775  0.2996E+00  0.1981E+00  0.6154E-01
      6.898  0.4782E-01  0.2598E-01  0.2071E-01
      7.020  0.2199E+00  0.9726E-01  0.1086E-01
      7.143  0.0000E+00  0.0000E+00  0.0000E+00
      7.265  0.0000E+00  0.0000E+00  0.0000E+00
      7.387  0.0000E+00  0.0000E+00  0.0000E+00
      7.510  0.4873E-01  0.1973E+00  0.5404E-01
      7.632  0.1941E+00  0.1367E+00  0.8329E-01
      7.754  0.2364E+00  0.1405E+00  0.8747E-01
      7.877  0.0000E+00  0.0000E+00  0.0000E+00
      7.999  0.3098E+00  0.9138E-01  0.8400E-01
      8.121  0.7618E-08  0.8755E-01  0.2049E-02
      8.244  0.2248E+00  0.3681E+00  0.3467E-01
      8.366  0.0000E+00  0.0000E+00  0.0000E+00
      8.489  0.0000E+00  0.0000E+00  0.0000E+00
      8.611  0.9814E-08  0.4359E-02  0.2438E-03
      8.733  0.0000E+00  0.0000E+00  0.0000E+00
      8.856  0.1430E+00  0.4444E+00  0.1089E+00
      8.978  0.5394E-09  0.4129E+00  0.5016E-01
      9.100  0.9897E-01  0.6960E+00  0.1547E+00
      9.223  0.0000E+00  0.0000E+00  0.0000E+00
      9.345  0.1304E-13  0.2004E-11  0.6195E-12
      9.467  0.1959E-02  0.3011E+00  0.9306E-01
      9.590  0.0000E+00  0.0000E+00  0.0000E+00
      9.712  0.8278E-12  0.3147E+00  0.3034E-01
      9.834  0.0000E+00  0.0000E+00  0.0000E+00
      9.957  0.6538E-05  0.9091E-03  0.3950E-03
     10.079  0.2105E-01  0.1354E+00  0.3345E-01
     10.202  0.8007E-09  0.3968E+00  0.1037E+00
     10.324  0.0000E+00  0.0000E+00  0.0000E+00
     10.446  0.1217E+00  0.1340E-01  0.2382E-01
     10.569  0.6997E-09  0.5044E+00  0.8585E-01
     10.691  0.2443E-04  0.2820E-04  0.8824E-05
     10.813  0.0000E+00  0.0000E+00  0.0000E+00
     10.936  0.0000E+00  0.0000E+00  0.0000E+00
     11.058  0.0000E+00  0.0000E+00  0.0000E+00
     11.180  0.0000E+00  0.0000E+00  0.0000E+00
     11.303  0.0000E+00  0.0000E+00  0.0000E+00
     11.425  0.0000E+00  0.0000E+00  0.0000E+00
     11.547  0.4190E-01  0.2827E+00  0.9515E-01
     11.670  0.5894E-01  0.3474E+00  0.9297E-01
     11.792  0.1887E-01  0.2948E+00  0.5543E-01
     11.915  0.1263E-02  0.1897E+00  0.3947E-01
     12.037  0.2712E-12  0.3815E-13  0.3273E-13
     12.159  0.5147E-01  0.9322E-01  0.7917E-01
     12.282  0.1009E+00  0.6883E+00  0.1023E+00
     12.404  0.8482E-08  0.2021E-02  0.1151E+00
     12.526  0.0000E+00  0.0000E+00  0.0000E+00
     12.649  0.4757E-10  0.1127E+00  0.1699E-01
     12.771  0.0000E+00  0.0000E+00  0.0000E+00
     12.893  0.2037E-14  0.3566E-05  0.7870E-06
     13.016  0.0000E+00  0.0000E+00  0.0000E+00
     13.138  0.2605E-05  0.5482E-03  0.2753E-03
     13.260  0.9935E-01  0.3993E-01  0.2146E-01
     13.383  0.5038E-02  0.1599E-01  0.9785E-02
     13.505  0.8784E-01  0.1510E+00  0.2860E+00
     13.628  0.0000E+00  0.0000E+00  0.0000E+00
     13.750  0.0000E+00  0.0000E+00  0.0000E+00
     13.872  0.0000E+00  0.0000E+00  0.0000E+00
     13.995  0.5136E-01  0.3331E-01  0.1336E+00
     14.117  0.8066E-10  0.3802E-01  0.7863E-01
     14.239  0.2400E-02  0.2085E-02  0.4975E-04
     14.362  0.1959E-06  0.1787E-05  0.1028E-05
     14.484  0.1158E-02  0.1207E+00  0.6796E-01
     14.606  0.1848E-01  0.1445E+00  0.4507E-01
     14.729  0.0000E+00  0.0000E+00  0.0000E+00
     14.851  0.0000E+00  0.0000E+00  0.0000E+00
     14.974  0.4548E-16  0.4280E-10  0.3725E-11
     15.096  0.2403E-01  0.1657E+00  0.9072E-01
     15.218  0.1694E-14  0.2415E-14  0.8139E-16
     15.341  0.2068E+00  0.3179E+00  0.4835E-01
     15.463  0.6246E-01  0.2655E+00  0.1473E+00
     15.585  0.0000E+00  0.0000E+00  0.0000E+00
     15.708  0.1518E-12  0.2148E-16  0.7597E-14
     15.830  0.2893E-01  0.5258E+00  0.1767E+00
     15.952  0.0000E+00  0.0000E+00  0.0000E+00
     16.075  0.0000E+00  0.0000E+00  0.0000E+00
     16.197  0.2221E-04  0.1722E-04  0.1138E-04
     16.319  0.0000E+00  0.0000E+00  0.0000E+00
     16.442  0.8438E-01  0.1475E+00  0.1173E+00
     16.564  0.7090E-04  0.3679E+00  0.1327E+00
     16.687  0.0000E+00  0.0000E+00  0.0000E+00
     16.809  0.7189E-08  0.8649E-07  0.1593E-06
     16.931  0.2943E-07  0.1962E+00  0.1331E+00
     17.054  0.0000E+00  0.0000E+00  0.0000E+00
     17.176  0.0000E+00  0.0000E+00  0.0000E+00
     17.298  0.0000E+00  0.0000E+00  0.0000E+00
     17.421  0.0000E+00  0.0000E+00  0.0000E+00
     17.543  0.1382E-01  0.4201E+00  0.8155E-01
     17.665  0.1401E-07  0.3949E-06  0.4269E-07
     17.788  0.4498E-11  0.2902E-10  0.2552E-12
     17.910  0.4233E-01  0.2458E+00  0.2093E-01
     18.032  0.1771E-06  0.2035E-01  0.4940E-01
     18.155  0.0000E+00  0.0000E+00  0.0000E+00
     18.277  0.0000E+00  0.0000E+00  0.0000E+00
     18.400  0.0000E+00  0.0000E+00  0.0000E+00
     18.522  0.0000E+00  0.0000E+00  0.0000E+00
     18.644  0.0000E+00  0.0000E+00  0.0000E+00
     18.767  0.0000E+00  0.0000E+00  0.0000E+00
     18.889  0.0000E+00  0.0000E+00  0.0000E+00
     19.011  0.1103E-01  0.5142E-01  0.9895E-03
     19.134  0.0000E+00  0.0000E+00  0.0000E+00
     19.256  0.0000E+00  0.0000E+00  0.0000E+00
     19.378  0.0000E+00  0.0000E+00  0.0000E+00
     19.501  0.0000E+00  0.0000E+00  0.0000E+00
     19.623  0.0000E+00  0.0000E+00  0.0000E+00
     19.745  0.0000E+00  0.0000E+00  0.0000E+00
     19.868  0.0000E+00  0.0000E+00  0.0000E+00
     19.990  0.0000E+00  0.0000E+00  0.0000E+00
     20.113  0.0000E+00  0.0000E+00  0.0000E+00
     20.235  0.0000E+00  0.0000E+00  0.0000E+00
     20.357  0.0000E+00  0.0000E+00  0.0000E+00
     20.480  0.0000E+00  0.0000E+00  0.0000E+00
     20.602  0.0000E+00  0.0000E+00  0.0000E+00
     20.724  0.0000E+00  0.0000E+00  0.0000E+00
     20.847  0.0000E+00  0.0000E+00  0.0000E+00
     20.969  0.0000E+00  0.0000E+00  0.0000E+00
     21.091  0.0000E+00  0.0000E+00  0.0000E+00
     21.09143500    -15.61611923  301      3.62475711      1.00000000
    -15.616  0.0000E+00  0.0000E+00  0.0000E+00
    -15.494  0.0000E+00  0.0000E+00  0.0000E+00
    -15.371  0.0000E+00  0.0000E+00  0.0000E+00
    -15.249  0.0000E+00  0.0000E+00  0.0000E+00
    -15.127  0.0000E+00  0.0000E+00  0.0000E+00
    -15.004  0.0000E+00  0.0000E+00  0.0000E+00
    -14.882  0.0000E+00  0.0000E+00  0.0000E+00
    -14.760  0.0000E+00  0.0000E+00  0.0000E+00
    -14.637  0.0000E+00  0.0000E+00  0.0000E+00
    -14.515  0.0000E+00  0.0000E+00  0.0000E+00
    -14.393  0.0000E+00  0.0000E+00  0.0000E+00
    -14.270  0.0000E+00  0.0000E+00  0.0000E+00
    -14.148  0.0000E+00  0.0000E+00  0.0000E+00
    -14.025  0.0000E+00  0.0000E+00  0.0000E+00
    -13.903  0.2093E+00  0.4384E-02  0.1203E-02
    -13.781  0.1192E-02  0.6371E-01  0.1550E-01
    -13.658  0.0000E+00  0.0000E+00  0.0000E+00
    -13.536  0.0000E+00  0.0000E+00  0.0000E+00
    -13.414  0.0000E+00  0.0000E+00  0.0000E+00
    -13.291  0.0000E+00  0.0000E+00  0.0000E+00
    -13.169  0.0000E+00  0.0000E+00  0.0000E+00
    -13.047  0.0000E+00  0.0000E+00  0.0000E+00
    -12.924  0.0000E+00  0.0000E+00  0.0000E+00
    -12.802  0.0000E+00  0.0000E+00  0.0000E+00
    -12.680  0.0000E+00  0.0000E+00  0.0000E+00
    -12.557  0.0000E+00  0.0000E+00  0.0000E+00
    -12.435  0.0000E+00  0.0000E+00  0.0000E+00
    -12.312  0.0000E+00  0.0000E+00  0.0000E+00
    -12.190  0.0000E+00  0.0000E+00  0.0000E+00
    -12.068  0.0000E+00  0.0000E+00  0.0000E+00
    -11.945  0.0000E+00  0.0000E+00  0.0000E+00
    -11.823  0.0000E+00  0.0000E+00  0.0000E+00
    -11.701  0.0000E+00  0.0000E+00  0.0000E+00
    -11.578  0.0000E+00  0.0000E+00  0.0000E+00
    -11.456  0.0000E+00  0.0000E+00  0.0000E+00
    -11.334  0.0000E+00  0.0000E+00  0.0000E+00
    -11.211  0.0000E+00  0.0000E+00  0.0000E+00
    -11.089  0.0000E+00  0.0000E+00  0.0000E+00
    -10.966  0.0000E+00  0.0000E+00  0.0000E+00
    -10.844  0.0000E+00  0.0000E+00  0.0000E+00
    -10.722  0.0000E+00  0.0000E+00  0.0000E+00
    -10.599  0.0000E+00  0.0000E+00  0.0000E+00
    -10.477  0.9130E-04  0.1104E-15  0.1254E-15
    -10.355  0.0000E+00  0.0000E+00  0.0000E+00
    -10.232  0.0000E+00  0.0000E+00  0.0000E+00
    -10.110  0.1785E+00  0.1076E-02  0.3580E-04
     -9.988  0.1816E+00  0.1472E-02  0.4324E-04
     -9.865  0.0000E+00  0.0000E+00  0.0000E+00
     -9.743  0.0000E+00  0.0000E+00  0.0000E+00
     -9.621  0.7034E-11  0.8820E-13  0.3646E-14
     -9.498  0.4104E+00  0.5146E-02  0.2127E-03
     -9.376  0.0000E+00  0.0000E+00  0.0000E+00
     -9.253  0.8150E+00  0.1202E-01  0.5452E-03
     -9.131  0.0000E+00  0.0000E+00  0.0000E+00
     -9.009  0.0000E+00  0.0000E+00  0.0000E+00
     -8.886  0.0000E+00  0.0000E+00  0.0000E+00
     -8.764  0.5125E-01  0.8660E-03  0.3774E-04
     -8.642  0.3905E+00  0.4320E-02  0.4168E-03
     -8.519  0.1579E+00  0.4915E-03  0.2626E-03
     -8.397  0.2235E+00  0.1549E-02  0.2688E-03
     -8.275  0.0000E+00  0.0000E+00  0.0000E+00
     -8.152  0.0000E+00  0.0000E+00  0.0000E+00
     -8.030  0.5504E-05  0.3981E-07  0.3583E-08
     -7.908  0.1563E+01  0.6186E-02  0.9297E-03
     -7.785  0.0000E+00  0.0000E+00  0.0000E+00
     -7.663  0.6219E+00  0.4495E-05  0.1906E-03
     -7.540  0.0000E+00  0.0000E+00  0.0000E+00
     -7.418  0.0000E+00  0.0000E+00  0.0000E+00
     -7.296  0.0000E+00  0.0000E+00  0.0000E+00
     -7.173  0.0000E+00  0.0000E+00  0.0000E+00
     -7.051  0.0000E+00  0.0000E+00  0.0000E+00
     -6.929  0.0000E+00  0.0000E+00  0.0000E+00
     -6.806  0.0000E+00  0.0000E+00  0.0000E+00
     -6.684  0.0000E+00  0.0000E+00  0.0000E+00
     -6.562  0.0000E+00  0.0000E+00  0.0000E+00
     -6.439  0.0000E+00  0.0000E+00  0.0000E+00
     -6.317  0.0000E+00  0.0000E+00  0.0000E+00
     -6.195  0.0000E+00  0.0000E+00  0.0000E+00
     -6.072  0.0000E+00  0.0000E+00  0.0000E+00
     -5.950  0.0000E+00  0.0000E+00  0.0000E+00
     -5.827  0.0000E+00  0.0000E+00  0.0000E+00
     -5.705  0.0000E+00  0.0000E+00  0.0000E+00
     -5.583  0.0000E+00  0.0000E+00  0.0000E+00
     -5.460  0.0000E+00  0.0000E+00  0.0000E+00
     -5.338  0.0000E+00  0.0000E+00  0.0000E+00
     -5.216  0.0000E+00  0.0000E+00  0.0000E+00
     -5.093  0.0000E+00  0.0000E+00  0.0000E+00
     -4.971  0.0000E+00  0.0000E+00  0.0000E+00
     -4.849  0.0000E+00  0.0000E+00  0.0000E+00
     -4.726  0.0000E+00  0.0000E+00  0.0000E+00