       N       E                     dE             d eps       ncg     rms          ort
DAV:   1     0.778488122144E+03    0.77849E+03   -0.34783E+04  9552   0.635E+03
DAV:   2     0.120292038060E+03   -0.65820E+03   -0.61039E+03  9552   0.157E+03
DAV:   3     0.362775472942E+02   -0.84014E+02   -0.80080E+02  9552   0.205E+02
DAV:   4     0.312625309149E+02   -0.50150E+01   -0.49677E+01  9552   0.527E+01
DAV:   5     0.311857737494E+02   -0.76757E-01   -0.76738E-01  9552   0.674E+00
SDA:   6    -0.944739381720E+01   -0.40633E+02   -0.76738E-01  9552   0.220E+01 0.000E+00
CGA:   7    -0.973889694530E+01   -0.29150E+00   -0.29459E+00  9552   0.164E+00-0.165E-02
CGA:   8    -0.980053847957E+01   -0.61642E-01   -0.60960E-01  9552   0.117E+00 0.379E-02
CGA:   9    -0.983361312018E+01   -0.33075E-01   -0.32958E-01  9552   0.293E-01 0.127E-02
CGA:  10    -0.984229606399E+01   -0.86829E-02   -0.86507E-02  9552   0.128E-01 0.309E-03
CGA:  11    -0.984487689679E+01   -0.25808E-02   -0.25812E-02  9552   0.202E-02 0.673E-05
CGA:  12    -0.984541942953E+01   -0.54253E-03   -0.54212E-03  9552   0.722E-03 0.623E-05
CGA:  13    -0.984560058224E+01   -0.18115E-03   -0.18124E-03  9552   0.324E-03-0.289E-05
CGA:  14    -0.984567258625E+01   -0.72004E-04   -0.72027E-04  9552   0.131E-03-0.372E-05
CGA:  15    -0.984570196666E+01   -0.29380E-04   -0.29404E-04  9552   0.610E-04-0.222E-05
CGA:  16    -0.984571442455E+01   -0.12458E-04   -0.12453E-04  9552   0.221E-04-0.540E-06
CGA:  17    -0.984571899849E+01   -0.45739E-05   -0.45699E-05  9552   0.789E-05-0.483E-06
CGA:  18    -0.984572071746E+01   -0.17190E-05   -0.17199E-05  9552   0.295E-05-0.183E-06
CGA:  19    -0.984572128458E+01   -0.56712E-06   -0.56675E-06  9552   0.108E-05-0.487E-07
   1 F= -.98457213E+01 E0= -.98457213E+01  d E =-.984572E+01
