 vasp.5.4.1 24Jun15 (build Nov 25 2015 16:01:35) complex                        
  
 executed on         CrayXC-Intel date 2016.07.12  03:58:45
 running on   96 total cores
 distrk:  each k-point on   24 cores,    4 groups
 distr:  one band on NCORES_PER_BAND=   3 cores,    8 groups


--------------------------------------------------------------------------------------------------------


 INCAR:
 POTCAR:    PAW_PBE C 08Apr2002                   
 POTCAR:    PAW_PBE N 08Apr2002                   
 POTCAR:    PAW_PBE H 15Jun2001                   
 POTCAR:    PAW_PBE Pb_d 06Sep2000                
 POTCAR:    PAW_PBE I 08Apr2002                   

 ----------------------------------------------------------------------------- 
|                                                                             |
|           W    W    AA    RRRRR   N    N  II  N    N   GGGG   !!!           |
|           W    W   A  A   R    R  NN   N  II  NN   N  G    G  !!!           |
|           W    W  A    A  R    R  N N  N  II  N N  N  G       !!!           |
|           W WW W  AAAAAA  RRRRR   N  N N  II  N  N N  G  GGG   !            |
|           WW  WW  A    A  R   R   N   NN  II  N   NN  G    G                |
|           W    W  A    A  R    R  N    N  II  N    N   GGGG   !!!           |
|                                                                             |
|      For optimal performance we recommend to set                            |
|        NCORE= 4 - approx SQRT( number of cores)                             |
|      NCORE specifies how many cores store one orbital (NPAR=cpu/NCORE).     |
|      This setting can  greatly improve the performance of VASP for DFT.     |
|      The default, NPAR=number of cores might be grossly inefficient         |
|      on modern multi-core architectures or massively parallel machines.     |
|      Do your own testing !!!!                                               |
|      Unfortunately you need to use the default for GW and RPA calculations. |
|      (for HF NCORE is supported but not extensively tested yet)             |
|                                                                             |
 ----------------------------------------------------------------------------- 


 ----------------------------------------------------------------------------- 
|                                                                             |
|           W    W    AA    RRRRR   N    N  II  N    N   GGGG   !!!           |
|           W    W   A  A   R    R  NN   N  II  NN   N  G    G  !!!           |
|           W    W  A    A  R    R  N N  N  II  N N  N  G       !!!           |
|           W WW W  AAAAAA  RRRRR   N  N N  II  N  N N  G  GGG   !            |
|           WW  WW  A    A  R   R   N   NN  II  N   NN  G    G                |
|           W    W  A    A  R    R  N    N  II  N    N   GGGG   !!!           |
|                                                                             |
|      You have enabled k-point parallelism (KPAR>1).                         |
|      This developmental code was originally  written by Paul Kent at ORNL,  |
|      and carefully double checked in Vienna.                                |
|      GW as well as linear response parallelism added by Martijn Marsman     |
|      and Georg Kresse.                                                      |
|      Carefully verify results versus KPAR=1.                                |
|      Report problems to Paul Kent and Vienna.                               |
|                                                                             |
 ----------------------------------------------------------------------------- 

 POTCAR:    PAW_PBE C 08Apr2002                   
   VRHFIN =C: s2p2                                                              
   LEXCH  = PE                                                                  
   EATOM  =   147.1560 eV,   10.8157 Ry                                         
                                                                                
   TITEL  = PAW_PBE C 08Apr2002                                                 
   LULTRA =        F    use ultrasoft PP ?                                      
   IUNSCR =        1    unscreen: 0-lin 1-nonlin 2-no                           
   RPACOR =    1.200    partial core radius                                     
   POMASS =   12.011; ZVAL   =    4.000    mass and valenz                      
   RCORE  =    1.500    outmost cutoff radius                                   
   RWIGS  =    1.630; RWIGS  =    0.863    wigner-seitz radius (au A)           
   ENMAX  =  400.000; ENMIN  =  300.000 eV                                      
   ICORE  =        2    local potential                                         
   LCOR   =        T    correct aug charges                                     
   LPAW   =        T    paw PP                                                  
   EAUG   =  644.873                                                            
   DEXC   =    0.000                                                            
   RMAX   =    1.529    core radius for proj-oper                               
   RAUG   =    1.300    factor for augmentation sphere                          
   RDEP   =    1.501    radius for radial grids                                 
   RDEPT  =    1.300    core radius for aug-charge                              
                                                                                
   Atomic configuration                                                         
    4 entries                                                                   
     n  l   j            E        occ.                                          
     1  0  0.50      -273.3789   2.0000                                         
     2  0  0.50       -13.7508   2.0000                                         
     2  1  0.50        -5.2854   2.0000                                         
     3  2  1.50        -5.4423   0.0000                                         
   Description                                                                  
     l       E           TYP  RCUT    TYP  RCUT                                 
     0    -13.7508458     23  1.200                                             
     0     -8.2022199     23  1.200                                             
     1     -5.2854383     23  1.500                                             
     1     34.0145650     23  1.500                                             
     2     -5.4423304      7  1.500                                             
  local pseudopotential read in
  partial core-charges read in
  partial kinetic energy density read in
  atomic valenz-charges read in
  non local Contribution for L=           0  read in
    real space projection operators read in
  non local Contribution for L=           0  read in
    real space projection operators read in
  non local Contribution for L=           1  read in
    real space projection operators read in
  non local Contribution for L=           1  read in
    real space projection operators read in
    PAW grid and wavefunctions read in
 
   number of l-projection  operators is LMAX  =           4
   number of lm-projection operators is LMMAX =           8
 
 POTCAR:    PAW_PBE N 08Apr2002                   
   VRHFIN =N: s2p3                                                              
   LEXCH  = PE                                                                  
   EATOM  =   264.5486 eV,   19.4438 Ry                                         
                                                                                
   TITEL  = PAW_PBE N 08Apr2002                                                 
   LULTRA =        F    use ultrasoft PP ?                                      
   IUNSCR =        1    unscreen: 0-lin 1-nonlin 2-no                           
   RPACOR =    1.200    partial core radius                                     
   POMASS =   14.001; ZVAL   =    5.000    mass and valenz                      
   RCORE  =    1.500    outmost cutoff radius                                   
   RWIGS  =    1.400; RWIGS  =    0.741    wigner-seitz radius (au A)           
   ENMAX  =  400.000; ENMIN  =  300.000 eV                                      
   ICORE  =        2    local potential                                         
   LCOR   =        T    correct aug charges                                     
   LPAW   =        T    paw PP                                                  
   EAUG   =  627.112                                                            
   DEXC   =    0.000                                                            
   RMAX   =    1.529    core radius for proj-oper                               
   RAUG   =    1.300    factor for augmentation sphere                          
   RDEP   =    1.514    radius for radial grids                                 
   RDEPT  =    1.338    core radius for aug-charge                              
                                                                                
   Atomic configuration                                                         
    4 entries                                                                   
     n  l   j            E        occ.                                          
     1  0  0.50      -384.7179   2.0000                                         
     2  0  0.50       -18.5828   2.0000                                         
     2  1  0.50        -7.0898   3.0000                                         
     3  2  1.50        -6.8029   0.0000                                         
   Description                                                                  
     l       E           TYP  RCUT    TYP  RCUT                                 
     0    -18.5828119     23  1.200                                             
     0    -13.5018863     23  1.200                                             
     1     -7.0897853     23  1.500                                             
     1      9.5240782     23  1.500                                             
     2     -6.8029130      7  1.500                                             
  local pseudopotential read in
  partial core-charges read in
  partial kinetic energy density read in
  atomic valenz-charges read in
  non local Contribution for L=           0  read in
    real space projection operators read in
  non local Contribution for L=           0  read in
    real space projection operators read in
  non local Contribution for L=           1  read in
    real space projection operators read in
  non local Contribution for L=           1  read in
    real space projection operators read in
    PAW grid and wavefunctions read in
 
   number of l-projection  operators is LMAX  =           4
   number of lm-projection operators is LMMAX =           8
 
 POTCAR:    PAW_PBE H 15Jun2001                   
   VRHFIN =H: ultrasoft test                                                    
   LEXCH  = PE                                                                  
   EATOM  =    12.4884 eV,    0.9179 Ry                                         
                                                                                
   TITEL  = PAW_PBE H 15Jun2001                                                 
   LULTRA =        F    use ultrasoft PP ?                                      
   IUNSCR =        0    unscreen: 0-lin 1-nonlin 2-no                           
   RPACOR =    0.000    partial core radius                                     
   POMASS =    1.000; ZVAL   =    1.000    mass and valenz                      
   RCORE  =    1.100    outmost cutoff radius                                   
   RWIGS  =    0.700; RWIGS  =    0.370    wigner-seitz radius (au A)           
   ENMAX  =  250.000; ENMIN  =  200.000 eV                                      
   RCLOC  =    0.701    cutoff for local pot                                    
   LCOR   =        T    correct aug charges                                     
   LPAW   =        T    paw PP                                                  
   EAUG   =  400.000                                                            
   RMAX   =    1.123    core radius for proj-oper                               
   RAUG   =    1.200    factor for augmentation sphere                          
   RDEP   =    1.112    radius for radial grids                                 
   RDEPT  =    0.926    core radius for aug-charge                              
                                                                                
   Atomic configuration                                                         
    2 entries                                                                   
     n  l   j            E        occ.                                          
     1  0  0.50        -6.4927   1.0000                                         
     2  1  0.50        -3.4015   0.0000                                         
   Description                                                                  
     l       E           TYP  RCUT    TYP  RCUT                                 
     0     -6.4927494     23  1.100                                             
     0      6.8029130     23  1.100                                             
     1     -4.0817478     23  1.100                                             
  local pseudopotential read in
  atomic valenz-charges read in
  non local Contribution for L=           0  read in
    real space projection operators read in
  non local Contribution for L=           0  read in
    real space projection operators read in
  non local Contribution for L=           1  read in
    real space projection operators read in
    PAW grid and wavefunctions read in
 
   number of l-projection  operators is LMAX  =           3
   number of lm-projection operators is LMMAX =           5
 
 POTCAR:    PAW_PBE Pb_d 06Sep2000                
   VRHFIN =Pb:                                                                  
   LEXCH  = PE                                                                  
   EATOM  =  1661.6185 eV,  122.1255 Ry                                         
                                                                                
   TITEL  = PAW_PBE Pb_d 06Sep2000                                              
   LULTRA =        F    use ultrasoft PP ?                                      
   IUNSCR =        1    unscreen: 0-lin 1-nonlin 2-no                           
   RPACOR =    2.200    partial core radius                                     
   POMASS =  207.200; ZVAL   =   14.000    mass and valenz                      
   RCORE  =    2.500    outmost cutoff radius                                   
   RWIGS  =    3.260; RWIGS  =    1.725    wigner-seitz radius (au A)           
   ENMAX  =  237.835; ENMIN  =  178.376 eV                                      
   ICORE  =        3    local potential                                         
   LCOR   =        T    correct aug charges                                     
   LPAW   =        T    paw PP                                                  
   EAUG   =  391.914                                                            
   DEXC   =    0.000                                                            
   RMAX   =    2.565    core radius for proj-oper                               
   RAUG   =    1.300    factor for augmentation sphere                          
   RDEP   =    2.643    radius for radial grids                                 
   RDEPT  =    2.092    core radius for aug-charge                              
                                                                                
   Atomic configuration                                                         
   16 entries                                                                   
     n  l   j            E        occ.                                          
     1  0  0.50    -88091.8466   2.0000                                         
     2  0  0.50    -15753.4197   2.0000                                         
     2  1  1.50    -13508.1797   6.0000                                         
     3  0  0.50     -3781.7194   2.0000                                         
     3  1  1.50     -3138.2529   6.0000                                         
     3  2  2.50     -2483.2977  10.0000                                         
     4  0  0.50      -856.2895   2.0000                                         
     4  1  1.50      -645.4942   6.0000                                         
     4  2  2.50      -401.8768  10.0000                                         
     4  3  3.50      -132.9059  14.0000                                         
     5  0  0.50      -144.0950   2.0000                                         
     5  1  1.50       -85.7879   6.0000                                         
     5  2  2.50       -21.1769  10.0000                                         
     6  0  0.50       -12.0372   2.0000                                         
     6  1  1.50        -3.4971   2.0000                                         
     5  3  2.50        -2.7212   0.0000                                         
   Description                                                                  
     l       E           TYP  RCUT    TYP  RCUT                                 
     2    -21.1768523     23  2.500                                             
     2      1.3605826     23  2.500                                             
     0    -12.0371562     23  2.500                                             
     0     13.6058260     23  2.500                                             
     1     -3.4971339     23  2.500                                             
     1     13.6058260     23  2.500                                             
     3     -1.3605826      7  2.500                                             
  local pseudopotential read in
  partial core-charges read in
  partial kinetic energy density read in
  atomic valenz-charges read in
  non local Contribution for L=           2  read in
    real space projection operators read in
  non local Contribution for L=           2  read in
    real space projection operators read in
  non local Contribution for L=           0  read in
    real space projection operators read in
  non local Contribution for L=           0  read in
    real space projection operators read in
  non local Contribution for L=           1  read in
    real space projection operators read in
  non local Contribution for L=           1  read in
    real space projection operators read in
    PAW grid and wavefunctions read in
 
   number of l-projection  operators is LMAX  =           6
   number of lm-projection operators is LMMAX =          18
 
 POTCAR:    PAW_PBE I 08Apr2002                   
   VRHFIN =I : s2p5                                                             
   LEXCH  = PE                                                                  
   EATOM  =   315.8678 eV,   23.2156 Ry                                         
                                                                                
   TITEL  = PAW_PBE I 08Apr2002                                                 
   LULTRA =        F    use ultrasoft PP ?                                      
   IUNSCR =        1    unscreen: 0-lin 1-nonlin 2-no                           
   RPACOR =    2.200    partial core radius                                     
   POMASS =  126.904; ZVAL   =    7.000    mass and valenz                      
   RCORE  =    2.300    outmost cutoff radius                                   
   RWIGS  =    2.810; RWIGS  =    1.487    wigner-seitz radius (au A)           
   ENMAX  =  175.647; ENMIN  =  131.735 eV                                      
   ICORE  =        3    local potential                                         
   LCOR   =        T    correct aug charges                                     
   LPAW   =        T    paw PP                                                  
   EAUG   =  370.139                                                            
   DEXC   =    0.000                                                            
   RMAX   =    2.359    core radius for proj-oper                               
   RAUG   =    1.300    factor for augmentation sphere                          
   RDEP   =    2.392    radius for radial grids                                 
   RDEPT  =    2.170    core radius for aug-charge                              
                                                                                
   Atomic configuration                                                         
   13 entries                                                                   
     n  l   j            E        occ.                                          
     1  0  0.50    -32976.3739   2.0000                                         
     2  0  0.50     -5094.5933   2.0000                                         
     2  1  1.50     -4572.0131   6.0000                                         
     3  0  0.50     -1028.2813   2.0000                                         
     3  1  1.50      -859.0250   6.0000                                         
     3  2  2.50      -605.7620  10.0000                                         
     4  0  0.50      -180.5540   2.0000                                         
     4  1  1.50      -127.5306   6.0000                                         
     4  2  2.50       -50.2720  10.0000                                         
     5  0  0.50       -17.4058   2.0000                                         
     5  1  0.50        -7.0851   5.0000                                         
     5  2  1.50        -7.0750   0.0000                                         
     4  3  2.50        -7.0750   0.0000                                         
   Description                                                                  
     l       E           TYP  RCUT    TYP  RCUT                                 
     0    -17.4058016     23  2.300                                             
     0    -18.7663842     23  2.300                                             
     1     -7.0850686     23  2.300                                             
     1     -4.2150896     23  2.300                                             
     2     -7.0750295     23  2.300                                             
     3     -1.3605826     23  2.300                                             
  local pseudopotential read in
  partial core-charges read in
  partial kinetic energy density read in
  atomic valenz-charges read in
  non local Contribution for L=           0  read in
    real space projection operators read in
  non local Contribution for L=           0  read in
    real space projection operators read in
  non local Contribution for L=           1  read in
    real space projection operators read in
  non local Contribution for L=           1  read in
    real space projection operators read in
  non local Contribution for L=           2  read in
    real space projection operators read in
    PAW grid and wavefunctions read in
 
   number of l-projection  operators is LMAX  =           5
   number of lm-projection operators is LMMAX =          13
 

 ----------------------------------------------------------------------------- 
|                                                                             |
|  ADVICE TO THIS USER RUNNING 'VASP/VAMP'   (HEAR YOUR MASTER'S VOICE ...):  |
|                                                                             |
|      You have a (more or less) 'large supercell' and for larger cells       |
|      it might be more efficient to use real space projection opertators     |
|      So try LREAL= Auto  in the INCAR   file.                               |
|      Mind: At the moment your POTCAR file does not contain real space       |
|       projectors, and has to be modified,  BUT if you                       |
|      want to do an extremely  accurate calculation you might also keep the  |
|      reciprocal projection scheme          (i.e. LREAL=.FALSE.)             |
|                                                                             |
 ----------------------------------------------------------------------------- 


 ----------------------------------------------------------------------------- 
|                                                                             |
|  ADVICE TO THIS USER RUNNING 'VASP/VAMP'   (HEAR YOUR MASTER'S VOICE ...):  |
|                                                                             |
|      You enforced a specific xc-type in the INCAR file,                     |
|      a different type was found on the POTCAR file                          |
|          I HOPE YOU KNOW, WHAT YOU ARE  DOING                               |
|                                                                             |
 ----------------------------------------------------------------------------- 

  PAW_PBE C 08Apr2002                   :
 energy of atom  1       EATOM= -147.1560
 kinetic energy error for atom=    0.0032 (will be added to EATOM!!)
  PAW_PBE N 08Apr2002                   :
 energy of atom  2       EATOM= -264.5486
 kinetic energy error for atom=    0.0061 (will be added to EATOM!!)
  PAW_PBE H 15Jun2001                   :
 energy of atom  3       EATOM=  -12.4884
 kinetic energy error for atom=    0.0002 (will be added to EATOM!!)
  PAW_PBE Pb_d 06Sep2000                :
 energy of atom  4       EATOM=-1661.6185
 kinetic energy error for atom=    0.0012 (will be added to EATOM!!)
  PAW_PBE I 08Apr2002                   :
 energy of atom  5       EATOM= -315.8678
 kinetic energy error for atom=    0.0003 (will be added to EATOM!!)
 
 
 POSCAR: C N H Pb I                              
  positions in direct lattice
  No initial velocities read in
 exchange correlation table for  LEXCH =       14
   RHO(1)=    0.500       N(1)  =     2000
   RHO(2)=  100.500       N(2)  =     4000
 


--------------------------------------------------------------------------------------------------------


 ion  position               nearest neighbor table
   1  0.179  0.250  0.257-  33 1.11  25 1.11  17 1.14   9 1.53
   2  0.715  0.250  0.201-  34 1.11  26 1.11  18 1.14  10 1.54
   3  0.215  0.750  0.201-  35 1.11  27 1.11  19 1.14  11 1.54
   4  0.679  0.750  0.257-  36 1.11  28 1.11  20 1.14  12 1.53
   5  0.179  0.250  0.757-  37 1.11  29 1.11  21 1.14  13 1.53
   6  0.715  0.250  0.701-  38 1.11  30 1.11  22 1.14  14 1.54
   7  0.215  0.750  0.701-  39 1.11  31 1.11  23 1.14  15 1.54
   8  0.679  0.750  0.757-  40 1.11  32 1.11  24 1.14  16 1.53
   9  0.300  0.250  0.272-  41 1.06  49 1.06  57 1.10   1 1.53
  10  0.810  0.250  0.275-  42 1.06  50 1.06  58 1.08   2 1.54
  11  0.310  0.750  0.275-  43 1.06  51 1.06  59 1.08   3 1.54
  12  0.800  0.750  0.272-  44 1.06  52 1.06  60 1.10   4 1.53
  13  0.300  0.250  0.772-  45 1.06  53 1.06  61 1.10   5 1.53
  14  0.810  0.250  0.775-  46 1.06  54 1.06  62 1.08   6 1.54
  15  0.310  0.750  0.775-  47 1.06  55 1.06  63 1.08   7 1.54
  16  0.800  0.750  0.772-  48 1.06  56 1.06  64 1.10   8 1.53
  17  0.162  0.250  0.170-   1 1.14
  18  0.748  0.250  0.116-   2 1.14
  19  0.248  0.750  0.116-   3 1.14
  20  0.662  0.750  0.170-   4 1.14
  21  0.162  0.250  0.670-   5 1.14
  22  0.748  0.250  0.616-   6 1.14
  23  0.248  0.750  0.616-   7 1.14
  24  0.662  0.750  0.670-   8 1.14
  25  0.143  0.322  0.295-   1 1.11
  26  0.666  0.323  0.216-   2 1.11
  27  0.166  0.823  0.216-   3 1.11
  28  0.643  0.822  0.295-   4 1.11
  29  0.143  0.322  0.795-   5 1.11
  30  0.666  0.323  0.716-   6 1.11
  31  0.166  0.823  0.716-   7 1.11
  32  0.643  0.822  0.795-   8 1.11
  33  0.143  0.178  0.295-   1 1.11
  34  0.666  0.177  0.216-   2 1.11
  35  0.166  0.677  0.216-   3 1.11
  36  0.643  0.678  0.295-   4 1.11
  37  0.143  0.178  0.795-   5 1.11
  38  0.666  0.177  0.716-   6 1.11
  39  0.166  0.677  0.716-   7 1.11
  40  0.643  0.678  0.795-   8 1.11
  41  0.337  0.317  0.237-   9 1.06
  42  0.859  0.318  0.264-  10 1.06
  43  0.359  0.818  0.264-  11 1.06
  44  0.837  0.817  0.237-  12 1.06
  45  0.337  0.317  0.737-  13 1.06
  46  0.859  0.318  0.764-  14 1.06
  47  0.359  0.818  0.764-  15 1.06
  48  0.837  0.817  0.737-  16 1.06
  49  0.338  0.183  0.237-   9 1.06
  50  0.859  0.182  0.265-  10 1.06
  51  0.359  0.682  0.265-  11 1.06
  52  0.838  0.683  0.237-  12 1.06
  53  0.338  0.183  0.737-  13 1.06
  54  0.859  0.182  0.765-  14 1.06
  55  0.359  0.682  0.765-  15 1.06
  56  0.838  0.683  0.737-  16 1.06
  57  0.324  0.250  0.355-   9 1.10
  58  0.783  0.250  0.356-  10 1.08
  59  0.283  0.750  0.356-  11 1.08
  60  0.824  0.750  0.355-  12 1.10
  61  0.324  0.250  0.855-  13 1.10
  62  0.783  0.250  0.856-  14 1.08
  63  0.283  0.750  0.856-  15 1.08
  64  0.824  0.750  0.855-  16 1.10
  65  0.472  0.497  0.489-  77 3.17  90 3.18  87 3.19  73 3.22  85 3.26  89 3.37
  66  0.972  0.503  0.489-  78 3.17  89 3.18  86 3.19  74 3.22  88 3.26  90 3.37
  67  0.472  0.003  0.489-  79 3.17  92 3.18  87 3.19  75 3.22  85 3.26  91 3.37
  68  0.972  0.997  0.489-  80 3.17  91 3.18  86 3.19  76 3.22  88 3.26  92 3.37
  69  0.472  0.497  0.989-  73 3.17  94 3.18  83 3.19  77 3.22  81 3.26  93 3.37
  70  0.972  0.503  0.989-  74 3.17  93 3.18  82 3.19  78 3.22  84 3.26  94 3.37
  71  0.472  0.003  0.989-  75 3.17  96 3.18  83 3.19  79 3.22  81 3.26  95 3.37
  72  0.972  0.997  0.989-  76 3.17  95 3.18  82 3.19  80 3.22  84 3.26  96 3.37
  73  0.455  0.498  0.238-  69 3.17  65 3.22
  74  0.955  0.502  0.238-  70 3.17  66 3.22
  75  0.455  0.002  0.238-  71 3.17  67 3.22
  76  0.955  0.998  0.238-  72 3.17  68 3.22
  77  0.455  0.498  0.738-  65 3.17  69 3.22
  78  0.955  0.502  0.738-  66 3.17  70 3.22
  79  0.455  0.002  0.738-  67 3.17  71 3.22
  80  0.955  0.998  0.738-  68 3.17  72 3.22
  81  0.392  0.250  0.023-  71 3.26  69 3.26
  82  0.007  0.250  0.001-  72 3.19  70 3.19
  83  0.507  0.750  0.001-  69 3.19  71 3.19
  84  0.892  0.750  0.023-  70 3.26  72 3.26
  85  0.392  0.250  0.523-  67 3.26  65 3.26
  86  0.007  0.250  0.501-  68 3.19  66 3.19
  87  0.507  0.750  0.501-  65 3.19  67 3.19
  88  0.892  0.750  0.523-  66 3.26  68 3.26
  89  0.216  0.568  0.461-  66 3.18  65 3.37
  90  0.716  0.432  0.461-  65 3.18  66 3.37
  91  0.216  0.932  0.461-  68 3.18  67 3.37
  92  0.716  0.068  0.461-  67 3.18  68 3.37
  93  0.216  0.568  0.961-  70 3.18  69 3.37
  94  0.716  0.432  0.961-  69 3.18  70 3.37
  95  0.216  0.932  0.961-  72 3.18  71 3.37
  96  0.716  0.068  0.961-  71 3.18  72 3.37
 
  LATTYP: Found a triclinic cell.
 ALAT       =    17.8238589327
 B/A-ratio  =     0.6989248630
 C/A-ratio  =     1.0156975818
 COS(alpha) =     0.0001355172
 COS(beta)  =     0.5146378593
 COS(gamma) =     0.6988877578
  
  Lattice vectors:
  
 A1 = (  -0.1406063366, -12.4576271275, -12.7466742118)
 A2 = (  -0.0011956322, -12.4575380825,   0.0007464135)
 A3 = ( -12.7162481321,  -0.0020049566, -12.8856194186)


Analysis of symmetry for initial positions (statically):
=====================================================================
 Subroutine PRICEL returns following result:
 
  LATTYP: Found a triclinic cell.
 ALAT       =     8.8502626515
 B/A-ratio  =     1.4075896561
 C/A-ratio  =     0.7202149489
 COS(alpha) =     0.0000518785
 COS(beta)  =     0.0156138721
 COS(gamma) =     0.7036188608
  
  Lattice vectors:
  
 A1 = (  -6.2878208978,   6.2278110854,  -0.0694726034)
 A2 = (   0.0011956322,  12.4575380825,  -0.0007464135)
 A3 = (  -0.0697053522,  -0.0000445225,  -6.3737103126)
 
   4 primitive cells build up your supercell.
 

 Routine SETGRP: Setting up the symmetry group for a 
 triclinic supercell.


 Subroutine GETGRP returns: Found  1 space group operations
 (whereof  1 operations were pure point group operations)
 out of a pool of  2 trial point group operations.


The static configuration has the point symmetry C_1 .


Analysis of symmetry for dynamics (positions and initial velocities):
=====================================================================
 Subroutine PRICEL returns following result:
 
  LATTYP: Found a triclinic cell.
 ALAT       =     8.8502626515
 B/A-ratio  =     1.4075896561
 C/A-ratio  =     0.7202149489
 COS(alpha) =     0.0000518785
 COS(beta)  =     0.0156138721
 COS(gamma) =     0.7036188608
  
  Lattice vectors:
  
 A1 = (  -6.2878208978,   6.2278110854,  -0.0694726034)
 A2 = (   0.0011956322,  12.4575380825,  -0.0007464135)
 A3 = (  -0.0697053522,  -0.0000445225,  -6.3737103126)
 
   4 primitive cells build up your supercell.
 

 Routine SETGRP: Setting up the symmetry group for a 
 triclinic supercell.


 Subroutine GETGRP returns: Found  1 space group operations
 (whereof  1 operations were pure point group operations)
 out of a pool of  2 trial point group operations.


The dynamic configuration has the point symmetry C_1 .


 Subroutine INISYM returns: Found  1 space group operations
 (whereof  1 operations are pure point group operations),
 and found     4 'primitive' translations

 
 
 KPOINTS: Automatic 3x3x3                         

Automatic generation of k-mesh.
Space group operators:
 irot       det(A)        alpha          n_x          n_y          n_z        tau_x        tau_y        tau_z
    1     1.000000     0.000000     1.000000     0.000000     0.000000     0.000000     0.000000     0.000000
 
 Subroutine IBZKPT returns following result:
 ===========================================
 
 Found     14 irreducible k-points:
 
 Following reciprocal coordinates:
            Coordinates               Weight
  0.000000  0.000000  0.000000      1.000000
  0.333333 -0.000000 -0.000000      2.000000
  0.000000  0.333333 -0.000000      2.000000
  0.333333  0.333333  0.000000      2.000000
 -0.333333  0.333333  0.000000      2.000000
  0.000000  0.000000  0.333333      2.000000
  0.333333  0.000000  0.333333      2.000000
 -0.333333  0.000000  0.333333      2.000000
  0.000000  0.333333  0.333333      2.000000
  0.333333  0.333333  0.333333      2.000000
 -0.333333  0.333333  0.333333      2.000000
  0.000000 -0.333333  0.333333      2.000000
  0.333333 -0.333333  0.333333      2.000000
 -0.333333 -0.333333  0.333333      2.000000
 
 Following cartesian coordinates:
            Coordinates               Weight
  0.000000  0.000000  0.000000      1.000000
  0.026507 -0.000003 -0.000290      2.000000
 -0.000004  0.026758 -0.000000      2.000000
  0.026503  0.026755 -0.000290      2.000000
 -0.026511  0.026760  0.000290      2.000000
 -0.000287  0.000002  0.026152      2.000000
  0.026220 -0.000001  0.025862      2.000000
 -0.026794  0.000004  0.026442      2.000000
 -0.000291  0.026759  0.026152      2.000000
  0.026215  0.026757  0.025862      2.000000
 -0.026798  0.026762  0.026442      2.000000
 -0.000283 -0.026756  0.026152      2.000000
  0.026224 -0.026759  0.025862      2.000000
 -0.026790 -0.026753  0.026442      2.000000
 


--------------------------------------------------------------------------------------------------------




 Dimension of arrays:
   k-points           NKPTS =     14   k-points in BZ     NKDIM =     14   number of bands    NBANDS=    256
   number of dos      NEDOS =    301   number of ions     NIONS =     96
   non local maximal  LDIM  =      6   non local SUM 2l+1 LMDIM =     18
   total plane-waves  NPLWV = ******
   max r-space proj   IRMAX =      1   max aug-charges    IRDMAX= 314103
   dimension x,y,z NGX =   112 NGY =  108 NGZ =  112
   dimension x,y,z NGXF=   224 NGYF=  216 NGZF=  224
   support grid    NGXF=   448 NGYF=  432 NGZF=  448
   ions per type =               8   8  48   8  24
 NGX,Y,Z   is equivalent  to a cutoff of  14.80, 14.41, 14.61 a.u.
 NGXF,Y,Z  is equivalent  to a cutoff of  29.61, 28.83, 29.21 a.u.


 I would recommend the setting:
   dimension x,y,z NGX =   109 NGY =  107 NGZ =  110
 SYSTEM =  MAPbI3-Cubic                            
 POSCAR =  C N H Pb I                              

 Startparameter for this run:
   NWRITE =      2    write-flag & timer
   PREC   = accura    normal or accurate (medium, high low for compatibility)
   ISTART =      0    job   : 0-new  1-cont  2-samecut
   ICHARG =      2    charge: 1-file 2-atom 10-const
   ISPIN  =      1    spin polarized calculation?
   LNONCOLLINEAR =      F non collinear calculations
   LSORBIT =      F    spin-orbit coupling
   INIWAV =      1    electr: 0-lowe 1-rand  2-diag
   LASPH  =      F    aspherical Exc in radial PAW
   METAGGA=      F    non-selfconsistent MetaGGA calc.

 Electronic Relaxation 1
   ENCUT  =  700.0 eV  51.45 Ry    7.17 a.u.  27.13 26.87 27.50*2*pi/ulx,y,z
   ENINI  =  700.0     initial cutoff
   ENAUG  =  644.9 eV  augmentation charge cutoff
   NELM   =     60;   NELMIN=  2; NELMDL= -5     # of ELM steps 
   EDIFF  = 0.1E-09   stopping-criterion for ELM
   LREAL  =      F    real-space projection
   NLSPLINE    = F    spline interpolate recip. space projectors
   LCOMPAT=      F    compatible to vasp.4.4
   GGA_COMPAT  = T    GGA compatible to vasp.4.4-vasp.4.6
   LMAXPAW     = -100 max onsite density
   LMAXMIX     =    2 max onsite mixed and CHGCAR
   VOSKOWN=      0    Vosko Wilk Nusair interpolation
   ROPT   =    0.00000   0.00000   0.00000   0.00000
   ROPT   =    0.00000
 Ionic relaxation
   EDIFFG = 0.1E-08   stopping-criterion for IOM
   NSW    =      0    number of steps for IOM
   NBLOCK =      1;   KBLOCK =      1    inner block; outer block 
   IBRION =     -1    ionic relax: 0-MD 1-quasi-New 2-CG
   NFREE  =      0    steps in history (QN), initial steepest desc. (CG)
   ISIF   =      2    stress and relaxation
   IWAVPR =     10    prediction:  0-non 1-charg 2-wave 3-comb
   ISYM   =      2    0-nonsym 1-usesym 2-fastsym
   LCORR  =      T    Harris-Foulkes like correction to forces

   POTIM  = 0.5000    time-step for ionic-motion
   TEIN   =    0.0    initial temperature
   TEBEG  =    0.0;   TEEND  =   0.0 temperature during run
   SMASS  =  -3.00    Nose mass-parameter (am)
   estimated Nose-frequenzy (Omega)   =  0.10E-29 period in steps =****** mass=  -0.362E-26a.u.
   SCALEE = 1.0000    scale energy and forces
   NPACO  =    256;   APACO  = 16.0  distance and # of slots for P.C.
   PSTRESS=    0.0 pullay stress

  Mass of Ions in am
   POMASS =  12.01 14.00  1.00207.20126.90
  Ionic Valenz
   ZVAL   =   4.00  5.00  1.00 14.00  7.00
  Atomic Wigner-Seitz radii
   RWIGS  =  -1.00 -1.00 -1.00 -1.00 -1.00
  virtual crystal weights 
   VCA    =   1.00  1.00  1.00  1.00  1.00
   NELECT =     400.0000    total number of electrons
   NUPDOWN=      -1.0000    fix difference up-down

 DOS related values:
   EMIN   =  10.00;   EMAX   =-10.00  energy-range for DOS
   EFERMI =   0.00
   ISMEAR =     0;   SIGMA  =   0.00  broadening in eV -4-tet -1-fermi 0-gaus

 Electronic relaxation 2 (details)
   IALGO  =     38    algorithm
   LDIAG  =      T    sub-space diagonalisation (order eigenvalues)
   LSUBROT=      F    optimize rotation matrix (better conditioning)
   TURBO    =      0    0=normal 1=particle mesh
   IRESTART =      0    0=no restart 2=restart with 2 vectors
   NREBOOT  =      0    no. of reboots
   NMIN     =      0    reboot dimension
   EREF     =   0.00    reference energy to select bands
   IMIX   =      4    mixing-type and parameters
     AMIX     =   0.40;   BMIX     =  1.00
     AMIX_MAG =   1.60;   BMIX_MAG =  1.00
     AMIN     =   0.10
     WC   =   100.;   INIMIX=   1;  MIXPRE=   1;  MAXMIX= -45

 Intra band minimization:
   WEIMIN = 0.0000     energy-eigenvalue tresh-hold
   EBREAK =  0.98E-13  absolut break condition
   DEPER  =   0.30     relativ break condition  

   TIME   =   0.40     timestep for ELM

  volume/ion in A,a.u.               =      20.80       140.38
  Fermi-wavevector in a.u.,A,eV,Ry     =   0.957863  1.810099 12.483376  0.917502
  Thomas-Fermi vector in A             =   2.086919
 
 Write flags
   LWAVE  =      F    write WAVECAR
   LCHARG =      F    write CHGCAR
   LVTOT  =      F    write LOCPOT, total local potential
   LVHAR  =      F    write LOCPOT, Hartree potential only
   LELF   =      F    write electronic localiz. function (ELF)
   LORBIT =      0    0 simple, 1 ext, 2 COOP (PROOUT)


 Dipole corrections
   LMONO  =      F    monopole corrections only (constant potential shift)
   LDIPOL =      F    correct potential (dipole corrections)
   IDIPOL =      0    1-x, 2-y, 3-z, 4-all directions 
   EPSILON=  1.0000000 bulk dielectric constant

 Core level calculations are selected ICORELEVEL =  1
 Exchange correlation treatment:
   GGA     =    PS    GGA type
   LEXCH   =    14    internal setting for exchange type
   VOSKOWN=      0    Vosko Wilk Nusair interpolation
   LHFCALC =     F    Hartree Fock is set to
   LHFONE  =     F    Hartree Fock one center treatment
   AEXX    =    0.0000 exact exchange contribution

 Linear response parameters
   LEPSILON=     F    determine dielectric tensor
   LRPA    =     F    only Hartree local field effects (RPA)
   LNABLA  =     F    use nabla operator in PAW spheres
   LVEL    =     F    velocity operator in full k-point grid
   LINTERFAST=   F  fast interpolation
   KINTER  =     0    interpolate to denser k-point grid
   CSHIFT  =0.1000    complex shift for real part using Kramers Kronig
   OMEGAMAX=  -1.0    maximum frequency
   DEG_THRESHOLD= 0.2000000E-02 threshold for treating states as degnerate
   RTIME   =    0.100 relaxation time in fs

 Orbital magnetization related:
   ORBITALMAG=     F  switch on orbital magnetization
   LCHIMAG   =     F  perturbation theory with respect to B field
   DQ        =  0.001000  dq finite difference perturbation B field



--------------------------------------------------------------------------------------------------------


 Static calculation
 charge density and potential will be updated during run
 non-spin polarized calculation
 Variant of blocked Davidson
 Davidson routine will perform the subspace rotation
 perform sub-space diagonalisation
    after iterative eigenvector-optimisation
 modified Broyden-mixing scheme, WC =      100.0
 initial mixing is a Kerker type mixing with AMIX =  0.4000 and BMIX =      1.0000
 Hartree-type preconditioning will be used
 using additional bands           56
 reciprocal scheme for non local part
 use partial core corrections
 calculate Harris-corrections to forces 
   (improved forces if not selfconsistent)
 use gradient corrections 
 use of overlap-Matrix (Vanderbilt PP)
 Gauss-broadening in eV      SIGMA  =   0.00


--------------------------------------------------------------------------------------------------------


  energy-cutoff  :      700.00
  volume of cell :     1996.98
      direct lattice vectors                 reciprocal lattice vectors
    12.576837428  0.001915912  0.138198793     0.079520802 -0.000007684 -0.000869670
     0.001195632 12.457538083 -0.000746413    -0.000012224  0.080272684 -0.000000427
     0.139410704  0.000089045 12.747420625    -0.000862111  0.000004784  0.078456671

  length of vectors
    12.577596840 12.457538162 12.748182927     0.079525558  0.080272685  0.078461408


 
 k-points in units of 2pi/SCALE and weight: Automatic 3x3x3                         
   0.00000000  0.00000000  0.00000000       0.037
   0.02650693 -0.00000256 -0.00028989       0.074
  -0.00000407  0.02675756 -0.00000014       0.074
   0.02650286  0.02675500 -0.00029003       0.074
  -0.02651101  0.02676012  0.00028975       0.074
  -0.00028737  0.00000159  0.02615222       0.074
   0.02621956 -0.00000097  0.02586233       0.074
  -0.02679430  0.00000416  0.02644211       0.074
  -0.00029144  0.02675916  0.02615208       0.074
   0.02621549  0.02675659  0.02586219       0.074
  -0.02679838  0.02676172  0.02644197       0.074
  -0.00028330 -0.02675597  0.02615237       0.074
   0.02622364 -0.02675853  0.02586248       0.074
  -0.02679023 -0.02675341  0.02644226       0.074
 
 k-points in reciprocal lattice and weights: Automatic 3x3x3                         
   0.00000000  0.00000000  0.00000000       0.037
   0.33333333 -0.00000000 -0.00000000       0.074
   0.00000000  0.33333333 -0.00000000       0.074
   0.33333333  0.33333333  0.00000000       0.074
  -0.33333333  0.33333333  0.00000000       0.074
   0.00000000  0.00000000  0.33333333       0.074
   0.33333333  0.00000000  0.33333333       0.074
  -0.33333333  0.00000000  0.33333333       0.074
   0.00000000  0.33333333  0.33333333       0.074
   0.33333333  0.33333333  0.33333333       0.074
  -0.33333333  0.33333333  0.33333333       0.074
   0.00000000 -0.33333333  0.33333333       0.074
   0.33333333 -0.33333333  0.33333333       0.074
  -0.33333333 -0.33333333  0.33333333       0.074
 
 position of ions in fractional coordinates (direct lattice) 
   0.17879699  0.24983240  0.25725697
   0.71519128  0.24998415  0.20057374
   0.21519128  0.74998415  0.20057374
   0.67879699  0.74983240  0.25725697
   0.17879699  0.24983240  0.75725697
   0.71519128  0.24998415  0.70057374
   0.21519128  0.74998415  0.70057374
   0.67879699  0.74983240  0.75725697
   0.29952953  0.24994607  0.27228120
   0.80954490  0.25006121  0.27548739
   0.30954490  0.75006121  0.27548739
   0.79952953  0.74994607  0.27228120
   0.29952953  0.24994607  0.77228120
   0.80954490  0.25006121  0.77548739
   0.30954490  0.75006121  0.77548739
   0.79952953  0.74994607  0.77228120
   0.16225734  0.24982351  0.16950840
   0.74789300  0.24981868  0.11626885
   0.24789300  0.74981868  0.11626885
   0.66225734  0.74982351  0.16950840
   0.16225734  0.24982351  0.66950840
   0.74789300  0.24981868  0.61626885
   0.24789300  0.74981868  0.61626885
   0.66225734  0.74982351  0.66950840
   0.14296397  0.32206910  0.29522504
   0.66571164  0.32263527  0.21580560
   0.16571164  0.82263527  0.21580560
   0.64296397  0.82206910  0.29522504
   0.14296397  0.32206910  0.79522504
   0.66571164  0.32263527  0.71580560
   0.16571164  0.82263527  0.71580560
   0.64296397  0.82206910  0.79522504
   0.14318452  0.17751954  0.29522625
   0.66570115  0.17743261  0.21607516
   0.16570115  0.67743261  0.21607516
   0.64318452  0.67751954  0.29522625
   0.14318452  0.17751954  0.79522625
   0.66570115  0.17743261  0.71607516
   0.16570115  0.67743261  0.71607516
   0.64318452  0.67751954  0.79522625
   0.33736507  0.31726740  0.23722642
   0.85890409  0.31848117  0.26428656
   0.35890409  0.81848117  0.26428656
   0.83736507  0.81726740  0.23722642
   0.33736507  0.31726740  0.73722642
   0.85890409  0.31848117  0.76428656
   0.35890409  0.81848117  0.76428656
   0.83736507  0.81726740  0.73722642
   0.33754799  0.18268568  0.23722089
   0.85886261  0.18152410  0.26456091
   0.35886261  0.68152410  0.26456091
   0.83754799  0.68268568  0.23722089
   0.33754799  0.18268568  0.73722089
   0.85886261  0.18152410  0.76456091
   0.35886261  0.68152410  0.76456091
   0.83754799  0.68268568  0.73722089
   0.32360533  0.24993622  0.35479852
   0.78273482  0.25025083  0.35641997
   0.28273482  0.75025083  0.35641997
   0.82360533  0.74993622  0.35479852
   0.32360533  0.24993622  0.85479852
   0.78273482  0.25025083  0.85641997
   0.28273482  0.75025083  0.85641997
   0.82360533  0.74993622  0.85479852
   0.47242582  0.49702245  0.48881540
   0.97245773  0.50295714  0.48880749
   0.47245773  0.00295714  0.48880749
   0.97242582  0.99702245  0.48881540
   0.47242582  0.49702245  0.98881540
   0.97245773  0.50295714  0.98880749
   0.47245773  0.00295714  0.98880749
   0.97242582  0.99702245  0.98881540
   0.45469946  0.49841104  0.23758215
   0.95478789  0.50157106  0.23756334
   0.45478789  0.00157106  0.23756334
   0.95469946  0.99841104  0.23758215
   0.45469946  0.49841104  0.73758215
   0.95478789  0.50157106  0.73756334
   0.45478789  0.00157106  0.73756334
   0.95469946  0.99841104  0.73758215
   0.39247479  0.24999030  0.02257403
   0.00679608  0.24996772  0.00109041
   0.50679608  0.74996772  0.00109041
   0.89247479  0.74999030  0.02257403
   0.39247479  0.24999030  0.52257403
   0.00679608  0.24996772  0.50109041
   0.50679608  0.74996772  0.50109041
   0.89247479  0.74999030  0.52257403
   0.21615764  0.56822248  0.46123971
   0.71618524  0.43177239  0.46123969
   0.21618524  0.93177239  0.46123969
   0.71615764  0.06822248  0.46123971
   0.21615764  0.56822248  0.96123971
   0.71618524  0.43177239  0.96123969
   0.21618524  0.93177239  0.96123969
   0.71615764  0.06822248  0.96123971
 
 position of ions in cartesian coordinates  (Angst):
   2.28486374  3.11266206  3.30388582
   9.02310542  3.11557522  2.65544983
   2.73528453  9.34338631  2.58597722
   8.57388027  9.34238905  3.37261201
   2.35456909  3.11270658  9.67759613
   9.09281078  3.11561975  9.02916014
   2.80498988  9.34343083  8.95968754
   8.64358562  9.34243358  9.74632232
   3.80539200  3.11431085  3.51209105
  10.22021953  3.11672257  3.62344515
   3.93239863  9.34453365  3.55397254
  10.09440853  9.34403784  3.58081724
   3.87509735  3.11435537  9.88580136
  10.28992488  3.11676709  9.99715546
   4.00210398  9.34457817  9.92768286
  10.16411388  9.34408237  9.95452755
   2.06461414  3.11251184  2.18303222
   9.42263645  3.11356902  1.58529935
   3.13481555  9.34138011  1.51582675
   8.35363067  9.34223883  2.25175841
   2.13431949  3.11255636  8.55674254
   9.49234180  3.11361354  7.95900966
   3.20452091  9.34142463  7.88953706
   8.42333602  9.34228336  8.62546873
   1.83957723  4.01248830  3.78287479
   8.40301846  4.02053584  2.84272449
   2.11519756 10.24834692  2.77325188
   8.12859376 10.24221530  3.85160098
   1.90928259  4.01253282 10.15658510
   8.47272381  4.02058036  9.21643480
   2.18490291 10.24839145  9.14696220
   8.19829912 10.24225982 10.22531129
   1.84217839  2.21175699  3.78302866
   8.40275043  2.21166818  2.84626761
   2.11492953  8.43947926  2.77679500
   8.13119492  8.44148399  3.85175485
   1.91188374  2.21180151 10.15673897
   8.47245578  2.21171270  9.21997792
   2.18463488  8.43952379  9.15050532
   8.20090027  8.44152851 10.22546516
   4.27643682  3.95303819  3.07041161
  10.83952225  3.96916038  3.48743374
   4.55170136 10.19697147  3.41796114
  10.56545335 10.18276519  3.13913780
   4.34614218  3.95308271  9.44412192
  10.90922761  3.96920490  9.86114406
   4.62140671 10.19701599  9.79167145
  10.63515871 10.18280971  9.51284811
   4.27857570  2.27648163  3.07046681
  10.83887513  2.26301241  3.49102750
   4.55105424  8.49082350  3.42155490
  10.56759223  8.50620862  3.13919300
   4.34828105  2.27652615  9.44417712
  10.90858049  2.26305694  9.86473781
   4.62075959  8.49086802  9.79526521
  10.63729758  8.50625315  9.51290331
   4.11969312  3.11424152  4.56730122
   9.89431655  3.11904061  4.65142154
   3.60649565  9.34685169  4.58194894
  10.40870965  9.34396851  4.63602741
   4.18939847  3.11428604 10.94101154
   9.96402190  3.11908513 11.02513186
   3.67620100  9.34689621 10.95565925
  10.47841500  9.34401304 11.00973773
   6.01036314  6.19262469  6.29605324
  12.29918910  6.26751445  6.36505177
   6.01017257  0.03778745  6.29632558
  12.29937967 12.42235169  6.36477943
   6.08006849  6.19266922 12.66976355
  12.36889446  6.26755897 12.73876208
   6.07987793  0.03783197 12.67003589
  12.36908502 12.42239621 12.73848974
   5.75239855  6.20986687  3.09102644
  12.04193067  6.25019097  3.15989595
   5.75291414  0.02046398  3.09116976
  12.04141508 12.43959387  3.15975263
   5.82210390  6.20991139  9.46473675
  12.11163602  6.25023550  9.53360626
   5.82261949  0.02050850  9.46488008
  12.11112043 12.43963839  9.53346294
   4.93953764  3.11501766  0.34181356
   0.08592414  3.11399550  0.01465253
   6.37494067  9.34372250  0.08337872
  11.22855417  9.34474466  0.41053975
   5.00924299  3.11506219  6.71552387
   0.15562949  3.11404002  6.38836285
   6.44464602  9.34376702  6.45708904
  11.29825952  9.34478918  6.78425006
   2.78356064  7.07910845  5.90906521
   9.07216328  5.38023419  5.97827001
   2.78434238 11.60804528  5.90879741
   9.07138154  0.85129736  5.97853782
   2.85326599  7.07915297 12.28277553
   9.14186863  5.38027871 12.35198033
   2.85404773 11.60808980 12.28250772
   9.14108689  0.85134188 12.35224813
 


--------------------------------------------------------------------------------------------------------


 k-point  1 :   0.0000 0.0000 0.0000  plane waves:   84007
 k-point  2 :   0.3333-0.0000-0.0000  plane waves:   84003
 k-point  3 :   0.0000 0.3333-0.0000  plane waves:   83995
 k-point  4 :   0.3333 0.3333 0.0000  plane waves:   84018
 k-point  5 :  -0.3333 0.3333 0.0000  plane waves:   84019
 k-point  6 :   0.0000 0.0000 0.3333  plane waves:   83960
 k-point  7 :   0.3333 0.0000 0.3333  plane waves:   83937
 k-point  8 :  -0.3333 0.0000 0.3333  plane waves:   83982
 k-point  9 :   0.0000 0.3333 0.3333  plane waves:   83984
 k-point 10 :   0.3333 0.3333 0.3333  plane waves:   84012
 k-point 11 :  -0.3333 0.3333 0.3333  plane waves:   83970
 k-point 12 :   0.0000-0.3333 0.3333  plane waves:   83977
 k-point 13 :   0.3333-0.3333 0.3333  plane waves:   84013
 k-point 14 :  -0.3333-0.3333 0.3333  plane waves:   83973

 maximum and minimum number of plane-waves per node :     28039    27934

 maximum number of plane-waves:     84019
 maximum index in each direction: 
   IXMAX=   27   IYMAX=   27   IZMAX=   27
   IXMIN=  -27   IYMIN=  -27   IZMIN=  -27

 NGX is ok and might be reduce to 110
 WARNING: aliasing errors must be expected set NGY to 110 to avoid them
 NGZ is ok and might be reduce to 110
 aliasing errors are usually negligible using standard VASP settings
 and one can safely disregard these warnings

 parallel 3D FFT for wavefunctions:
    minimum data exchange during FFTs selected (reduces bandwidth)
 parallel 3D FFT for charge:
    minimum data exchange during FFTs selected (reduces bandwidth)


 total amount of memory used by VASP on root node   697522. kBytes
========================================================================

   base      :      30000. kBytes
   nonl-proj :     325712. kBytes
   fftplans  :      80881. kBytes
   grid      :      57435. kBytes
   one-center:        497. kBytes
   wavefun   :     202997. kBytes
 
     INWAV:  cpu time    0.0000: real time    0.0000
 Broyden mixing: mesh for mixing (old mesh)
   NGX = 55   NGY = 53   NGZ = 55
  (NGX  =224   NGY  =216   NGZ  =224)
  gives a total of 160325 points

 initial charge density was supplied:
 charge density of overlapping atoms calculated
 number of electron     400.0000000 magnetization 
 keeping initial charge density in first step


--------------------------------------------------------------------------------------------------------


 Maximum index for augmentation-charges        13745 (set IRDMAX)


--------------------------------------------------------------------------------------------------------


 First call to EWALD:  gamma=   0.141
 Maximum number of real-space cells 3x 3x 3
 Maximum number of reciprocal cells 3x 3x 3

 FEWALD executed in parallel
    FEWALD:  cpu time    0.1440: real time    0.1458


----------------------------------------- Iteration    1(   1)  ---------------------------------------


    POTLOK:  cpu time    0.4440: real time    0.4434
    SETDIJ:  cpu time    0.7560: real time    0.7561
     EDDAV:  cpu time   71.2485: real time   71.2961
       DOS:  cpu time    0.0040: real time    0.0020
    --------------------------------------------
      LOOP:  cpu time   72.4525: real time   72.5195

 eigenvalue-minimisations  :  7176
 total energy-change (2. order) : 0.3574806E+04  (-0.1891677E+05)
 number of electron     400.0000000 magnetization 
 augmentation part      400.0000000 magnetization 

 Free energy of the ion-electron system (eV)
  ---------------------------------------------------
  alpha Z        PSCENC =       370.05370877
  Ewald energy   TEWEN  =    -15749.24775151
  -Hartree energ DENC   =     -7954.20542286
  -exchange      EXHF   =         0.00000000
  -V(xc)+E(xc)   XCENC  =       387.15244718
  PAW double counting   =     20601.23165652   -19855.90553853
  entropy T*S    EENTRO =        -0.00004179
  eigenvalues    EBANDS =      1026.72046676
  atomic energy  EATOM  =     24749.00668030
  Solvation  Ediel_sol  =         0.00000000
  ---------------------------------------------------
  free energy    TOTEN  =      3574.80620483 eV

  energy without entropy =     3574.80624662  energy(sigma->0) =     3574.80622573


--------------------------------------------------------------------------------------------------------




----------------------------------------- Iteration    1(   2)  ---------------------------------------


     EDDAV:  cpu time   77.9169: real time   77.9655
       DOS:  cpu time    0.0000: real time    0.0023
    --------------------------------------------
      LOOP:  cpu time   77.9169: real time   77.9972

 eigenvalue-minimisations  :  8032
 total energy-change (2. order) :-0.3376188E+04  (-0.3169639E+04)
 number of electron     400.0000000 magnetization 
 augmentation part      400.0000000 magnetization 

 Free energy of the ion-electron system (eV)
  ---------------------------------------------------
  alpha Z        PSCENC =       370.05370877
  Ewald energy   TEWEN  =    -15749.24775151
  -Hartree energ DENC   =     -7954.20542286
  -exchange      EXHF   =         0.00000000
  -V(xc)+E(xc)   XCENC  =       387.15244718
  PAW double counting   =     20601.23165652   -19855.90553853
  entropy T*S    EENTRO =        -0.00004179
  eigenvalues    EBANDS =     -2349.46739464
  atomic energy  EATOM  =     24749.00668030
  Solvation  Ediel_sol  =         0.00000000
  ---------------------------------------------------
  free energy    TOTEN  =       198.61834344 eV

  energy without entropy =      198.61838523  energy(sigma->0) =      198.61836433


--------------------------------------------------------------------------------------------------------




----------------------------------------- Iteration    1(   3)  ---------------------------------------


     EDDAV:  cpu time   88.4895: real time   88.5451
       DOS:  cpu time    0.0000: real time    0.0011
    --------------------------------------------
      LOOP:  cpu time   88.4935: real time   88.5726

 eigenvalue-minimisations  :  9424
 total energy-change (2. order) :-0.5933971E+03  (-0.5845351E+03)
 number of electron     400.0000000 magnetization 
 augmentation part      400.0000000 magnetization 

 Free energy of the ion-electron system (eV)
  ---------------------------------------------------
  alpha Z        PSCENC =       370.05370877
  Ewald energy   TEWEN  =    -15749.24775151
  -Hartree energ DENC   =     -7954.20542286
  -exchange      EXHF   =         0.00000000
  -V(xc)+E(xc)   XCENC  =       387.15244718
  PAW double counting   =     20601.23165652   -19855.90553853
  entropy T*S    EENTRO =        -0.00000000
  eigenvalues    EBANDS =     -2942.86449310
  atomic energy  EATOM  =     24749.00668030
  Solvation  Ediel_sol  =         0.00000000
  ---------------------------------------------------
  free energy    TOTEN  =      -394.77871323 eV

  energy without entropy =     -394.77871323  energy(sigma->0) =     -394.77871323


--------------------------------------------------------------------------------------------------------




----------------------------------------- Iteration    1(   4)  ---------------------------------------


     EDDAV:  cpu time   90.5577: real time   90.6162
       DOS:  cpu time    0.0040: real time    0.0020
    --------------------------------------------
      LOOP:  cpu time   90.5657: real time   90.6662

 eigenvalue-minimisations  :  9704
 total energy-change (2. order) :-0.4070336E+02  (-0.4051752E+02)
 number of electron     400.0000000 magnetization 
 augmentation part      400.0000000 magnetization 

 Free energy of the ion-electron system (eV)
  ---------------------------------------------------
  alpha Z        PSCENC =       370.05370877
  Ewald energy   TEWEN  =    -15749.24775151
  -Hartree energ DENC   =     -7954.20542286
  -exchange      EXHF   =         0.00000000
  -V(xc)+E(xc)   XCENC  =       387.15244718
  PAW double counting   =     20601.23165652   -19855.90553853
  entropy T*S    EENTRO =         0.00000000
  eigenvalues    EBANDS =     -2983.56785701
  atomic energy  EATOM  =     24749.00668030
  Solvation  Ediel_sol  =         0.00000000
  ---------------------------------------------------
  free energy    TOTEN  =      -435.48207714 eV

  energy without entropy =     -435.48207714  energy(sigma->0) =     -435.48207714


--------------------------------------------------------------------------------------------------------




----------------------------------------- Iteration    1(   5)  ---------------------------------------


     EDDAV:  cpu time   90.3456: real time   90.4040
       DOS:  cpu time    0.0000: real time    0.0015
    CHARGE:  cpu time    3.3162: real time    3.3187
    MIXING:  cpu time    0.0120: real time    0.0139
    --------------------------------------------
      LOOP:  cpu time   93.6779: real time   93.7830

 eigenvalue-minimisations  :  9736
 total energy-change (2. order) :-0.1498523E+01  (-0.1495586E+01)
 number of electron     400.0000000 magnetization 
 augmentation part        7.5293275 magnetization 

 Broyden mixing:
  rms(total) = 0.28101E+01    rms(broyden)= 0.28100E+01
  rms(prec ) = 0.33552E+01
  weight for this iteration     100.00

 Free energy of the ion-electron system (eV)
  ---------------------------------------------------
  alpha Z        PSCENC =       370.05370877
  Ewald energy   TEWEN  =    -15749.24775151
  -Hartree energ DENC   =     -7954.20542286
  -exchange      EXHF   =         0.00000000
  -V(xc)+E(xc)   XCENC  =       387.15244718
  PAW double counting   =     20601.23165652   -19855.90553853
  entropy T*S    EENTRO =         0.00000000
  eigenvalues    EBANDS =     -2985.06638041
  atomic energy  EATOM  =     24749.00668030
  Solvation  Ediel_sol  =         0.00000000
  ---------------------------------------------------
  free energy    TOTEN  =      -436.98060054 eV

  energy without entropy =     -436.98060054  energy(sigma->0) =     -436.98060054


--------------------------------------------------------------------------------------------------------




----------------------------------------- Iteration    1(   6)  ---------------------------------------


    POTLOK:  cpu time    0.4400: real time    0.4395
    SETDIJ:  cpu time    0.7520: real time    0.7529
     EDDAV:  cpu time   94.1899: real time   94.2473
       DOS:  cpu time    0.0000: real time    0.0011
    CHARGE:  cpu time    3.3202: real time    3.3233
    MIXING:  cpu time    0.0120: real time    0.0132
    --------------------------------------------
      LOOP:  cpu time   98.7182: real time   98.8030

 eigenvalue-minimisations  : 10256
 total energy-change (2. order) : 0.1919734E+02  (-0.3826285E+01)
 number of electron     400.0000000 magnetization 
 augmentation part        7.8643391 magnetization 

 Broyden mixing:
  rms(total) = 0.14921E+01    rms(broyden)= 0.14921E+01
  rms(prec ) = 0.16722E+01
  weight for this iteration     100.00

 eigenvalues of (default mixing * dielectric matrix)
  average eigenvalue GAMMA=   1.5291
  1.5291

 Free energy of the ion-electron system (eV)
  ---------------------------------------------------
  alpha Z        PSCENC =       370.05370877
  Ewald energy   TEWEN  =    -15749.24775151
  -Hartree energ DENC   =     -8110.63129852
  -exchange      EXHF   =         0.00000000
  -V(xc)+E(xc)   XCENC  =       400.60033195
  PAW double counting   =     22801.88184738   -22053.10878375
  entropy T*S    EENTRO =         0.00000000
  eigenvalues    EBANDS =     -2826.33799418
  atomic energy  EATOM  =     24749.00668030
  Solvation  Ediel_sol  =         0.00000000
  ---------------------------------------------------
  free energy    TOTEN  =      -417.78325955 eV

  energy without entropy =     -417.78325955  energy(sigma->0) =     -417.78325955


--------------------------------------------------------------------------------------------------------




----------------------------------------- Iteration    1(   7)  ---------------------------------------


    POTLOK:  cpu time    0.4360: real time    0.4376
    SETDIJ:  cpu time    0.7600: real time    0.7583
     EDDAV:  cpu time   94.0699: real time   94.1299
       DOS:  cpu time    0.0000: real time    0.0013
    CHARGE:  cpu time    3.3162: real time    3.3171
    MIXING:  cpu time    0.0120: real time    0.0134
    --------------------------------------------
      LOOP:  cpu time   98.6022: real time   98.6889

 eigenvalue-minimisations  : 10136
 total energy-change (2. order) : 0.2354564E+01  (-0.1490761E+01)
 number of electron     400.0000000 magnetization 
 augmentation part        7.9690729 magnetization 

 Broyden mixing:
  rms(total) = 0.74962E+00    rms(broyden)= 0.74960E+00
  rms(prec ) = 0.80314E+00
  weight for this iteration     100.00

 eigenvalues of (default mixing * dielectric matrix)
  average eigenvalue GAMMA=   1.8773
  1.4422  2.3124

 Free energy of the ion-electron system (eV)
  ---------------------------------------------------
  alpha Z        PSCENC =       370.05370877
  Ewald energy   TEWEN  =    -15749.24775151
  -Hartree energ DENC   =     -8188.98669585
  -exchange      EXHF   =         0.00000000
  -V(xc)+E(xc)   XCENC  =       409.47850525
  PAW double counting   =     25623.95383303   -24872.98190890
  entropy T*S    EENTRO =         0.00000000
  eigenvalues    EBANDS =     -2756.70506712
  atomic energy  EATOM  =     24749.00668030
  Solvation  Ediel_sol  =         0.00000000
  ---------------------------------------------------
  free energy    TOTEN  =      -415.42869602 eV

  energy without entropy =     -415.42869602  energy(sigma->0) =     -415.42869602


--------------------------------------------------------------------------------------------------------




----------------------------------------- Iteration    1(   8)  ---------------------------------------


    POTLOK:  cpu time    0.4360: real time    0.4382
    SETDIJ:  cpu time    0.7520: real time    0.7525
     EDDAV:  cpu time   83.6852: real time   83.7419
       DOS:  cpu time    0.0040: real time    0.0013
    CHARGE:  cpu time    3.3162: real time    3.3185
    MIXING:  cpu time    0.0120: real time    0.0135
    --------------------------------------------
      LOOP:  cpu time   88.2095: real time   88.2929

 eigenvalue-minimisations  :  8792
 total energy-change (2. order) : 0.1865438E+00  (-0.3160882E+00)
 number of electron     400.0000000 magnetization 
 augmentation part        7.8451757 magnetization 

 Broyden mixing:
  rms(total) = 0.17594E+00    rms(broyden)= 0.17594E+00
  rms(prec ) = 0.21517E+00
  weight for this iteration     100.00

 eigenvalues of (default mixing * dielectric matrix)
  average eigenvalue GAMMA=   1.6174
  2.3951  1.2286  1.2286

 Free energy of the ion-electron system (eV)
  ---------------------------------------------------
  alpha Z        PSCENC =       370.05370877
  Ewald energy   TEWEN  =    -15749.24775151
  -Hartree energ DENC   =     -8194.07611328
  -exchange      EXHF   =         0.00000000
  -V(xc)+E(xc)   XCENC  =       412.26267964
  PAW double counting   =     27731.65107505   -26981.55045260
  entropy T*S    EENTRO =         0.00000000
  eigenvalues    EBANDS =     -2753.34197856
  atomic energy  EATOM  =     24749.00668030
  Solvation  Ediel_sol  =         0.00000000
  ---------------------------------------------------
  free energy    TOTEN  =      -415.24215218 eV

  energy without entropy =     -415.24215218  energy(sigma->0) =     -415.24215218


--------------------------------------------------------------------------------------------------------




----------------------------------------- Iteration    1(   9)  ---------------------------------------


    POTLOK:  cpu time    0.4360: real time    0.4373
    SETDIJ:  cpu time    0.7520: real time    0.7536
     EDDAV:  cpu time   87.3215: real time   87.3782
       DOS:  cpu time    0.0040: real time    0.0034
    CHARGE:  cpu time    3.3162: real time    3.3182
    MIXING:  cpu time    0.0160: real time    0.0137
    --------------------------------------------
      LOOP:  cpu time   91.8497: real time   91.9556

 eigenvalue-minimisations  :  9264
 total energy-change (2. order) : 0.6333594E-01  (-0.6776209E-01)
 number of electron     400.0000000 magnetization 
 augmentation part        7.8621463 magnetization 

 Broyden mixing:
  rms(total) = 0.68405E-01    rms(broyden)= 0.68400E-01
  rms(prec ) = 0.77931E-01
  weight for this iteration     100.00

 eigenvalues of (default mixing * dielectric matrix)
  average eigenvalue GAMMA=   1.5522
  2.2898  1.5901  1.1075  1.2215

 Free energy of the ion-electron system (eV)
  ---------------------------------------------------
  alpha Z        PSCENC =       370.05370877
  Ewald energy   TEWEN  =    -15749.24775151
  -Hartree energ DENC   =     -8212.85977236
  -exchange      EXHF   =         0.00000000
  -V(xc)+E(xc)   XCENC  =       413.51456824
  PAW double counting   =     27846.09317456   -27096.17459767
  entropy T*S    EENTRO =        -0.00000000
  eigenvalues    EBANDS =     -2735.56482659
  atomic energy  EATOM  =     24749.00668030
  Solvation  Ediel_sol  =         0.00000000
  ---------------------------------------------------
  free energy    TOTEN  =      -415.17881624 eV

  energy without entropy =     -415.17881624  energy(sigma->0) =     -415.17881624


--------------------------------------------------------------------------------------------------------




----------------------------------------- Iteration    1(  10)  ---------------------------------------


    POTLOK:  cpu time    0.4400: real time    0.4378
    SETDIJ:  cpu time    0.7480: real time    0.7521
     EDDAV:  cpu time   82.6092: real time   82.6627
       DOS:  cpu time    0.0000: real time    0.0016
    CHARGE:  cpu time    3.3162: real time    3.3156
    MIXING:  cpu time    0.0120: real time    0.0140
    --------------------------------------------
      LOOP:  cpu time   87.1294: real time   87.2236

 eigenvalue-minimisations  :  8632
 total energy-change (2. order) :-0.1326029E-01  (-0.1229079E-01)
 number of electron     400.0000000 magnetization 
 augmentation part        7.8274045 magnetization 

 Broyden mixing:
  rms(total) = 0.50774E-01    rms(broyden)= 0.50772E-01
  rms(prec ) = 0.59333E-01
  weight for this iteration     100.00

 eigenvalues of (default mixing * dielectric matrix)
  average eigenvalue GAMMA=   1.4336
  2.3453  1.9182  1.0330  1.0330  0.8386

 Free energy of the ion-electron system (eV)
  ---------------------------------------------------
  alpha Z        PSCENC =       370.05370877
  Ewald energy   TEWEN  =    -15749.24775151
  -Hartree energ DENC   =     -8214.76827942
  -exchange      EXHF   =         0.00000000
  -V(xc)+E(xc)   XCENC  =       413.62756693
  PAW double counting   =     27851.78854319   -27102.26931414
  entropy T*S    EENTRO =         0.00000000
  eigenvalues    EBANDS =     -2733.38323065
  atomic energy  EATOM  =     24749.00668030
  Solvation  Ediel_sol  =         0.00000000
  ---------------------------------------------------
  free energy    TOTEN  =      -415.19207654 eV

  energy without entropy =     -415.19207654  energy(sigma->0) =     -415.19207654


--------------------------------------------------------------------------------------------------------




----------------------------------------- Iteration    1(  11)  ---------------------------------------


    POTLOK:  cpu time    0.4360: real time    0.4375
    SETDIJ:  cpu time    0.7560: real time    0.7557
     EDDAV:  cpu time   89.7416: real time   89.7971
       DOS:  cpu time    0.0000: real time    0.0011
    CHARGE:  cpu time    3.3642: real time    3.3663
    MIXING:  cpu time    0.0120: real time    0.0142
    --------------------------------------------
      LOOP:  cpu time   94.3139: real time   94.3957

 eigenvalue-minimisations  :  9576
 total energy-change (2. order) : 0.1566773E-02  (-0.1544652E-02)
 number of electron     400.0000000 magnetization 
 augmentation part        7.8295645 magnetization 

 Broyden mixing:
  rms(total) = 0.24503E-01    rms(broyden)= 0.24502E-01
  rms(prec ) = 0.29214E-01
  weight for this iteration     100.00

 eigenvalues of (default mixing * dielectric matrix)
  average eigenvalue GAMMA=   1.5066
  2.3611  2.0183  1.5170  0.9765  1.0833  1.0833

 Free energy of the ion-electron system (eV)
  ---------------------------------------------------
  alpha Z        PSCENC =       370.05370877
  Ewald energy   TEWEN  =    -15749.24775151
  -Hartree energ DENC   =     -8213.93199673
  -exchange      EXHF   =         0.00000000
  -V(xc)+E(xc)   XCENC  =       413.62967352
  PAW double counting   =     27882.40163112   -27132.96390201
  entropy T*S    EENTRO =         0.00000000
  eigenvalues    EBANDS =     -2734.13855322
  atomic energy  EATOM  =     24749.00668030
  Solvation  Ediel_sol  =         0.00000000
  ---------------------------------------------------
  free energy    TOTEN  =      -415.19050976 eV

  energy without entropy =     -415.19050976  energy(sigma->0) =     -415.19050976


--------------------------------------------------------------------------------------------------------




----------------------------------------- Iteration    1(  12)  ---------------------------------------


    POTLOK:  cpu time    0.4360: real time    0.4372
    SETDIJ:  cpu time    0.7560: real time    0.7541
     EDDAV:  cpu time   91.2177: real time   91.2760
       DOS:  cpu time    0.0000: real time    0.0017
    CHARGE:  cpu time    3.3322: real time    3.3324
    MIXING:  cpu time    0.0120: real time    0.0145
    --------------------------------------------
      LOOP:  cpu time   95.7620: real time   95.8740

 eigenvalue-minimisations  :  9864
 total energy-change (2. order) :-0.1480931E-02  (-0.1323581E-02)
 number of electron     400.0000000 magnetization 
 augmentation part        7.8429952 magnetization 

 Broyden mixing:
  rms(total) = 0.11591E-01    rms(broyden)= 0.11590E-01
  rms(prec ) = 0.13989E-01
  weight for this iteration     100.00

 eigenvalues of (default mixing * dielectric matrix)
  average eigenvalue GAMMA=   1.4559
  2.5988  2.3226  1.2487  1.2487  0.9129  0.9299  0.9299

 Free energy of the ion-electron system (eV)
  ---------------------------------------------------
  alpha Z        PSCENC =       370.05370877
  Ewald energy   TEWEN  =    -15749.24775151
  -Hartree energ DENC   =     -8214.18180375
  -exchange      EXHF   =         0.00000000
  -V(xc)+E(xc)   XCENC  =       413.67896116
  PAW double counting   =     27875.17848950   -27125.79030437
  entropy T*S    EENTRO =         0.00000000
  eigenvalues    EBANDS =     -2733.88997080
  atomic energy  EATOM  =     24749.00668030
  Solvation  Ediel_sol  =         0.00000000
  ---------------------------------------------------
  free energy    TOTEN  =      -415.19199069 eV

  energy without entropy =     -415.19199069  energy(sigma->0) =     -415.19199069


--------------------------------------------------------------------------------------------------------




----------------------------------------- Iteration    1(  13)  ---------------------------------------


    POTLOK:  cpu time    0.4400: real time    0.4395
    SETDIJ:  cpu time    0.7520: real time    0.7542
     EDDAV:  cpu time   78.9209: real time   78.9692
       DOS:  cpu time    0.0000: real time    0.0009
    CHARGE:  cpu time    3.3202: real time    3.3194
    MIXING:  cpu time    0.0120: real time    0.0148
    --------------------------------------------
      LOOP:  cpu time   83.4452: real time   83.5590

 eigenvalue-minimisations  :  8192
 total energy-change (2. order) :-0.2877710E-03  (-0.1806107E-03)
 number of electron     400.0000000 magnetization 
 augmentation part        7.8413039 magnetization 

 Broyden mixing:
  rms(total) = 0.88636E-02    rms(broyden)= 0.88632E-02
  rms(prec ) = 0.10160E-01
  weight for this iteration     100.00

 eigenvalues of (default mixing * dielectric matrix)
  average eigenvalue GAMMA=   1.4350
  2.6773  2.3242  1.3504  1.3504  0.9389  0.9389  0.9502  0.9502

 Free energy of the ion-electron system (eV)
  ---------------------------------------------------
  alpha Z        PSCENC =       370.05370877
  Ewald energy   TEWEN  =    -15749.24775151
  -Hartree energ DENC   =     -8214.45301231
  -exchange      EXHF   =         0.00000000
  -V(xc)+E(xc)   XCENC  =       413.70433794
  PAW double counting   =     27876.77311179   -27127.41285593
  entropy T*S    EENTRO =         0.00000000
  eigenvalues    EBANDS =     -2733.61649751
  atomic energy  EATOM  =     24749.00668030
  Solvation  Ediel_sol  =         0.00000000
  ---------------------------------------------------
  free energy    TOTEN  =      -415.19227847 eV

  energy without entropy =     -415.19227847  energy(sigma->0) =     -415.19227847


--------------------------------------------------------------------------------------------------------




----------------------------------------- Iteration    1(  14)  ---------------------------------------


    POTLOK:  cpu time    0.4360: real time    0.4377
    SETDIJ:  cpu time    0.7520: real time    0.7541
     EDDAV:  cpu time   85.1213: real time   85.1797
       DOS:  cpu time    0.0000: real time    0.0009
    CHARGE:  cpu time    3.3162: real time    3.3158
    MIXING:  cpu time    0.0160: real time    0.0151
    --------------------------------------------
      LOOP:  cpu time   89.6496: real time   89.7524

 eigenvalue-minimisations  :  8992
 total energy-change (2. order) :-0.7861014E-04  (-0.2910431E-04)
 number of electron     400.0000000 magnetization 
 augmentation part        7.8417815 magnetization 

 Broyden mixing:
  rms(total) = 0.52993E-02    rms(broyden)= 0.52992E-02
  rms(prec ) = 0.61159E-02
  weight for this iteration     100.00

 eigenvalues of (default mixing * dielectric matrix)
  average eigenvalue GAMMA=   1.5414
  2.7653  2.7653  1.9602  1.0389  1.0389  1.2952  0.9378  1.0357  1.0357

 Free energy of the ion-electron system (eV)
  ---------------------------------------------------
  alpha Z        PSCENC =       370.05370877
  Ewald energy   TEWEN  =    -15749.24775151
  -Hartree energ DENC   =     -8214.71229684
  -exchange      EXHF   =         0.00000000
  -V(xc)+E(xc)   XCENC  =       413.72364928
  PAW double counting   =     27873.69532855   -27124.32104480
  entropy T*S    EENTRO =         0.00000000
  eigenvalues    EBANDS =     -2733.39063083
  atomic energy  EATOM  =     24749.00668030
  Solvation  Ediel_sol  =         0.00000000
  ---------------------------------------------------
  free energy    TOTEN  =      -415.19235708 eV

  energy without entropy =     -415.19235708  energy(sigma->0) =     -415.19235708


--------------------------------------------------------------------------------------------------------




----------------------------------------- Iteration    1(  15)  ---------------------------------------


    POTLOK:  cpu time    0.4400: real time    0.4383
    SETDIJ:  cpu time    0.7480: real time    0.7517
     EDDAV:  cpu time   79.7530: real time   79.8044
       DOS:  cpu time    0.0040: real time    0.0025
    CHARGE:  cpu time    3.3162: real time    3.3184
    MIXING:  cpu time    0.0160: real time    0.0154
    --------------------------------------------
[...]
   -.677E+01 0.758E-01 0.431E+02   0.800E+01 -.831E-01 -.467E+02   -.167E+01 0.896E-02 0.487E+01   -.250E-08 0.553E-08 0.305E-07
   0.134E+02 0.888E-02 0.449E+02   -.142E+02 -.102E-01 -.488E+02   0.112E+01 0.634E-03 0.499E+01   0.386E-08 0.466E-08 0.198E-07
   0.216E+02 -.388E+02 -.159E+02   -.236E+02 0.429E+02 0.180E+02   0.236E+01 -.440E+01 -.235E+01   -.132E-08 -.921E-08 -.165E-07
   0.347E+02 -.384E+02 -.352E+01   -.375E+02 0.426E+02 0.432E+01   0.316E+01 -.444E+01 -.825E+00   0.183E-07 -.167E-07 -.109E-07
   0.347E+02 -.384E+02 -.352E+01   -.375E+02 0.426E+02 0.432E+01   0.316E+01 -.444E+01 -.825E+00   0.120E-07 -.125E-07 -.108E-07
   0.216E+02 -.388E+02 -.159E+02   -.236E+02 0.429E+02 0.180E+02   0.236E+01 -.440E+01 -.235E+01   0.513E-08 -.428E-08 -.170E-07
   0.216E+02 -.388E+02 -.159E+02   -.236E+02 0.429E+02 0.180E+02   0.236E+01 -.440E+01 -.235E+01   -.308E-08 -.969E-08 0.128E-07
   0.347E+02 -.384E+02 -.352E+01   -.375E+02 0.426E+02 0.432E+01   0.316E+01 -.444E+01 -.825E+00   0.198E-07 -.190E-07 0.169E-07
   0.347E+02 -.384E+02 -.352E+01   -.375E+02 0.426E+02 0.432E+01   0.316E+01 -.444E+01 -.825E+00   0.135E-07 -.115E-07 0.166E-07
   0.216E+02 -.388E+02 -.159E+02   -.236E+02 0.429E+02 0.180E+02   0.236E+01 -.440E+01 -.235E+01   0.767E-09 -.371E-08 0.109E-07
   0.215E+02 0.388E+02 -.159E+02   -.235E+02 -.430E+02 0.180E+02   0.234E+01 0.441E+01 -.236E+01   -.310E-08 0.251E-08 -.153E-07
   0.348E+02 0.384E+02 -.365E+01   -.375E+02 -.426E+02 0.447E+01   0.316E+01 0.443E+01 -.843E+00   0.200E-07 0.137E-07 -.109E-07
   0.348E+02 0.384E+02 -.365E+01   -.375E+02 -.426E+02 0.447E+01   0.316E+01 0.443E+01 -.843E+00   0.131E-07 0.171E-07 -.127E-07
   0.215E+02 0.388E+02 -.159E+02   -.235E+02 -.430E+02 0.180E+02   0.234E+01 0.441E+01 -.236E+01   0.426E-08 0.807E-08 -.181E-07
   0.215E+02 0.388E+02 -.159E+02   -.235E+02 -.430E+02 0.180E+02   0.234E+01 0.441E+01 -.236E+01   -.279E-08 0.456E-08 0.112E-07
   0.348E+02 0.384E+02 -.365E+01   -.375E+02 -.426E+02 0.447E+01   0.316E+01 0.443E+01 -.843E+00   0.181E-07 0.108E-07 0.168E-07
   0.348E+02 0.384E+02 -.365E+01   -.375E+02 -.426E+02 0.447E+01   0.316E+01 0.443E+01 -.843E+00   0.128E-07 0.181E-07 0.184E-07
   0.215E+02 0.388E+02 -.159E+02   -.235E+02 -.430E+02 0.180E+02   0.234E+01 0.441E+01 -.236E+01   0.286E-08 0.118E-07 0.125E-07
   -.275E+02 -.480E+02 0.245E+02   0.300E+02 0.529E+02 -.270E+02   -.297E+01 -.520E+01 0.276E+01   -.387E-09 0.446E-08 -.213E-07
   -.366E+02 -.458E+02 0.866E+01   0.399E+02 0.507E+02 -.946E+01   -.379E+01 -.519E+01 0.799E+00   -.120E-07 -.184E-07 -.160E-07
   -.366E+02 -.458E+02 0.866E+01   0.399E+02 0.507E+02 -.946E+01   -.379E+01 -.519E+01 0.799E+00   -.178E-07 -.139E-07 -.167E-07
   -.275E+02 -.480E+02 0.245E+02   0.300E+02 0.529E+02 -.270E+02   -.297E+01 -.520E+01 0.276E+01   0.731E-08 0.110E-07 -.215E-07
   -.275E+02 -.480E+02 0.245E+02   0.300E+02 0.529E+02 -.270E+02   -.297E+01 -.520E+01 0.276E+01   -.351E-08 0.135E-08 0.100E-07
   -.366E+02 -.458E+02 0.866E+01   0.399E+02 0.507E+02 -.946E+01   -.379E+01 -.519E+01 0.799E+00   -.153E-07 -.206E-07 0.129E-07
   -.366E+02 -.458E+02 0.866E+01   0.399E+02 0.507E+02 -.946E+01   -.379E+01 -.519E+01 0.799E+00   -.176E-07 -.901E-08 0.129E-07
   -.275E+02 -.480E+02 0.245E+02   0.300E+02 0.529E+02 -.270E+02   -.297E+01 -.520E+01 0.276E+01   0.452E-08 0.119E-07 0.719E-08
   -.276E+02 0.479E+02 0.245E+02   0.302E+02 -.528E+02 -.270E+02   -.298E+01 0.519E+01 0.275E+01   -.148E-08 -.643E-08 -.204E-07
   -.366E+02 0.459E+02 0.846E+01   0.399E+02 -.507E+02 -.924E+01   -.378E+01 0.519E+01 0.776E+00   -.970E-08 0.889E-08 -.156E-07
   -.366E+02 0.459E+02 0.846E+01   0.399E+02 -.507E+02 -.924E+01   -.378E+01 0.519E+01 0.776E+00   -.164E-07 0.166E-07 -.186E-07
   -.276E+02 0.479E+02 0.245E+02   0.302E+02 -.528E+02 -.270E+02   -.298E+01 0.519E+01 0.275E+01   0.501E-08 -.263E-08 -.225E-07
   -.276E+02 0.479E+02 0.245E+02   0.302E+02 -.528E+02 -.270E+02   -.298E+01 0.519E+01 0.275E+01   0.766E-09 -.150E-07 0.930E-08
   -.366E+02 0.459E+02 0.846E+01   0.399E+02 -.507E+02 -.924E+01   -.378E+01 0.519E+01 0.776E+00   -.148E-07 0.130E-07 0.115E-07
   -.366E+02 0.459E+02 0.846E+01   0.399E+02 -.507E+02 -.924E+01   -.378E+01 0.519E+01 0.776E+00   -.217E-07 0.234E-07 0.154E-07
   -.276E+02 0.479E+02 0.245E+02   0.302E+02 -.528E+02 -.270E+02   -.298E+01 0.519E+01 0.275E+01   0.367E-08 -.419E-08 0.827E-08
   -.146E+02 -.121E-01 -.494E+02   0.156E+02 0.135E-01 0.535E+02   -.159E+01 0.709E-03 -.526E+01   -.690E-08 -.278E-08 -.921E-08
   0.191E+02 -.963E-01 -.567E+02   -.207E+02 0.108E+00 0.615E+02   0.188E+01 -.127E-01 -.594E+01   0.580E-08 -.358E-08 -.329E-07
   0.191E+02 -.963E-01 -.567E+02   -.207E+02 0.108E+00 0.615E+02   0.188E+01 -.127E-01 -.594E+01   -.275E-08 0.444E-08 -.348E-07
   -.146E+02 -.121E-01 -.494E+02   0.156E+02 0.135E-01 0.535E+02   -.159E+01 0.709E-03 -.526E+01   0.978E-09 0.435E-08 -.576E-08
   -.146E+02 -.121E-01 -.494E+02   0.156E+02 0.135E-01 0.535E+02   -.159E+01 0.709E-03 -.526E+01   -.253E-08 -.410E-08 0.232E-07
   0.191E+02 -.963E-01 -.567E+02   -.207E+02 0.108E+00 0.615E+02   0.188E+01 -.127E-01 -.594E+01   0.385E-08 -.365E-08 -.114E-07
   0.191E+02 -.963E-01 -.567E+02   -.207E+02 0.108E+00 0.615E+02   0.188E+01 -.127E-01 -.594E+01   -.320E-08 0.245E-08 -.938E-08
   -.146E+02 -.121E-01 -.494E+02   0.156E+02 0.135E-01 0.535E+02   -.159E+01 0.709E-03 -.526E+01   0.424E-08 0.288E-08 0.271E-07
   -.272E+02 0.225E+02 -.115E+02   0.263E+02 -.227E+02 0.112E+02   0.954E+00 0.201E+00 0.269E+00   -.111E-06 -.408E-07 -.123E-06
   -.273E+02 -.224E+02 -.115E+02   0.264E+02 0.226E+02 0.112E+02   0.959E+00 -.193E+00 0.271E+00   -.745E-07 -.812E-07 -.110E-06
   -.273E+02 -.224E+02 -.115E+02   0.264E+02 0.226E+02 0.112E+02   0.959E+00 -.193E+00 0.271E+00   -.984E-07 -.127E-07 -.592E-07
   -.272E+02 0.225E+02 -.115E+02   0.263E+02 -.227E+02 0.112E+02   0.954E+00 0.201E+00 0.269E+00   -.415E-07 0.750E-07 -.862E-07
   -.272E+02 0.225E+02 -.115E+02   0.263E+02 -.227E+02 0.112E+02   0.954E+00 0.201E+00 0.269E+00   -.831E-07 0.167E-07 0.704E-07
   -.273E+02 -.224E+02 -.115E+02   0.264E+02 0.226E+02 0.112E+02   0.959E+00 -.193E+00 0.271E+00   0.144E-08 -.351E-07 0.327E-07
   -.273E+02 -.224E+02 -.115E+02   0.264E+02 0.226E+02 0.112E+02   0.959E+00 -.193E+00 0.271E+00   -.137E-06 0.958E-07 -.683E-07
   -.272E+02 0.225E+02 -.115E+02   0.263E+02 -.227E+02 0.112E+02   0.954E+00 0.201E+00 0.269E+00   -.697E-07 0.150E-07 0.355E-07
   -.167E+02 0.121E+02 0.550E+01   0.168E+02 -.121E+02 -.543E+01   -.815E-01 0.267E-01 -.748E-01   -.951E-08 0.107E-07 -.107E-06
   -.168E+02 -.120E+02 0.548E+01   0.170E+02 0.121E+02 -.540E+01   -.840E-01 -.256E-01 -.756E-01   0.418E-08 -.130E-07 -.107E-06
   -.168E+02 -.120E+02 0.548E+01   0.170E+02 0.121E+02 -.540E+01   -.840E-01 -.256E-01 -.756E-01   -.104E-07 -.122E-07 -.864E-07
   -.167E+02 0.121E+02 0.550E+01   0.168E+02 -.121E+02 -.543E+01   -.815E-01 0.267E-01 -.748E-01   0.602E-08 0.130E-07 -.770E-07
   -.167E+02 0.121E+02 0.550E+01   0.168E+02 -.121E+02 -.543E+01   -.815E-01 0.267E-01 -.748E-01   -.154E-07 0.149E-07 0.118E-06
   -.168E+02 -.120E+02 0.548E+01   0.170E+02 0.121E+02 -.540E+01   -.840E-01 -.256E-01 -.756E-01   0.286E-08 -.159E-07 0.115E-06
   -.168E+02 -.120E+02 0.548E+01   0.170E+02 0.121E+02 -.540E+01   -.840E-01 -.256E-01 -.756E-01   -.123E-07 -.145E-07 0.103E-06
   -.167E+02 0.121E+02 0.550E+01   0.168E+02 -.121E+02 -.543E+01   -.815E-01 0.267E-01 -.748E-01   0.204E-08 0.165E-07 0.804E-07
   0.174E+02 -.743E-01 -.143E+02   -.181E+02 0.756E-01 0.153E+02   0.815E+00 -.136E-02 -.110E+01   -.165E-07 -.135E-07 0.128E-07
   -.428E+02 -.352E-01 -.187E+02   0.435E+02 0.360E-01 0.190E+02   -.730E+00 -.717E-03 -.360E+00   -.214E-07 -.121E-07 0.700E-08
   -.428E+02 -.352E-01 -.187E+02   0.435E+02 0.360E-01 0.190E+02   -.730E+00 -.717E-03 -.360E+00   -.193E-07 0.104E-07 0.389E-08
   0.174E+02 -.743E-01 -.143E+02   -.181E+02 0.756E-01 0.153E+02   0.815E+00 -.136E-02 -.110E+01   0.170E-07 0.153E-07 0.160E-07
   0.174E+02 -.743E-01 -.143E+02   -.181E+02 0.756E-01 0.153E+02   0.815E+00 -.136E-02 -.110E+01   -.231E-07 -.354E-07 0.191E-07
   -.428E+02 -.352E-01 -.187E+02   0.435E+02 0.360E-01 0.190E+02   -.730E+00 -.717E-03 -.360E+00   -.214E-07 -.474E-07 -.728E-08
   -.428E+02 -.352E-01 -.187E+02   0.435E+02 0.360E-01 0.190E+02   -.730E+00 -.717E-03 -.360E+00   -.879E-08 0.404E-07 -.274E-08
   0.174E+02 -.743E-01 -.143E+02   -.181E+02 0.756E-01 0.153E+02   0.815E+00 -.136E-02 -.110E+01   0.125E-07 0.427E-07 0.158E-07
   0.118E+02 -.856E+00 -.401E+01   -.113E+02 0.157E+01 0.377E+01   -.584E+00 -.987E+00 0.332E+00   -.190E-07 0.358E-07 -.444E-07
   0.118E+02 0.834E+00 -.408E+01   -.114E+02 -.154E+01 0.385E+01   -.584E+00 0.983E+00 0.331E+00   0.531E-07 -.412E-07 -.440E-07
   0.118E+02 0.834E+00 -.408E+01   -.114E+02 -.154E+01 0.385E+01   -.584E+00 0.983E+00 0.331E+00   -.323E-07 -.844E-08 -.325E-07
   0.118E+02 -.856E+00 -.401E+01   -.113E+02 0.157E+01 0.377E+01   -.584E+00 -.987E+00 0.332E+00   0.604E-07 0.147E-07 -.337E-07
   0.118E+02 -.856E+00 -.401E+01   -.113E+02 0.157E+01 0.377E+01   -.584E+00 -.987E+00 0.332E+00   -.206E-07 0.327E-07 0.246E-07
   0.118E+02 0.834E+00 -.408E+01   -.114E+02 -.154E+01 0.385E+01   -.584E+00 0.983E+00 0.331E+00   0.473E-07 -.345E-07 0.220E-07
   0.118E+02 0.834E+00 -.408E+01   -.114E+02 -.154E+01 0.385E+01   -.584E+00 0.983E+00 0.331E+00   -.837E-08 -.193E-07 0.997E-08
   0.118E+02 -.856E+00 -.401E+01   -.113E+02 0.157E+01 0.377E+01   -.584E+00 -.987E+00 0.332E+00   0.428E-07 0.188E-07 0.104E-07
 -----------------------------------------------------------------------------------------------
   -.580E+02 -.100E+00 -.144E+02   -.457E-12 0.120E-12 -.242E-12   0.580E+02 0.100E+00 0.144E+02   -.935E-06 0.333E-07 -.415E-06
 
 
 POSITION                                       TOTAL-FORCE (eV/Angst)
 -----------------------------------------------------------------------------------
      2.28486      3.11266      3.30389         0.701635      0.000851     -0.578735
      9.02311      3.11558      2.65545         0.923502     -0.000642     -0.046493
      2.73528      9.34339      2.58598         0.923502     -0.000642     -0.046493
      8.57388      9.34239      3.37261         0.701635      0.000851     -0.578735
      2.35457      3.11271      9.67760         0.701635      0.000851     -0.578735
      9.09281      3.11562      9.02916         0.923502     -0.000642     -0.046493
      2.80499      9.34343      8.95969         0.923502     -0.000642     -0.046493
      8.64359      9.34243      9.74632         0.701635      0.000851     -0.578735
      3.80539      3.11431      3.51209        -0.281719     -0.003748      0.423001
     10.22022      3.11672      3.62345        -0.497396     -0.002819      0.000656
      3.93240      9.34453      3.55397        -0.497396     -0.002819      0.000656
     10.09441      9.34404      3.58082        -0.281719     -0.003748      0.423001
      3.87510      3.11436      9.88580        -0.281719     -0.003748      0.423001
     10.28992      3.11677      9.99716        -0.497396     -0.002819      0.000656
      4.00210      9.34458      9.92768        -0.497396     -0.002819      0.000656
     10.16411      9.34408      9.95453        -0.281719     -0.003748      0.423001
      2.06461      3.11251      2.18303         0.311495     -0.000670      1.154366
      9.42264      3.11357      1.58530        -0.432190      0.001696      1.216855
      3.13482      9.34138      1.51583        -0.432190      0.001696      1.216855
      8.35363      9.34224      2.25176         0.311495     -0.000670      1.154366
      2.13432      3.11256      8.55674         0.311495     -0.000670      1.154366
      9.49234      3.11361      7.95901        -0.432190      0.001696      1.216855
      3.20452      9.34142      7.88954        -0.432190      0.001696      1.216855
      8.42334      9.34228      8.62547         0.311495     -0.000670      1.154366
      1.83958      4.01249      3.78287         0.355808     -0.256341     -0.213053
      8.40302      4.02054      2.84272         0.407202     -0.234733     -0.026721
      2.11520     10.24835      2.77325         0.407202     -0.234733     -0.026721
      8.12859     10.24222      3.85160         0.355808     -0.256341     -0.213053
      1.90928      4.01253     10.15659         0.355808     -0.256341     -0.213053
      8.47272      4.02058      9.21643         0.407202     -0.234733     -0.026721
      2.18490     10.24839      9.14696         0.407202     -0.234733     -0.026721
      8.19830     10.24226     10.22531         0.355808     -0.256341     -0.213053
      1.84218      2.21176      3.78303         0.351124      0.255190     -0.213537
      8.40275      2.21167      2.84627         0.404018      0.232182     -0.029727
      2.11493      8.43948      2.77680         0.404018      0.232182     -0.029727
      8.13119      8.44148      3.85175         0.351124      0.255190     -0.213537
      1.91188      2.21180     10.15674         0.351124      0.255190     -0.213537
      8.47246      2.21171      9.21998         0.404018      0.232182     -0.029727
      2.18463      8.43952      9.15051         0.404018      0.232182     -0.029727
      8.20090      8.44153     10.22547         0.351124      0.255190     -0.213537
      4.27644      3.95304      3.07041        -0.424675     -0.315584      0.270916
     10.83952      3.96916      3.48743        -0.506056     -0.352011      0.001716
      4.55170     10.19697      3.41796        -0.506056     -0.352011      0.001716
     10.56545     10.18277      3.13914        -0.424675     -0.315584      0.270916
      4.34614      3.95308      9.44412        -0.424675     -0.315584      0.270916
     10.90923      3.96920      9.86114        -0.506056     -0.352011      0.001716
      4.62141     10.19702      9.79167        -0.506056     -0.352011      0.001716
     10.63516     10.18281      9.51285        -0.424675     -0.315584      0.270916
      4.27858      2.27648      3.07047        -0.430487      0.318549      0.270615
     10.83888      2.26301      3.49103        -0.509895      0.356543     -0.002643
      4.55105      8.49082      3.42155        -0.509895      0.356543     -0.002643
     10.56759      8.50621      3.13919        -0.430487      0.318549      0.270615
      4.34828      2.27653      9.44418        -0.430487      0.318549      0.270615
     10.90858      2.26306      9.86474        -0.509895      0.356543     -0.002643
      4.62076      8.49087      9.79527        -0.509895      0.356543     -0.002643
     10.63730      8.50625      9.51290        -0.430487      0.318549      0.270615
      4.11969      3.11424      4.56730        -0.598902      0.002067     -1.096636
      9.89432      3.11904      4.65142         0.273789     -0.000817     -1.140134
      3.60650      9.34685      4.58195         0.273789     -0.000817     -1.140134
     10.40871      9.34397      4.63603        -0.598902      0.002067     -1.096636
      4.18940      3.11429     10.94101        -0.598902      0.002067     -1.096636
      9.96402      3.11909     11.02513         0.273789     -0.000817     -1.140134
      3.67620      9.34690     10.95566         0.273789     -0.000817     -1.140134
     10.47842      9.34401     11.00974        -0.598902      0.002067     -1.096636
      6.01036      6.19262      6.29605         0.020831     -0.000974     -0.012937
     12.29919      6.26751      6.36505         0.021611      0.001088     -0.012874
      6.01017      0.03779      6.29633         0.021611      0.001088     -0.012874
     12.29938     12.42235      6.36478         0.020831     -0.000974     -0.012937
      6.08007      6.19267     12.66976         0.020831     -0.000974     -0.012937
     12.36889      6.26756     12.73876         0.021611      0.001088     -0.012874
      6.07988      0.03783     12.67004         0.021611      0.001088     -0.012874
     12.36909     12.42240     12.73849         0.020831     -0.000974     -0.012937
      5.75240      6.20987      3.09103         0.023446     -0.009677     -0.000817
     12.04193      6.25019      3.15990         0.023609      0.009421     -0.000898
      5.75291      0.02046      3.09117         0.023609      0.009421     -0.000898
     12.04142     12.43959      3.15975         0.023446     -0.009677     -0.000817
      5.82210      6.20991      9.46474         0.023446     -0.009677     -0.000817
     12.11164      6.25024      9.53361         0.023609      0.009421     -0.000898
      5.82262      0.02051      9.46488         0.023609      0.009421     -0.000898
     12.11112     12.43964      9.53346         0.023446     -0.009677     -0.000817
      4.93954      3.11502      0.34181         0.178643     -0.000050     -0.156708
      0.08592      3.11400      0.01465        -0.086864      0.000016      0.004916
      6.37494      9.34372      0.08338        -0.086864      0.000016      0.004916
     11.22855      9.34474      0.41054         0.178643     -0.000050     -0.156708
      5.00924      3.11506      6.71552         0.178643     -0.000050     -0.156708
      0.15563      3.11404      6.38836        -0.086864      0.000016      0.004916
      6.44465      9.34377      6.45709        -0.086864      0.000016      0.004916
     11.29826      9.34479      6.78425         0.178643     -0.000050     -0.156708
      2.78356      7.07911      5.90907        -0.114098     -0.276574      0.093745
      9.07216      5.38023      5.97827        -0.114432      0.277035      0.095125
      2.78434     11.60805      5.90880        -0.114432      0.277035      0.095125
      9.07138      0.85130      5.97854        -0.114098     -0.276574      0.093745
      2.85327      7.07915     12.28278        -0.114098     -0.276574      0.093745
      9.14187      5.38028     12.35198        -0.114432      0.277035      0.095125
      2.85405     11.60809     12.28251        -0.114432      0.277035      0.095125
      9.14109      0.85134     12.35225        -0.114098     -0.276574      0.093745
 -----------------------------------------------------------------------------------
    total drift:                               -0.001114     -0.000001     -0.001168


--------------------------------------------------------------------------------------------------------



  FREE ENERGIE OF THE ION-ELECTRON SYSTEM (eV)
  ---------------------------------------------------
  free  energy   TOTEN  =      -415.19241267 eV

  energy  without entropy=     -415.19241267  energy(sigma->0) =     -415.19241267
 


--------------------------------------------------------------------------------------------------------


    POTLOK:  cpu time    1.3121: real time    1.3130


--------------------------------------------------------------------------------------------------------


     LOOP+:  cpu time 3389.0478: real time 3392.8127
    4ORBIT:  cpu time    0.0000: real time    0.0000

 total amount of memory used by VASP on root node   697522. kBytes
========================================================================

   base      :      30000. kBytes
   nonl-proj :     325712. kBytes
   fftplans  :      80881. kBytes
   grid      :      57435. kBytes
   one-center:        497. kBytes
   wavefun   :     202997. kBytes
 
  
  
 General timing and accounting informations for this job:
 ========================================================
  
                  Total CPU time used (sec):     3418.502
                            User time (sec):     3416.982
                          System time (sec):        1.520
                         Elapsed time (sec):     3422.571
  
                   Maximum memory used (kb):      648796.
                   Average memory used (kb):           0.
  
                          Minor page faults:       279929
                          Major page faults:            0
                 Voluntary context switches:         2098
