 running on   96 total cores
 distrk:  each k-point on   24 cores,    4 groups
 distr:  one band on    3 cores,    8 groups
 using from now: INCAR     
 vasp.5.4.1 24Jun15 (build Nov 25 2015 16:01:35) complex                        
  
 POSCAR found :  5 types and      96 ions
 scaLAPACK will be used

 ----------------------------------------------------------------------------- 
|                                                                             |
|           W    W    AA    RRRRR   N    N  II  N    N   GGGG   !!!           |
|           W    W   A  A   R    R  NN   N  II  NN   N  G    G  !!!           |
|           W    W  A    A  R    R  N N  N  II  N N  N  G       !!!           |
|           W WW W  AAAAAA  RRRRR   N  N N  II  N  N N  G  GGG   !            |
|           WW  WW  A    A  R   R   N   NN  II  N   NN  G    G                |
|           W    W  A    A  R    R  N    N  II  N    N   GGGG   !!!           |
|                                                                             |
|      For optimal performance we recommend to set                            |
|        NCORE= 4 - approx SQRT( number of cores)                             |
|      NCORE specifies how many cores store one orbital (NPAR=cpu/NCORE).     |
|      This setting can  greatly improve the performance of VASP for DFT.     |
|      The default, NPAR=number of cores might be grossly inefficient         |
|      on modern multi-core architectures or massively parallel machines.     |
|      Do your own testing !!!!                                               |
|      Unfortunately you need to use the default for GW and RPA calculations. |
|      (for HF NCORE is supported but not extensively tested yet)             |
|                                                                             |
 ----------------------------------------------------------------------------- 


 ----------------------------------------------------------------------------- 
|                                                                             |
|           W    W    AA    RRRRR   N    N  II  N    N   GGGG   !!!           |
|           W    W   A  A   R    R  NN   N  II  NN   N  G    G  !!!           |
|           W    W  A    A  R    R  N N  N  II  N N  N  G       !!!           |
|           W WW W  AAAAAA  RRRRR   N  N N  II  N  N N  G  GGG   !            |
|           WW  WW  A    A  R   R   N   NN  II  N   NN  G    G                |
|           W    W  A    A  R    R  N    N  II  N    N   GGGG   !!!           |
|                                                                             |
|      You have enabled k-point parallelism (KPAR>1).                         |
|      This developmental code was originally  written by Paul Kent at ORNL,  |
|      and carefully double checked in Vienna.                                |
|      GW as well as linear response parallelism added by Martijn Marsman     |
|      and Georg Kresse.                                                      |
|      Carefully verify results versus KPAR=1.                                |
|      Report problems to Paul Kent and Vienna.                               |
|                                                                             |
 ----------------------------------------------------------------------------- 


 ----------------------------------------------------------------------------- 
|                                                                             |
|  ADVICE TO THIS USER RUNNING 'VASP/VAMP'   (HEAR YOUR MASTER'S VOICE ...):  |
|                                                                             |
|      You have a (more or less) 'large supercell' and for larger cells       |
|      it might be more efficient to use real space projection opertators     |
|      So try LREAL= Auto  in the INCAR   file.                               |
|      Mind: At the moment your POTCAR file does not contain real space       |
|       projectors, and has to be modified,  BUT if you                       |
|      want to do an extremely  accurate calculation you might also keep the  |
|      reciprocal projection scheme          (i.e. LREAL=.FALSE.)             |
|                                                                             |
 ----------------------------------------------------------------------------- 


 ----------------------------------------------------------------------------- 
|                                                                             |
|  ADVICE TO THIS USER RUNNING 'VASP/VAMP'   (HEAR YOUR MASTER'S VOICE ...):  |
|                                                                             |
|      You enforced a specific xc-type in the INCAR file,                     |
|      a different type was found on the POTCAR file                          |
|          I HOPE YOU KNOW, WHAT YOU ARE  DOING                               |
|                                                                             |
 ----------------------------------------------------------------------------- 

 LDA part: xc-table for Pade appr. of Perdew
 POSCAR, INCAR and KPOINTS ok, starting setup
 WARNING: small aliasing (wrap around) errors must be expected
 FFT: planning ...
 WAVECAR not read
 entering main loop
       N       E                     dE             d eps       ncg     rms          rms(c)
DAV:   1     0.357480620483E+04    0.35748E+04   -0.18917E+05  7176   0.170E+03
DAV:   2     0.198618343435E+03   -0.33762E+04   -0.31696E+04  8032   0.353E+02
DAV:   3    -0.394778713230E+03   -0.59340E+03   -0.58454E+03  9424   0.171E+02
DAV:   4    -0.435482077145E+03   -0.40703E+02   -0.40518E+02  9704   0.492E+01
DAV:   5    -0.436980600540E+03   -0.14985E+01   -0.14956E+01  9736   0.911E+00    0.281E+01
DAV:   6    -0.417783259549E+03    0.19197E+02   -0.38263E+01 10256   0.106E+01    0.149E+01
DAV:   7    -0.415428696018E+03    0.23546E+01   -0.14908E+01 10136   0.664E+00    0.750E+00
DAV:   8    -0.415242152183E+03    0.18654E+00   -0.31609E+00  8792   0.329E+00    0.176E+00
DAV:   9    -0.415178816245E+03    0.63336E-01   -0.67762E-01  9264   0.170E+00    0.684E-01
DAV:  10    -0.415192076536E+03   -0.13260E-01   -0.12291E-01  8632   0.621E-01    0.508E-01
DAV:  11    -0.415190509764E+03    0.15668E-02   -0.15447E-02  9576   0.304E-01    0.245E-01
DAV:  12    -0.415191990694E+03   -0.14809E-02   -0.13236E-02  9864   0.186E-01    0.116E-01
DAV:  13    -0.415192278465E+03   -0.28777E-03   -0.18061E-03  8192   0.916E-02    0.886E-02
DAV:  14    -0.415192357075E+03   -0.78610E-04   -0.29104E-04  8992   0.325E-02    0.530E-02
DAV:  15    -0.415192406593E+03   -0.49518E-04   -0.42313E-04  8304   0.343E-02    0.191E-02
DAV:  16    -0.415192414846E+03   -0.82535E-05   -0.51182E-05  9904   0.158E-02    0.220E-02
DAV:  17    -0.415192413074E+03    0.17721E-05   -0.53501E-06  8752   0.457E-03    0.122E-02
DAV:  18    -0.415192412240E+03    0.83482E-06   -0.21772E-05 10176   0.755E-03    0.415E-03
DAV:  19    -0.415192412655E+03   -0.41563E-06   -0.26945E-06  9000   0.360E-03    0.441E-03
DAV:  20    -0.415192412637E+03    0.18212E-07   -0.25897E-07  9240   0.113E-03    0.191E-03
DAV:  21    -0.415192412691E+03   -0.53977E-07   -0.40292E-07  9880   0.110E-03    0.733E-04
DAV:  22    -0.415192412676E+03    0.15327E-07   -0.44880E-08  8552   0.557E-04    0.358E-04
DAV:  23    -0.415192412668E+03    0.80399E-08   -0.45539E-09  8360   0.211E-04    0.298E-04
DAV:  24    -0.415192412673E+03   -0.50495E-08   -0.28322E-09  9216   0.131E-04    0.217E-04
DAV:  25    -0.415192412675E+03   -0.23283E-08    0.11428E-09  7224   0.844E-05    0.209E-04
DAV:  26    -0.415192412675E+03   -0.33106E-09    0.18746E-09  4832   0.438E-05    0.206E-04
DAV:  27    -0.415192412675E+03    0.78217E-09    0.17343E-09  5592   0.318E-05    0.198E-04
DAV:  28    -0.415192412674E+03    0.52751E-09    0.19351E-09  4272   0.302E-05    0.197E-04
DAV:  29    -0.415192412674E+03   -0.24374E-09    0.15443E-09  4256   0.212E-05    0.197E-04
DAV:  30    -0.415192412675E+03   -0.40382E-09    0.11554E-09  4256   0.167E-05    0.197E-04
DAV:  31    -0.415192412675E+03   -0.42564E-09    0.13910E-09  4256   0.884E-06    0.197E-04
DAV:  32    -0.415192412675E+03    0.12369E-09    0.13952E-09  4256   0.754E-06    0.197E-04
DAV:  33    -0.415192412675E+03    0.12369E-09    0.12571E-09  4256   0.326E-06    0.197E-04
DAV:  34    -0.415192412675E+03   -0.11278E-09    0.12284E-09  4256   0.201E-06    0.197E-04
DAV:  35    -0.415192412675E+03    0.29831E-09    0.12020E-09  4256   0.178E-06    0.197E-04
DAV:  36    -0.415192412674E+03    0.23283E-09    0.10841E-09  4256   0.636E-06    0.197E-04
DAV:  37    -0.415192412674E+03   -0.40018E-10    0.11774E-09  4232   0.381E-06    0.197E-04
DAV:  38    -0.415192412674E+03    0.72760E-11    0.13274E-09  4208   0.256E-06    0.197E-04
DAV:  39    -0.415192412675E+03   -0.29104E-09    0.12215E-09  4192   0.131E-06    0.197E-04
DAV:  40    -0.415192412675E+03    0.22919E-09    0.11259E-09  4176   0.143E-06    0.197E-04
DAV:  41    -0.415192412675E+03   -0.30195E-09    0.10585E-09  4120   0.310E-06    0.197E-04
DAV:  42    -0.415192412675E+03    0.26193E-09    0.69372E-10  4072   0.184E-06    0.197E-04
DAV:  43    -0.415192412675E+03   -0.19281E-09    0.88791E-10  4064   0.822E-07    0.197E-04
DAV:  44    -0.415192412675E+03   -0.50932E-10    0.86126E-10  4064   0.800E-07
   1 F= -.41519241E+03 E0= -.41519241E+03  d E =-.295953E-59
Application 22454119 resources: utime ~328066s, stime ~284s, Rss ~648796, inblocks ~906193, outblocks ~776449
