   2   2   1   0
  0.3405476E+02  0.4583961E-09  0.4583961E-09  0.4583961E-09  0.5000000E-15
  1.000000000000000E-004
  CAR 
 Name                                    
     15.71739702    -10.13369226  301      2.37177218      1.00000000
    -10.134  0.0000E+00  0.0000E+00
    -10.048  0.0000E+00  0.0000E+00
     -9.961  0.0000E+00  0.0000E+00
     -9.875  0.0000E+00  0.0000E+00
     -9.789  0.0000E+00  0.0000E+00
     -9.703  0.0000E+00  0.0000E+00
     -9.617  0.0000E+00  0.0000E+00
     -9.531  0.0000E+00  0.0000E+00
     -9.444  0.0000E+00  0.0000E+00
     -9.358  0.0000E+00  0.0000E+00
     -9.272  0.0000E+00  0.0000E+00
     -9.186  0.0000E+00  0.0000E+00
     -9.100  0.0000E+00  0.0000E+00
     -9.013  0.4772E-15  0.4112E-16
     -8.927  0.1075E+00  0.9259E-02
     -8.841  0.8237E+00  0.8024E-01
     -8.755  0.6443E+00  0.1389E+00
     -8.669  0.1290E+01  0.2500E+00
     -8.583  0.3438E+01  0.5463E+00
     -8.496  0.7478E+01  0.1191E+01
     -8.410  0.6587E+01  0.1873E+01
     -8.324  0.1469E+01  0.2000E+01
     -8.238  0.0000E+00  0.2000E+01
     -8.152  0.0000E+00  0.2000E+01
     -8.066  0.0000E+00  0.2000E+01
     -7.979  0.0000E+00  0.2000E+01
     -7.893  0.0000E+00  0.2000E+01
     -7.807  0.0000E+00  0.2000E+01
     -7.721  0.0000E+00  0.2000E+01
     -7.635  0.0000E+00  0.2000E+01
     -7.549  0.0000E+00  0.2000E+01
     -7.462  0.0000E+00  0.2000E+01
     -7.376  0.0000E+00  0.2000E+01
     -7.290  0.0000E+00  0.2000E+01
     -7.204  0.0000E+00  0.2000E+01
     -7.118  0.0000E+00  0.2000E+01
     -7.032  0.0000E+00  0.2000E+01
     -6.945  0.0000E+00  0.2000E+01
     -6.859  0.0000E+00  0.2000E+01
     -6.773  0.0000E+00  0.2000E+01
     -6.687  0.0000E+00  0.2000E+01
     -6.601  0.0000E+00  0.2000E+01
     -6.515  0.0000E+00  0.2000E+01
     -6.428  0.0000E+00  0.2000E+01
     -6.342  0.0000E+00  0.2000E+01
     -6.256  0.0000E+00  0.2000E+01
     -6.170  0.0000E+00  0.2000E+01
     -6.084  0.0000E+00  0.2000E+01
     -5.998  0.0000E+00  0.2000E+01
     -5.911  0.0000E+00  0.2000E+01
     -5.825  0.2784E+00  0.2024E+01
     -5.739  0.2285E+02  0.4000E+01
     -5.653  0.2289E+02  0.6188E+01
     -5.567  0.1700E+02  0.7687E+01
     -5.480  0.3046E+02  0.1050E+02
     -5.394  0.1813E+00  0.1056E+02
     -5.308  0.4842E-02  0.1060E+02
     -5.222  0.5408E+01  0.1107E+02
     -5.136  0.4544E+01  0.1148E+02
     -5.050  0.4192E+01  0.1189E+02
     -4.963  0.1288E+01  0.1200E+02
     -4.877  0.0000E+00  0.1200E+02
     -4.791  0.0000E+00  0.1200E+02
     -4.705  0.0000E+00  0.1200E+02
     -4.619  0.0000E+00  0.1200E+02
     -4.533  0.0000E+00  0.1200E+02
     -4.446  0.0000E+00  0.1200E+02
     -4.360  0.0000E+00  0.1200E+02
     -4.274  0.0000E+00  0.1200E+02
     -4.188  0.0000E+00  0.1200E+02
     -4.102  0.0000E+00  0.1200E+02
     -4.016  0.0000E+00  0.1200E+02
     -3.929  0.0000E+00  0.1200E+02
     -3.843  0.0000E+00  0.1200E+02
     -3.757  0.0000E+00  0.1200E+02
     -3.671  0.0000E+00  0.1200E+02
     -3.585  0.0000E+00  0.1200E+02
     -3.499  0.0000E+00  0.1200E+02
     -3.412  0.0000E+00  0.1200E+02
     -3.326  0.0000E+00  0.1200E+02
     -3.240  0.0000E+00  0.1200E+02
     -3.154  0.0000E+00  0.1200E+02
     -3.068  0.0000E+00  0.1200E+02
     -2.982  0.0000E+00  0.1200E+02
     -2.895  0.0000E+00  0.1200E+02
     -2.809  0.0000E+00  0.1200E+02
     -2.723  0.0000E+00  0.1200E+02
     -2.637  0.0000E+00  0.1200E+02
     -2.551  0.0000E+00  0.1200E+02
     -2.465  0.0000E+00  0.1200E+02
     -2.378  0.0000E+00  0.1200E+02
     -2.292  0.1473E-11  0.1200E+02
     -2.206  0.4298E+00  0.1204E+02
     -2.120  0.1686E-01  0.1204E+02
     -2.034  0.7080E+00  0.1210E+02
     -1.948  0.6415E+01  0.1265E+02
     -1.861  0.2579E+01  0.1295E+02
     -1.775  0.4015E-02  0.1295E+02
     -1.689  0.2575E+01  0.1318E+02
     -1.603  0.3201E-02  0.1318E+02
     -1.517  0.2576E+01  0.1340E+02
     -1.430  0.3665E-11  0.1340E+02
     -1.344  0.8596E+00  0.1347E+02
     -1.258  0.5370E+00  0.1352E+02
     -1.172  0.0000E+00  0.1353E+02
     -1.086  0.0000E+00  0.1353E+02
     -1.000  0.0000E+00  0.1353E+02
     -0.913  0.1835E+01  0.1369E+02
     -0.827  0.0000E+00  0.1375E+02
     -0.741  0.0000E+00  0.1375E+02
     -0.655  0.0000E+00  0.1375E+02
     -0.569  0.0000E+00  0.1375E+02
     -0.483  0.1289E+01  0.1386E+02
     -0.396  0.1281E+01  0.1397E+02
     -0.310  0.0000E+00  0.1397E+02
     -0.224  0.8876E-08  0.1397E+02
     -0.138  0.2579E+01  0.1419E+02
     -0.052  0.1418E-11  0.1419E+02
      0.034  0.1321E+01  0.1431E+02
      0.121  0.3868E+01  0.1464E+02
      0.207  0.2547E+01  0.1486E+02
      0.293  0.0000E+00  0.1486E+02
      0.379  0.6446E+00  0.1492E+02
      0.465  0.2692E+01  0.1515E+02
      0.551  0.1420E+01  0.1527E+02
      0.638  0.7692E+01  0.1593E+02
      0.724  0.4291E+00  0.1597E+02
      0.810  0.0000E+00  0.1605E+02
      0.896  0.1625E+00  0.1606E+02
      0.982  0.4866E+01  0.1648E+02
      1.068  0.7826E-06  0.1649E+02
      1.155  0.5131E+01  0.1693E+02
      1.241  0.2571E+01  0.1716E+02
      1.327  0.0000E+00  0.1716E+02
      1.413  0.4193E-04  0.1716E+02
      1.499  0.3438E+01  0.1745E+02
      1.585  0.7174E-12  0.1745E+02
      1.672  0.3009E+01  0.1771E+02
      1.758  0.0000E+00  0.1771E+02
      1.844  0.0000E+00  0.1771E+02
      1.930  0.1289E+01  0.1782E+02
      2.016  0.1357E+00  0.1784E+02
      2.102  0.1584E+01  0.1797E+02
      2.189  0.0000E+00  0.1797E+02
      2.275  0.3150E+00  0.1800E+02
      2.361  0.0000E+00  0.1800E+02
      2.447  0.0000E+00  0.1800E+02
      2.533  0.0000E+00  0.1800E+02
      2.620  0.0000E+00  0.1800E+02
      2.706  0.0000E+00  0.1800E+02
      2.792  0.0000E+00  0.1800E+02
      2.878  0.1170E-02  0.1800E+02
      2.964  0.1063E+00  0.1801E+02
      3.050  0.0000E+00  0.1801E+02
      3.137  0.0000E+00  0.1801E+02
      3.223  0.0000E+00  0.1801E+02
      3.309  0.0000E+00  0.1801E+02
      3.395  0.0000E+00  0.1801E+02
      3.481  0.0000E+00  0.1801E+02
      3.567  0.0000E+00  0.1801E+02
      3.654  0.0000E+00  0.1801E+02
      3.740  0.0000E+00  0.1801E+02
      3.826  0.0000E+00  0.1801E+02
      3.912  0.1216E-11  0.1801E+02
      3.998  0.4388E+00  0.1805E+02
      4.084  0.1673E+01  0.1819E+02
      4.171  0.0000E+00  0.1819E+02
      4.257  0.0000E+00  0.1819E+02
      4.343  0.0000E+00  0.1819E+02
      4.429  0.0000E+00  0.1819E+02
      4.515  0.0000E+00  0.1819E+02
      4.601  0.0000E+00  0.1819E+02
      4.688  0.6091E+00  0.1825E+02
      4.774  0.3218E+00  0.1828E+02
      4.860  0.1662E+01  0.1842E+02
      4.946  0.2594E+01  0.1864E+02
      5.032  0.5676E+01  0.1919E+02
      5.118  0.0000E+00  0.1936E+02
      5.205  0.1187E+01  0.1946E+02
      5.291  0.2034E+00  0.1949E+02
      5.377  0.0000E+00  0.1953E+02
      5.463  0.0000E+00  0.1953E+02
      5.549  0.0000E+00  0.1953E+02
      5.635  0.0000E+00  0.1953E+02
      5.722  0.1146E-05  0.1953E+02
      5.808  0.2579E+01  0.1975E+02
      5.894  0.6120E+01  0.2028E+02
      5.980  0.1278E+01  0.2047E+02
      6.066  0.0000E+00  0.2047E+02
      6.152  0.2259E-06  0.2047E+02
      6.239  0.2579E+01  0.2069E+02
      6.325  0.2579E+01  0.2092E+02
      6.411  0.0000E+00  0.2092E+02
      6.497  0.0000E+00  0.2092E+02
      6.583  0.0000E+00  0.2092E+02
      6.670  0.0000E+00  0.2092E+02
      6.756  0.9094E+00  0.2100E+02
      6.842  0.1911E+01  0.2131E+02
      6.928  0.8595E+00  0.2157E+02
      7.014  0.0000E+00  0.2157E+02
      7.100  0.2713E+01  0.2181E+02
      7.187  0.1510E+01  0.2194E+02
      7.273  0.6433E-01  0.2195E+02
      7.359  0.3203E+01  0.2223E+02
      7.445  0.3996E+01  0.2259E+02
      7.531  0.0000E+00  0.2261E+02
      7.617  0.2743E-04  0.2261E+02
      7.704  0.1290E+01  0.2272E+02
      7.790  0.1346E+01  0.2284E+02
      7.876  0.5089E+01  0.2328E+02
      7.962  0.2579E+01  0.2350E+02
      8.048  0.0000E+00  0.2350E+02
      8.134  0.2579E+01  0.2372E+02
      8.221  0.0000E+00  0.2372E+02
      8.307  0.2494E+01  0.2394E+02
      8.393  0.6992E+00  0.2400E+02
      8.479  0.4327E-01  0.2402E+02
      8.565  0.2536E+01  0.2424E+02
      8.651  0.0000E+00  0.2424E+02
      8.738  0.2529E+01  0.2446E+02
      8.824  0.9016E-01  0.2447E+02
      8.910  0.1199E+01  0.2457E+02
      8.996  0.7662E-03  0.2457E+02
      9.082  0.1289E+01  0.2469E+02
      9.168  0.5587E+01  0.2517E+02
      9.255  0.1002E-13  0.2517E+02
      9.341  0.6447E+00  0.2522E+02
      9.427  0.2063E+01  0.2540E+02
      9.513  0.7240E+00  0.2551E+02
      9.599  0.2578E+01  0.2573E+02
      9.685  0.2092E+01  0.2591E+02
      9.772  0.0000E+00  0.2595E+02
      9.858  0.3831E-01  0.2596E+02
      9.944  0.3830E+01  0.2629E+02
     10.030  0.2133E+00  0.2631E+02
     10.116  0.2786E+01  0.2655E+02
     10.202  0.3018E+01  0.2681E+02
     10.289  0.2863E-15  0.2681E+02
     10.375  0.2579E+01  0.2703E+02
     10.461  0.2916E-11  0.2703E+02
     10.547  0.8596E+00  0.2710E+02
     10.633  0.3537E+00  0.2713E+02
     10.720  0.3945E+01  0.2747E+02
     10.806  0.4289E+00  0.2751E+02
     10.892  0.2128E-07  0.2751E+02
     10.978  0.2901E+01  0.2776E+02
     11.064  0.1648E+01  0.2790E+02
     11.150  0.1290E+01  0.2802E+02
     11.237  0.2961E+01  0.2827E+02
     11.323  0.3868E+01  0.2869E+02
     11.409  0.0000E+00  0.2869E+02
     11.495  0.0000E+00  0.2869E+02
     11.581  0.1693E+00  0.2870E+02
     11.667  0.0000E+00  0.2870E+02
     11.754  0.1058E+01  0.2879E+02
     11.840  0.6446E+00  0.2887E+02
     11.926  0.3874E+01  0.2920E+02
     12.012  0.2573E+01  0.2943E+02
     12.098  0.1037E-03  0.2943E+02
     12.184  0.2579E+01  0.2965E+02
     12.271  0.0000E+00  0.2965E+02
     12.357  0.0000E+00  0.2965E+02
     12.443  0.2397E+01  0.2985E+02
     12.529  0.4083E+01  0.3022E+02
     12.615  0.2924E+01  0.3047E+02
     12.701  0.2233E+01  0.3067E+02
     12.788  0.0000E+00  0.3067E+02
     12.874  0.2295E+00  0.3069E+02
     12.960  0.2349E+01  0.3089E+02
     13.046  0.2962E+00  0.3091E+02
     13.132  0.0000E+00  0.3092E+02
     13.218  0.0000E+00  0.3092E+02
     13.305  0.1289E+01  0.3103E+02
     13.391  0.7126E-01  0.3103E+02
     13.477  0.2509E+01  0.3125E+02
     13.563  0.1288E+01  0.3136E+02
     13.649  0.3220E+01  0.3164E+02
     13.735  0.2077E-01  0.3181E+02
     13.822  0.3016E+00  0.3183E+02
     13.908  0.0000E+00  0.3183E+02
     13.994  0.0000E+00  0.3183E+02
     14.080  0.1720E+00  0.3185E+02
     14.166  0.0000E+00  0.3189E+02
     14.253  0.0000E+00  0.3189E+02
     14.339  0.1289E+01  0.3200E+02
     14.425  0.0000E+00  0.3200E+02
     14.511  0.0000E+00  0.3200E+02
     14.597  0.0000E+00  0.3200E+02
     14.683  0.0000E+00  0.3200E+02
     14.770  0.0000E+00  0.3200E+02
     14.856  0.0000E+00  0.3200E+02
     14.942  0.0000E+00  0.3200E+02
     15.028  0.0000E+00  0.3200E+02
     15.114  0.0000E+00  0.3200E+02
     15.200  0.0000E+00  0.3200E+02
     15.287  0.0000E+00  0.3200E+02
     15.373  0.0000E+00  0.3200E+02
     15.459  0.0000E+00  0.3200E+02
     15.545  0.0000E+00  0.3200E+02
     15.631  0.0000E+00  0.3200E+02
     15.717  0.0000E+00  0.3200E+02
     15.71739702    -10.13369226  301      2.37177218      1.00000000
    -10.134  0.0000E+00  0.0000E+00  0.0000E+00
    -10.048  0.0000E+00  0.0000E+00  0.0000E+00
     -9.961  0.0000E+00  0.0000E+00  0.0000E+00
     -9.875  0.0000E+00  0.0000E+00  0.0000E+00
     -9.789  0.0000E+00  0.0000E+00  0.0000E+00
     -9.703  0.0000E+00  0.0000E+00  0.0000E+00
     -9.617  0.0000E+00  0.0000E+00  0.0000E+00
     -9.531  0.0000E+00  0.0000E+00  0.0000E+00
     -9.444  0.0000E+00  0.0000E+00  0.0000E+00
     -9.358  0.0000E+00  0.0000E+00  0.0000E+00
     -9.272  0.0000E+00  0.0000E+00  0.0000E+00
     -9.186  0.0000E+00  0.0000E+00  0.0000E+00
     -9.100  0.0000E+00  0.0000E+00  0.0000E+00
     -9.013  0.3014E-16  0.2660E-27  0.1251E-26
     -8.927  0.6788E-02  0.5991E-13  0.2817E-12
     -8.841  0.4393E-01  0.2073E-02  0.1278E-01
     -8.755  0.3215E-01  0.2184E-02  0.1358E-01
     -8.669  0.4980E-01  0.7715E-02  0.5440E-01
     -8.583  0.1052E+00  0.2662E-01  0.2012E+00
     -8.496  0.1157E+00  0.8088E-01  0.6934E+00
     -8.410  0.2901E-01  0.8609E-01  0.7841E+00
     -8.324  0.1920E-12  0.2050E-01  0.1908E+00
     -8.238  0.0000E+00  0.0000E+00  0.0000E+00
     -8.152  0.0000E+00  0.0000E+00  0.0000E+00
     -8.066  0.0000E+00  0.0000E+00  0.0000E+00
     -7.979  0.0000E+00  0.0000E+00  0.0000E+00
     -7.893  0.0000E+00  0.0000E+00  0.0000E+00
     -7.807  0.0000E+00  0.0000E+00  0.0000E+00
     -7.721  0.0000E+00  0.0000E+00  0.0000E+00
     -7.635  0.0000E+00  0.0000E+00  0.0000E+00
     -7.549  0.0000E+00  0.0000E+00  0.0000E+00
     -7.462  0.0000E+00  0.0000E+00  0.0000E+00
     -7.376  0.0000E+00  0.0000E+00  0.0000E+00
     -7.290  0.0000E+00  0.0000E+00  0.0000E+00
     -7.204  0.0000E+00  0.0000E+00  0.0000E+00
     -7.118  0.0000E+00  0.0000E+00  0.0000E+00
     -7.032  0.0000E+00  0.0000E+00  0.0000E+00
     -6.945  0.0000E+00  0.0000E+00  0.0000E+00
     -6.859  0.0000E+00  0.0000E+00  0.0000E+00
     -6.773  0.0000E+00  0.0000E+00  0.0000E+00
     -6.687  0.0000E+00  0.0000E+00  0.0000E+00
     -6.601  0.0000E+00  0.0000E+00  0.0000E+00
     -6.515  0.0000E+00  0.0000E+00  0.0000E+00
     -6.428  0.0000E+00  0.0000E+00  0.0000E+00
     -6.342  0.0000E+00  0.0000E+00  0.0000E+00
     -6.256  0.0000E+00  0.0000E+00  0.0000E+00
     -6.170  0.0000E+00  0.0000E+00  0.0000E+00
     -6.084  0.0000E+00  0.0000E+00  0.0000E+00
     -5.998  0.0000E+00  0.0000E+00  0.0000E+00
     -5.911  0.0000E+00  0.0000E+00  0.0000E+00
     -5.825  0.3667E-15  0.1176E-03  0.2507E+00
     -5.739  0.1049E-01  0.1120E-01  0.2076E+02
     -5.653  0.5423E-02  0.1273E-01  0.2105E+02
     -5.567  0.2739E-01  0.8370E-03  0.1574E+02
     -5.480  0.2807E-01  0.1665E-02  0.2861E+02
     -5.394  0.1913E-02  0.2296E-03  0.1532E+00
     -5.308  0.5063E-04  0.6817E-05  0.4085E-02
     -5.222  0.5544E-01  0.8622E-02  0.4544E+01
     -5.136  0.2932E-01  0.1180E-01  0.3801E+01
     -5.050  0.1529E-01  0.1358E-01  0.3489E+01
     -4.963  0.5572E-15  0.5601E-02  0.1063E+01
     -4.877  0.0000E+00  0.0000E+00  0.0000E+00
     -4.791  0.0000E+00  0.0000E+00  0.0000E+00
     -4.705  0.0000E+00  0.0000E+00  0.0000E+00
     -4.619  0.0000E+00  0.0000E+00  0.0000E+00
     -4.533  0.0000E+00  0.0000E+00  0.0000E+00
     -4.446  0.0000E+00  0.0000E+00  0.0000E+00
     -4.360  0.0000E+00  0.0000E+00  0.0000E+00
     -4.274  0.0000E+00  0.0000E+00  0.0000E+00
     -4.188  0.0000E+00  0.0000E+00  0.0000E+00
     -4.102  0.0000E+00  0.0000E+00  0.0000E+00
     -4.016  0.0000E+00  0.0000E+00  0.0000E+00
     -3.929  0.0000E+00  0.0000E+00  0.0000E+00
     -3.843  0.0000E+00  0.0000E+00  0.0000E+00
     -3.757  0.0000E+00  0.0000E+00  0.0000E+00
     -3.671  0.0000E+00  0.0000E+00  0.0000E+00
     -3.585  0.0000E+00  0.0000E+00  0.0000E+00
     -3.499  0.0000E+00  0.0000E+00  0.0000E+00
     -3.412  0.0000E+00  0.0000E+00  0.0000E+00
     -3.326  0.0000E+00  0.0000E+00  0.0000E+00
     -3.240  0.0000E+00  0.0000E+00  0.0000E+00
     -3.154  0.0000E+00  0.0000E+00  0.0000E+00
     -3.068  0.0000E+00  0.0000E+00  0.0000E+00
     -2.982  0.0000E+00  0.0000E+00  0.0000E+00
     -2.895  0.0000E+00  0.0000E+00  0.0000E+00
     -2.809  0.0000E+00  0.0000E+00  0.0000E+00
     -2.723  0.0000E+00  0.0000E+00  0.0000E+00
     -2.637  0.0000E+00  0.0000E+00  0.0000E+00
     -2.551  0.0000E+00  0.0000E+00  0.0000E+00
     -2.465  0.0000E+00  0.0000E+00  0.0000E+00
     -2.378  0.0000E+00  0.0000E+00  0.0000E+00
     -2.292  0.2444E-12  0.3869E-13  0.1379E-15
     -2.206  0.7133E-01  0.1129E-01  0.4026E-04
     -2.120  0.4139E-02  0.1741E-14  0.5790E-03
     -2.034  0.1557E+00  0.6656E-02  0.1541E-01
     -1.948  0.1416E+01  0.7457E-01  0.6750E-01
     -1.861  0.6068E+00  0.1042E-01  0.8439E-01
     -1.775  0.7048E-03  0.8860E-04  0.1059E-03
     -1.689  0.4520E+00  0.5682E-01  0.6792E-01
     -1.603  0.6640E-03  0.3679E-04  0.1264E-03
     -1.517  0.5343E+00  0.2960E-01  0.1017E+00
     -1.430  0.5307E-12  0.1029E-12  0.1544E-12
     -1.344  0.1245E+00  0.2412E-01  0.3621E-01
     -1.258  0.1103E+00  0.3426E-02  0.3496E-01
     -1.172  0.0000E+00  0.0000E+00  0.0000E+00
     -1.086  0.0000E+00  0.0000E+00  0.0000E+00
     -1.000  0.0000E+00  0.0000E+00  0.0000E+00
     -0.913  0.2988E+00  0.3643E-01  0.1051E+00
     -0.827  0.0000E+00  0.0000E+00  0.0000E+00
     -0.741  0.0000E+00  0.0000E+00  0.0000E+00
     -0.655  0.0000E+00  0.0000E+00  0.0000E+00
     -0.569  0.0000E+00  0.0000E+00  0.0000E+00
     -0.483  0.1944E+00  0.2802E-01  0.7758E-01
     -0.396  0.6210E-02  0.9209E-01  0.3829E-01
     -0.310  0.0000E+00  0.0000E+00  0.0000E+00
     -0.224  0.1497E-09  0.6034E-09  0.2967E-09
     -0.138  0.4350E-01  0.1753E+00  0.8619E-01
     -0.052  0.3303E-14  0.9728E-13  0.5684E-13
      0.034  0.3203E-02  0.9081E-01  0.5251E-01
      0.121  0.1647E-01  0.3019E+00  0.8151E-01
      0.207  0.3508E-01  0.1788E+00  0.8219E-01
      0.293  0.0000E+00  0.0000E+00  0.0000E+00
      0.379  0.3357E-13  0.5196E-01  0.1202E-01
      0.465  0.9262E-01  0.1630E+00  0.1117E+00
      0.551  0.1859E+00  0.3024E-01  0.9109E-01
      0.638  0.9360E-01  0.5429E+00  0.2652E+00
      0.724  0.2147E-16  0.3218E-01  0.1404E-01
      0.810  0.0000E+00  0.0000E+00  0.0000E+00
      0.896  0.3228E-03  0.1163E-01  0.6226E-02
      0.982  0.2595E-01  0.3357E+00  0.2009E+00
      1.068  0.1774E-07  0.4555E-07  0.3919E-07
      1.155  0.5847E-01  0.3263E+00  0.2375E+00
      1.241  0.1133E-13  0.1693E+00  0.1224E+00
      1.327  0.0000E+00  0.0000E+00  0.0000E+00
      1.413  0.9512E-20  0.2611E-05  0.2136E-05
      1.499  0.1131E-14  0.2139E+00  0.1748E+00
      1.585  0.3022E-27  0.4019E-13  0.4133E-13
      1.672  0.9039E-15  0.1658E+00  0.1782E+00
      1.758  0.0000E+00  0.0000E+00  0.0000E+00
      1.844  0.0000E+00  0.0000E+00  0.0000E+00
      1.930  0.1651E-15  0.6007E-01  0.8542E-01
      2.016  0.3509E-16  0.5406E-02  0.9849E-02
      2.102  0.4096E-15  0.6311E-01  0.1150E+00
      2.189  0.0000E+00  0.0000E+00  0.0000E+00
      2.275  0.4119E-14  0.8591E-02  0.2583E-01
      2.361  0.0000E+00  0.0000E+00  0.0000E+00
      2.447  0.0000E+00  0.0000E+00  0.0000E+00
      2.533  0.0000E+00  0.0000E+00  0.0000E+00
      2.620  0.0000E+00  0.0000E+00  0.0000E+00
      2.706  0.0000E+00  0.0000E+00  0.0000E+00
      2.792  0.0000E+00  0.0000E+00  0.0000E+00
      2.878  0.3577E-03  0.6483E-17  0.9855E-17
      2.964  0.3249E-01  0.5889E-15  0.8952E-15
      3.050  0.0000E+00  0.0000E+00  0.0000E+00
      3.137  0.0000E+00  0.0000E+00  0.0000E+00
      3.223  0.0000E+00  0.0000E+00  0.0000E+00
      3.309  0.0000E+00  0.0000E+00  0.0000E+00
      3.395  0.0000E+00  0.0000E+00  0.0000E+00
      3.481  0.0000E+00  0.0000E+00  0.0000E+00
      3.567  0.0000E+00  0.0000E+00  0.0000E+00
      3.654  0.0000E+00  0.0000E+00  0.0000E+00
      3.740  0.0000E+00  0.0000E+00  0.0000E+00
      3.826  0.0000E+00  0.0000E+00  0.0000E+00
      3.912  0.2972E-12  0.3753E-13  0.1208E-13
      3.998  0.1069E+00  0.1355E-01  0.4317E-02
      4.084  0.3753E+00  0.5932E-01  0.9213E-02
      4.171  0.0000E+00  0.0000E+00  0.0000E+00
      4.257  0.0000E+00  0.0000E+00  0.0000E+00
      4.343  0.0000E+00  0.0000E+00  0.0000E+00
      4.429  0.0000E+00  0.0000E+00  0.0000E+00
      4.515  0.0000E+00  0.0000E+00  0.0000E+00
      4.601  0.0000E+00  0.0000E+00  0.0000E+00
      4.688  0.1223E+00  0.5244E-02  0.9816E-02
      4.774  0.1574E-13  0.3070E-01  0.1187E-01
      4.860  0.3493E+00  0.5674E-01  0.1952E-01
      4.946  0.4618E+00  0.1180E+00  0.4810E-01
      5.032  0.9182E+00  0.2702E+00  0.1210E+00
      5.118  0.0000E+00  0.0000E+00  0.0000E+00
      5.205  0.1614E+00  0.6576E-01  0.3233E-01
      5.291  0.1822E-01  0.1070E-01  0.5757E-02
      5.377  0.0000E+00  0.0000E+00  0.0000E+00
      5.463  0.0000E+00  0.0000E+00  0.0000E+00
      5.549  0.0000E+00  0.0000E+00  0.0000E+00
      5.635  0.0000E+00  0.0000E+00  0.0000E+00
      5.722  0.2721E-06  0.1223E-07  0.1923E-07
      5.808  0.6127E+00  0.2753E-01  0.4328E-01
      5.894  0.8818E+00  0.2942E+00  0.1390E+00
      5.980  0.5642E-11  0.1021E+00  0.5191E-01
      6.066  0.0000E+00  0.0000E+00  0.0000E+00
      6.152  0.1025E-07  0.2871E-07  0.2837E-08
      6.239  0.1170E+00  0.3278E+00  0.3239E-01
      6.325  0.8898E-03  0.2912E+00  0.7140E-01
      6.411  0.0000E+00  0.0000E+00  0.0000E+00
      6.497  0.0000E+00  0.0000E+00  0.0000E+00
      6.583  0.0000E+00  0.0000E+00  0.0000E+00
      6.670  0.0000E+00  0.0000E+00  0.0000E+00
      6.756  0.6397E-03  0.6720E-01  0.3226E-01
      6.842  0.5724E-01  0.2307E+00  0.4085E-01
      6.928  0.4216E-01  0.1045E+00  0.1134E-01
      7.014  0.0000E+00  0.0000E+00  0.0000E+00
      7.100  0.3664E-01  0.2680E+00  0.7753E-01
      7.187  0.1840E-13  0.3453E+00  0.9803E-02
      7.273  0.7002E-02  0.1281E-02  0.9142E-03
      7.359  0.1334E+00  0.4218E+00  0.5036E-01
      7.445  0.2089E-03  0.5205E+00  0.1082E+00
      7.531  0.0000E+00  0.0000E+00  0.0000E+00
      7.617  0.9065E-07  0.3127E-05  0.5567E-06
      7.704  0.4261E-02  0.1472E+00  0.2618E-01
      7.790  0.9051E-15  0.2806E+00  0.1645E-01
      7.876  0.1121E-02  0.6744E+00  0.1467E+00
      7.962  0.1228E+00  0.2591E+00  0.4254E-01
      8.048  0.0000E+00  0.0000E+00  0.0000E+00
      8.134  0.8842E-14  0.3770E+00  0.8222E-01
      8.221  0.0000E+00  0.0000E+00  0.0000E+00
      8.307  0.3655E-14  0.4409E+00  0.5540E-01
      8.393  0.2384E-01  0.3877E-01  0.1092E-01
      8.479  0.1502E-02  0.2757E-02  0.1036E-02
      8.565  0.8800E-01  0.1616E+00  0.6068E-01
      8.651  0.0000E+00  0.0000E+00  0.0000E+00
      8.738  0.5324E-01  0.2033E+00  0.7657E-01
      8.824  0.2472E-15  0.1226E-01  0.2247E-02
      8.910  0.3288E-14  0.1631E+00  0.2988E-01
      8.996  0.4674E-16  0.1194E-03  0.1568E-04
      9.082  0.2132E-05  0.2009E+00  0.2637E-01
      9.168  0.1540E+00  0.4250E+00  0.1612E+00
      9.255  0.4906E-17  0.7003E-16  0.6454E-15
      9.341  0.3157E-03  0.4505E-02  0.4152E-01
      9.427  0.5288E-03  0.2130E+00  0.7894E-01
      9.513  0.4783E-01  0.2871E-02  0.2219E-01
      9.599  0.4083E-02  0.4525E+00  0.6810E-01
      9.685  0.6775E-03  0.3676E+00  0.4880E-01
      9.772  0.0000E+00  0.0000E+00  0.0000E+00
      9.858  0.5649E-16  0.5753E-02  0.9404E-03
      9.944  0.5983E-14  0.3838E+00  0.1637E+00
     10.030  0.2517E-02  0.1521E-01  0.9000E-02
     10.116  0.2932E-01  0.2262E+00  0.1165E+00
     10.202  0.7232E-01  0.3206E+00  0.9973E-01
     10.289  0.3597E-17  0.9904E-17  0.1188E-16
     10.375  0.3240E-01  0.8920E-01  0.1070E+00
     10.461  0.3480E-12  0.1763E-12  0.1137E-13
     10.547  0.1026E+00  0.5196E-01  0.3352E-02
     10.633  0.8495E-10  0.8126E-02  0.2560E-01
     10.720  0.1076E-03  0.1119E+00  0.2795E+00
     10.806  0.4968E-01  0.3826E-03  0.8587E-04
     10.892  0.1974E-09  0.1600E-08  0.6047E-09
     10.978  0.4901E-01  0.1939E+00  0.7510E-01
     11.064  0.1131E-11  0.6719E-01  0.1037E+00
     11.150  0.8784E-03  0.1218E+00  0.5839E-01
     11.237  0.3457E-01  0.2231E+00  0.1326E+00
     11.323  0.1692E+00  0.5019E+00  0.5559E-01
     11.409  0.0000E+00  0.0000E+00  0.0000E+00
     11.495  0.0000E+00  0.0000E+00  0.0000E+00
     11.581  0.1231E-09  0.6046E-09  0.1697E-01
     11.667  0.0000E+00  0.0000E+00  0.0000E+00
     11.754  0.2252E-02  0.1524E+00  0.3635E-01
     11.840  0.2488E-06  0.2111E-06  0.5721E-01
     11.926  0.2829E+00  0.2364E+00  0.6841E-01
     12.012  0.2188E-09  0.7397E-01  0.1633E+00
     12.098  0.5927E-05  0.3373E-05  0.2664E-05
     12.184  0.1474E+00  0.8388E-01  0.6625E-01
     12.271  0.0000E+00  0.0000E+00  0.0000E+00
     12.357  0.0000E+00  0.0000E+00  0.0000E+00
     12.443  0.2082E-04  0.3184E+00  0.1240E+00
     12.529  0.8056E-01  0.2074E+00  0.1471E+00
     12.615  0.7514E-04  0.2447E+00  0.9677E-01
     12.701  0.4857E-03  0.8017E-01  0.1061E+00
     12.788  0.0000E+00  0.0000E+00  0.0000E+00
     12.874  0.3365E-10  0.1783E-01  0.7198E-02
     12.960  0.3445E-09  0.1825E+00  0.7370E-01
     13.046  0.3144E-10  0.3145E-07  0.1651E-07
     13.132  0.0000E+00  0.0000E+00  0.0000E+00
     13.218  0.0000E+00  0.0000E+00  0.0000E+00
     13.305  0.1804E-07  0.1930E+00  0.4904E-01
     13.391  0.1266E-04  0.7830E-02  0.2528E-02
     13.477  0.4511E-03  0.2756E+00  0.8902E-01
     13.563  0.7074E-02  0.9326E-02  0.8022E-01
     13.649  0.3967E-01  0.3911E+00  0.1023E+00
     13.735  0.1567E-09  0.6045E-03  0.1259E-02
     13.822  0.2275E-08  0.8778E-02  0.1828E-01
     13.908  0.0000E+00  0.0000E+00  0.0000E+00
     13.994  0.0000E+00  0.0000E+00  0.0000E+00
     14.080  0.1021E-01  0.3352E-01  0.1102E-02
     14.166  0.0000E+00  0.0000E+00  0.0000E+00
     14.253  0.0000E+00  0.0000E+00  0.0000E+00
     14.339  0.3265E-01  0.9786E-01  0.3291E-02
     14.425  0.0000E+00  0.0000E+00  0.0000E+00
     14.511  0.0000E+00  0.0000E+00  0.0000E+00
     14.597  0.0000E+00  0.0000E+00  0.0000E+00
     14.683  0.0000E+00  0.0000E+00  0.0000E+00
     14.770  0.0000E+00  0.0000E+00  0.0000E+00
     14.856  0.0000E+00  0.0000E+00  0.0000E+00
     14.942  0.0000E+00  0.0000E+00  0.0000E+00
     15.028  0.0000E+00  0.0000E+00  0.0000E+00
     15.114  0.0000E+00  0.0000E+00  0.0000E+00
     15.200  0.0000E+00  0.0000E+00  0.0000E+00
     15.287  0.0000E+00  0.0000E+00  0.0000E+00
     15.373  0.0000E+00  0.0000E+00  0.0000E+00
     15.459  0.0000E+00  0.0000E+00  0.0000E+00
     15.545  0.0000E+00  0.0000E+00  0.0000E+00
     15.631  0.0000E+00  0.0000E+00  0.0000E+00
     15.717  0.0000E+00  0.0000E+00  0.0000E+00
     15.71739702    -10.13369226  301      2.37177218      1.00000000
    -10.134  0.0000E+00  0.0000E+00  0.0000E+00
    -10.048  0.0000E+00  0.0000E+00  0.0000E+00
     -9.961  0.0000E+00  0.0000E+00  0.0000E+00
     -9.875  0.0000E+00  0.0000E+00  0.0000E+00
     -9.789  0.0000E+00  0.0000E+00  0.0000E+00
     -9.703  0.0000E+00  0.0000E+00  0.0000E+00
     -9.617  0.0000E+00  0.0000E+00  0.0000E+00
     -9.531  0.0000E+00  0.0000E+00  0.0000E+00
     -9.444  0.0000E+00  0.0000E+00  0.0000E+00
     -9.358  0.0000E+00  0.0000E+00  0.0000E+00
     -9.272  0.0000E+00  0.0000E+00  0.0000E+00
     -9.186  0.0000E+00  0.0000E+00  0.0000E+00
     -9.100  0.0000E+00  0.0000E+00  0.0000E+00
     -9.013  0.2712E-15  0.3810E-27  0.3924E-27
     -8.927  0.6106E-01  0.8579E-13  0.8835E-13
     -8.841  0.4731E+00  0.1583E-03  0.1133E-05
     -8.755  0.3712E+00  0.1629E-03  0.2124E-06
     -8.669  0.7490E+00  0.3770E-03  0.4705E-05
     -8.583  0.2005E+01  0.9432E-03  0.1611E-04
     -8.496  0.4372E+01  0.1027E-02  0.4587E-04
     -8.410  0.3848E+01  0.2981E-03  0.1418E-04
     -8.324  0.8572E+00  0.2290E-08  0.8567E-06
     -8.238  0.0000E+00  0.0000E+00  0.0000E+00
     -8.152  0.0000E+00  0.0000E+00  0.0000E+00
     -8.066  0.0000E+00  0.0000E+00  0.0000E+00
     -7.979  0.0000E+00  0.0000E+00  0.0000E+00
     -7.893  0.0000E+00  0.0000E+00  0.0000E+00
     -7.807  0.0000E+00  0.0000E+00  0.0000E+00
     -7.721  0.0000E+00  0.0000E+00  0.0000E+00
     -7.635  0.0000E+00  0.0000E+00  0.0000E+00
     -7.549  0.0000E+00  0.0000E+00  0.0000E+00
     -7.462  0.0000E+00  0.0000E+00  0.0000E+00
     -7.376  0.0000E+00  0.0000E+00  0.0000E+00
     -7.290  0.0000E+00  0.0000E+00  0.0000E+00
     -7.204  0.0000E+00  0.0000E+00  0.0000E+00
     -7.118  0.0000E+00  0.0000E+00  0.0000E+00
     -7.032  0.0000E+00  0.0000E+00  0.0000E+00
     -6.945  0.0000E+00  0.0000E+00  0.0000E+00
     -6.859  0.0000E+00  0.0000E+00  0.0000E+00
     -6.773  0.0000E+00  0.0000E+00  0.0000E+00
     -6.687  0.0000E+00  0.0000E+00  0.0000E+00
     -6.601  0.0000E+00  0.0000E+00  0.0000E+00
     -6.515  0.0000E+00  0.0000E+00  0.0000E+00
     -6.428  0.0000E+00  0.0000E+00  0.0000E+00
     -6.342  0.0000E+00  0.0000E+00  0.0000E+00
     -6.256  0.0000E+00  0.0000E+00  0.0000E+00
     -6.170  0.0000E+00  0.0000E+00  0.0000E+00
     -6.084  0.0000E+00  0.0000E+00  0.0000E+00
     -5.998  0.0000E+00  0.0000E+00  0.0000E+00
     -5.911  0.0000E+00  0.0000E+00  0.0000E+00
     -5.825  0.1862E-13  0.6156E-02  0.2028E-03
     -5.739  0.9210E-02  0.4072E+00  0.2116E-01
     -5.653  0.3097E-02  0.3019E+00  0.2408E-01
     -5.567  0.3219E-01  0.7556E-01  0.1648E-01
     -5.480  0.7191E-01  0.3478E-01  0.1885E-01
     -5.394  0.7793E-02  0.1463E-02  0.2335E-03
     -5.308  0.2562E-03  0.4117E-04  0.3311E-05
     -5.222  0.3013E+00  0.4448E-01  0.3783E-02
     -5.136  0.3309E+00  0.1635E-01  0.3297E-02
     -5.050  0.3696E+00  0.7486E-02  0.1647E-02
     -4.963  0.1286E+00  0.7864E-04  0.4229E-03
     -4.877  0.0000E+00  0.0000E+00  0.0000E+00
     -4.791  0.0000E+00  0.0000E+00  0.0000E+00
     -4.705  0.0000E+00  0.0000E+00  0.0000E+00
     -4.619  0.0000E+00  0.0000E+00  0.0000E+00
     -4.533  0.0000E+00  0.0000E+00  0.0000E+00
     -4.446  0.0000E+00  0.0000E+00  0.0000E+00
     -4.360  0.0000E+00  0.0000E+00  0.0000E+00
     -4.274  0.0000E+00  0.0000E+00  0.0000E+00
     -4.188  0.0000E+00  0.0000E+00  0.0000E+00
     -4.102  0.0000E+00  0.0000E+00  0.0000E+00
     -4.016  0.0000E+00  0.0000E+00  0.0000E+00
     -3.929  0.0000E+00  0.0000E+00  0.0000E+00
     -3.843  0.0000E+00  0.0000E+00  0.0000E+00
     -3.757  0.0000E+00  0.0000E+00  0.0000E+00
     -3.671  0.0000E+00  0.0000E+00  0.0000E+00
     -3.585  0.0000E+00  0.0000E+00  0.0000E+00
     -3.499  0.0000E+00  0.0000E+00  0.0000E+00
     -3.412  0.0000E+00  0.0000E+00  0.0000E+00
     -3.326  0.0000E+00  0.0000E+00  0.0000E+00
     -3.240  0.0000E+00  0.0000E+00  0.0000E+00
     -3.154  0.0000E+00  0.0000E+00  0.0000E+00
     -3.068  0.0000E+00  0.0000E+00  0.0000E+00
     -2.982  0.0000E+00  0.0000E+00  0.0000E+00
     -2.895  0.0000E+00  0.0000E+00  0.0000E+00
     -2.809  0.0000E+00  0.0000E+00  0.0000E+00
     -2.723  0.0000E+00  0.0000E+00  0.0000E+00
     -2.637  0.0000E+00  0.0000E+00  0.0000E+00
     -2.551  0.0000E+00  0.0000E+00  0.0000E+00
     -2.465  0.0000E+00  0.0000E+00  0.0000E+00