    2    2    1    1
  0.3405476E+02  0.4583961E-09  0.4583961E-09  0.4583961E-09  0.5000000E-15
  1.000000000000000E-004
  CAR 
 Name                                    
     18     32     16
 
  0.0000000E+00  0.0000000E+00  0.0000000E+00  0.4629630E-02
    1       -8.958643   1.000000
    2       -5.830269   1.000000
    3       -5.830269   1.000000
    4       -5.830269   1.000000
    5       -5.552486   1.000000
    6       -5.552486   1.000000
    7        2.260703   1.000000
    8        2.260703   1.000000
    9        2.260703   1.000000
   10        2.894245   0.000000
   11        6.766274   0.000000
   12        6.766274   0.000000
   13        6.766274   0.000000
   14        9.508640   0.000000
   15       11.575572   0.000000
   16       11.575573   0.000000
 
  0.1666667E+00  0.0000000E+00  0.0000000E+00  0.3703704E-01
    1       -8.853337   1.000000
    2       -5.810451   1.000000
    3       -5.810451   1.000000
    4       -5.751818   1.000000
    5       -5.553843   1.000000
    6       -5.553843   1.000000
    7        0.476580   1.000000
    8        2.026307   1.000000
    9        2.026307   1.000000
   10        4.014582   0.000000
   11        6.868363   0.000000
   12        7.108615   0.000000
   13        7.108615   0.000000
   14       10.509532   0.000000
   15       10.641961   0.000000
   16       10.641961   0.000000
 
  0.3333333E+00  0.0000000E+00  0.0000000E+00  0.3703704E-01
    1       -8.639222   1.000000
    2       -5.776358   1.000000
    3       -5.776358   1.000000
    4       -5.549703   1.000000
    5       -5.549703   1.000000
    6       -5.478808   1.000000
    7       -1.382201   1.000000
    8        1.636124   1.000000
    9        1.636124   1.000000
   10        4.072333   0.000000
   11        7.391447   0.000000
   12        7.391447   0.000000
   13        8.386626   0.000000
   14       10.131086   0.000000
   15       11.051923   0.000000
   16       11.051923   0.000000
 
  0.5000000E+00  0.0000000E+00  0.0000000E+00  0.1851852E-01
    1       -8.532175   1.000000
    2       -5.763135   1.000000
    3       -5.763135   1.000000
    4       -5.543087   1.000000
    5       -5.543087   1.000000
    6       -5.223379   1.000000
    7       -2.243683   1.000000
    8        1.467110   1.000000
    9        1.467110   1.000000
   10        3.960772   0.000000
   11        7.352785   0.000000
   12        7.352785   0.000000
   13        9.144443   0.000000
   14       10.739699   0.000000
   15       12.480181   0.000000
   16       12.480181   0.000000
 
  0.1666667E+00  0.1666667E+00  0.0000000E+00  0.2777778E-01
    1       -8.818483   1.000000
    2       -5.790408   1.000000
    3       -5.790408   1.000000
    4       -5.755202   1.000000
    5       -5.562131   1.000000
    6       -5.544345   1.000000
    7        0.474222   1.000000
    8        1.638462   1.000000
    9        1.638462   1.000000
   10        4.676373   0.000000
   11        5.840217   0.000000
   12        7.726361   0.000000
   13        7.726361   0.000000
   14        9.308321   0.000000
   15       11.286140   0.000000
   16       11.814907   0.000000
 
  0.3333333E+00  0.1666667E+00  0.0000000E+00  0.1111111E+00
    1       -8.641240   1.000000
    2       -5.764427   1.000000
    3       -5.751697   1.000000
    4       -5.615209   1.000000
    5       -5.538207   1.000000
    6       -5.497253   1.000000
    7       -0.917414   1.000000
    8        1.103724   1.000000
    9        1.221403   1.000000
   10        5.037908   0.000000
   11        6.189433   0.000000
   12        7.857383   0.000000
   13        8.293728   0.000000
   14       10.039966   0.000000
   15       11.872965   0.000000
   16       11.946061   0.000000
 
  0.5000000E+00  0.1666667E+00  0.0000000E+00  0.1111111E+00
    1       -8.500138   1.000000
    2       -5.748656   1.000000
    3       -5.735160   1.000000
    4       -5.570911   1.000000
    5       -5.539961   1.000000
    6       -5.202021   1.000000
    7       -2.025385   1.000000
    8        0.567588   1.000000
    9        1.138216   1.000000
   10        4.941010   0.000000
   11        6.845168   0.000000
   12        8.108700   0.000000
   13        8.723000   0.000000
   14       10.931778   0.000000
   15       12.126127   0.000000
   16       12.574908   0.000000
 
 -0.3333333E+00  0.1666667E+00  0.0000000E+00  0.1111111E+00
    1       -8.535037   1.000000
    2       -5.750007   1.000000
    3       -5.749639   1.000000
    4       -5.556563   1.000000
    5       -5.556226   1.000000
    6       -5.287663   1.000000
    7       -1.754270   1.000000
    8        0.429640   1.000000
    9        1.442508   1.000000
   10        4.998080   0.000000
   11        7.086975   0.000000
   12        7.803922   0.000000
   13        8.494120   0.000000
   14       10.644184   0.000000
   15       11.293483   0.000000
   16       12.476145   0.000000
 
 -0.1666667E+00  0.1666667E+00  0.0000000E+00  0.5555556E-01
    1       -8.711722   1.000000
    2       -5.787702   1.000000
    3       -5.772858   1.000000
    4       -5.626074   1.000000
    5       -5.563132   1.000000
    6       -5.532844   1.000000
    7       -0.507065   1.000000
    8        0.973209   1.000000
    9        1.903198   1.000000
   10        4.840382   0.000000
   11        6.839902   0.000000
   12        7.339441   0.000000
   13        7.646332   0.000000
   14        9.885656   0.000000
   15       11.119234   0.000000
   16       11.874626   0.000000
 
  0.3333333E+00  0.3333333E+00  0.0000000E+00  0.2777778E-01
    1       -8.537009   1.000000
    2       -5.703310   1.000000
    3       -5.703310   1.000000
    4       -5.657483   1.000000
    5       -5.528061   1.000000
    6       -5.390230   1.000000
    7       -1.264982   1.000000
    8        0.726822   1.000000
    9        0.726822   1.000000
   10        4.869700   0.000000
   11        5.294187   0.000000
   12        9.473865   0.000000
   13        9.683240   0.000000
   14        9.683240   0.000000
   15       12.477525   0.000000
   16       14.084562   0.000000
 
  0.5000000E+00  0.3333333E+00  0.0000000E+00  0.1111111E+00
    1       -8.433919   1.000000
    2       -5.703752   1.000000
    3       -5.680527   1.000000
    4       -5.625380   1.000000
    5       -5.529249   1.000000
    6       -5.140909   1.000000
    7       -1.901118   1.000000
    8        0.050291   1.000000
    9        0.591051   1.000000
   10        4.962025   0.000000
   11        5.861616   0.000000
   12        9.126870   0.000000
   13        9.873193   0.000000
   14       11.233848   0.000000
   15       12.883302   0.000000
   16       13.654115   0.000000
 
 -0.3333333E+00  0.3333333E+00  0.0000000E+00  0.5555556E-01
    1       -8.434073   1.000000
    2       -5.723945   1.000000
    3       -5.701114   1.000000
    4       -5.582868   1.000000
    5       -5.547822   1.000000
    6       -5.075666   1.000000
    7       -1.943544   1.000000
    8       -0.414034   1.000000
    9        0.906816   1.000000
   10        5.194658   0.000000
   11        7.284346   0.000000
   12        9.019036   0.000000
   13        9.135557   0.000000
   14        9.620061   0.000000
   15       11.176357   0.000000
   16       14.311860   0.000000
 
  0.5000000E+00  0.5000000E+00  0.0000000E+00  0.1388889E-01
    1       -8.399785   1.000000
    2       -5.670131   1.000000
    3       -5.655466   1.000000
    4       -5.655466   1.000000
    5       -5.519883   1.000000
    6       -5.095381   1.000000
    7       -2.108379   1.000000
    8        0.352966   1.000000
    9        0.352966   1.000000
   10        4.708172   0.000000
   11        4.828287   0.000000
   12       10.948273   0.000000
   13       11.298929   0.000000
   14       11.298930   0.000000
   15       13.036232   0.000000
   16       13.746218   0.000000
 
  0.5000000E+00  0.3333333E+00  0.1666667E+00  0.1111111E+00
    1       -8.502026   1.000000
    2       -5.728824   1.000000
    3       -5.721422   1.000000
    4       -5.599170   1.000000
    5       -5.539376   1.000000
    6       -5.265899   1.000000
    7       -1.581439   1.000000
    8        0.136475   1.000000
    9        0.909347   1.000000
   10        5.756396   0.000000
   11        6.276129   0.000000
   12        7.436634   0.000000
   13        9.577958   0.000000
   14       10.346664   0.000000
   15       12.432515   0.000000
   16       13.612326   0.000000
 
 -0.3333333E+00  0.3333333E+00  0.1666667E+00  0.1111111E+00
    1       -8.434072   1.000000
    2       -5.720962   1.000000
    3       -5.705524   1.000000
    4       -5.579472   1.000000
    5       -5.549987   1.000000
    6       -5.074631   1.000000
    7       -1.982056   1.000000
    8       -0.183140   1.000000
    9        0.619846   1.000000
   10        5.886430   0.000000
   11        6.758521   0.000000
   12        7.909971   0.000000
   13        9.421012   0.000000
   14       10.123447   0.000000
   15       12.623100   0.000000
   16       13.404353   0.000000
 
 -0.3333333E+00  0.5000000E+00  0.1666667E+00  0.5555556E-01
    1       -8.400960   1.000000
    2       -5.692749   1.000000
    3       -5.688838   1.000000
    4       -5.604726   1.000000
    5       -5.539380   1.000000
    6       -5.028378   1.000000
    7       -2.023334   1.000000
    8       -0.002120   1.000000
    9        0.081352   1.000000
   10        5.893579   0.000000
   11        5.910825   0.000000
   12        8.834213   0.000000
   13        9.110094   0.000000
   14       11.747068   0.000000
   15       13.278231   0.000000
   16       13.499280   0.000000
 
  0.0000000E+00  0.0000000E+00  0.0000000E+00  0.0000000E+00
    1       -8.958643   1.000000
    2       -5.830269   1.000000
    3       -5.830269   1.000000
    4       -5.830269   1.000000
    5       -5.552486   1.000000
    6       -5.552486   1.000000
    7        2.260703   1.000000
    8        2.260703   1.000000
    9        2.260703   1.000000
   10        2.894245   0.000000
   11        6.766274   0.000000
   12        6.766274   0.000000
   13        6.766274   0.000000
   14        9.508640   0.000000
   15       11.575572   0.000000
   16       11.575603   0.000000
 
  0.3125000E-01  0.0000000E+00  0.3125000E-01  0.0000000E+00
    1       -8.953309   1.000000
    2       -5.828772   1.000000
    3       -5.828771   1.000000
    4       -5.827753   1.000000
    5       -5.553019   1.000000
    6       -5.552171   1.000000
    7        2.062665   1.000000
    8        2.232903   1.000000
    9        2.232903   1.000000
   10        3.096032   0.000000
   11        6.710955   0.000000
   12        6.805891   0.000000
   13        6.805891   0.000000
   14        9.590794   0.000000
   15       11.277272   0.000000
   16       11.584074   0.000000
 
  0.6250000E-01  0.0000000E+00  0.6250000E-01  0.0000000E+00
    1       -8.937437   1.000000
    2       -5.824337   1.000000
    3       -5.824336   1.000000
    4       -5.820128   1.000000
    5       -5.554568   1.000000
    6       -5.551246   1.000000
    7        1.711516   1.000000
    8        2.152902   1.000000
    9        2.152902   1.000000
   10        3.457000   0.000000
   11        6.563287   0.000000
   12        6.921347   0.000000
   13        6.921347   0.000000
   14        9.814128   0.000000
   15       10.797116   0.000000
   16       11.609543   0.000000
 
  0.9375000E-01  0.0000000E+00  0.9375000E-01  0.0000000E+00
    1       -8.911607   1.000000
    2       -5.817081   1.000000
    3       -5.817081   1.000000
    4       -5.807169   1.000000
    5       -5.556910   1.000000
    6       -5.549741   1.000000
    7        1.337855   1.000000
    8        2.029614   1.000000
    9        2.029614   1.000000
   10        3.841876   0.000000
   11        6.360678   0.000000
   12        7.103801   0.000000
   13        7.103801   0.000000
   14       10.060122   0.000000
   15       10.404459   0.000000
   16       11.651862   0.000000
 
  0.1250000E+00  0.0000000E+00  0.1250000E+00  0.0000000E+00
    1       -8.876763   1.000000
    2       -5.807201   1.000000
    3       -5.807201   1.000000
    4       -5.788623   1.000000
    5       -5.559598   1.000000
    6       -5.547720   1.000000
    7        0.963743   1.000000
    8        1.874603   1.000000
    9        1.874603   1.000000
   10        4.219779   0.000000
   11        6.136011   0.000000
   12        7.341836   0.000000
   13        7.341836   0.000000
   14        9.785141   0.000000
   15       10.652515   0.000000
   16       11.710854   0.000000
 
  0.1562500E+00  0.0000000E+00  0.1562500E+00  0.0000000E+00
    1       -8.834144   1.000000
    2       -5.794952   1.000000
    3       -5.794951   1.000000
    4       -5.764433   1.000000
    5       -5.561778   1.000000
    6       -5.545250   1.000000
    7        0.595283   1.000000
    8        1.699485   1.000000
    9        1.699485   1.000000
   10        4.570009   0.000000
   11        5.911881   0.000000
   12        7.624157   0.000000
   13        7.624157   0.000000
   14        9.415490   0.000000
   15       11.118196   0.000000
   16       11.786226   0.000000
 
  0.1875000E+00  0.0000000E+00  0.1875000E+00  0.0000000E+00
    1       -8.785416   1.000000
    2       -5.780720   1.000000
    3       -5.780720   1.000000
    4       -5.735345   1.000000
    5       -5.561686   1.000000
    6       -5.542436   1.000000
    7        0.235193   1.000000
    8        1.514476   1.000000
    9        1.514476   1.000000
   10        4.866342   0.000000
   11        5.705139   0.000000
   12        7.940994   0.000000
   13        7.940994   0.000000
   14        9.127357   0.000000
   15       11.634678   0.000000
   16       11.877473   0.000000
 
  0.2187500E+00  0.0000000E+00  0.2187500E+00  0.0000000E+00
    1       -8.732455   1.000000
    2       -5.764957   1.000000
    3       -5.764957   1.000000
    4       -5.704180   1.000000
    5       -5.555508   1.000000
    6       -5.539389   1.000000
    7       -0.114491   1.000000
    8        1.327992   1.000000
    9        1.327992   1.000000
   10        5.068719   0.000000
   11        5.537511   0.000000
   12        8.284503   0.000000
   13        8.284503   0.000000
   14        8.956491   0.000000
   15       11.983861   0.000000
   16       12.179616   0.000000
 
  0.2500000E+00  0.0000000E+00  0.2500000E+00  0.0000000E+00
    1       -8.677362   1.000000
    2       -5.748189   1.000000
    3       -5.748188   1.000000
    4       -5.677500   1.000000
    5       -5.536217   1.000000
    6       -5.535943   1.000000
    7       -0.451613   1.000000
    8        1.146766   1.000000
    9        1.146766   1.000000
   10        5.118903   0.000000
   11        5.449544   0.000000
   12        8.648535   0.000000
   13        8.648535   0.000000
   14        8.925978   0.000000
   15       12.104256   0.000000
   16       12.736328   0.000000
 
  0.2812500E+00  0.0000000E+00  0.2812500E+00  0.0000000E+00
    1       -8.622411   1.000000
    2       -5.731006   1.000000
    3       -5.731006   1.000000
    4       -5.662179   1.000000
    5       -5.533037   1.000000
    6       -5.495867   1.000000
    7       -0.773436   1.000000
    8        0.976169   1.000000
    9        0.976169   1.000000
   10        5.039885   0.000000
   11        5.416339   0.000000
   12        9.028162   0.000000
   13        9.028162   0.000000
   14        9.038380   0.000000
   15       12.236917   0.000000
   16       13.283749   0.000000
 
  0.3125000E+00  0.0000000E+00  0.3125000E+00  0.0000000E+00
    1       -8.569769   1.000000
    2       -5.714090   1.000000
    3       -5.714089   1.000000
    4       -5.657348   1.000000
    5       -5.529975   1.000000
    6       -5.436791   1.000000
    7       -1.076173   1.000000
    8        0.820529   1.000000
    9        0.820529   1.000000
   10        4.934083   0.000000
   11        5.355587   0.000000
   12        9.270750   0.000000
   13        9.418937   0.000000
   14        9.418937   0.000000
   15       12.379218   0.000000
   16       13.790821   0.000000
 
  0.3437500E+00  0.0000000E+00  0.3437500E+00  0.0000000E+00
    1       -8.521561   1.000000
    2       -5.698149   1.000000
    3       -5.698149   1.000000
    4       -5.658111   1.000000
    5       -5.527154   1.000000
    6       -5.365588   1.000000
    7       -1.354822   1.000000
    8        0.683320   1.000000
    9        0.683320   1.000000
   10        4.840849   0.000000
   11        5.259160   0.000000
   12        9.585416   0.000000
   13        9.815857   0.000000
   14        9.815857   0.000000
   15       12.527130   0.000000
   16       14.211598   0.000000
 
  0.3750000E+00  0.0000000E+00  0.3750000E+00  0.0000000E+00
    1       -8.479653   1.000000
    2       -5.683871   1.000000
    3       -5.683871   1.000000
    4       -5.661084   1.000000
    5       -5.524680   1.000000
    6       -5.289349   1.000000
    7       -1.602801   1.000000
    8        0.567349   1.000000
    9        0.567349   1.000000
   10        4.769924   0.000000
   11        5.145765   0.000000
   12        9.942841   0.000000
   13       10.211785   0.000000
   14       10.211786   0.000000
   15       12.674599   0.000000
   16       14.479674   0.000000
 
  0.4062500E+00  0.0000000E+00  0.4062500E+00  0.0000000E+00
    1       -8.445528   1.000000
    2       -5.671946   1.000000
    3       -5.671945   1.000000
    4       -5.664521   1.000000
    5       -5.522647   1.000000
    6       -5.215608   1.000000
    7       -1.811774   1.000000
    8        0.474853   1.000000
    9        0.474853   1.000000
   10        4.723986   0.000000
   11        5.032965   0.000000
   12       10.304598   0.000000
   13       10.594241   0.000000
   14       10.594242   0.000000
   15       12.812642   0.000000
   16       14.542348   0.000000
 
  0.4375000E+00  0.0000000E+00  0.4375000E+00  0.0000000E+00
    1       -8.420377   1.000000
    2       -5.667495   1.000000
    3       -5.662966   1.000000
    4       -5.662966   1.000000
    5       -5.521134   1.000000
    6       -5.152989   1.000000
    7       -1.972021   1.000000
    8        0.407554   1.000000
    9        0.407554   1.000000
   10        4.702866   0.000000
   11        4.933657   0.000000
   12       10.628324   0.000000
   13       10.938870   0.000000
   14       10.938870   0.000000
   15       12.928802   0.000000
   16       14.171046   0.000000
 
  0.4687500E+00  0.0000000E+00  0.4687500E+00  0.0000000E+00
    1       -8.404983   1.000000
    2       -5.669456   1.000000
    3       -5.657372   1.000000
    4       -5.657372   1.000000
    5       -5.520200   1.000000
    6       -5.110495   1.000000
    7       -2.073531   1.000000
    8        0.366676   1.000000
    9        0.366676   1.000000
   10        4.702572   0.000000
   11        4.859193   0.000000
   12       10.861541   0.000000
   13       11.198024   0.000000
   14       11.198024   0.000000
   15       13.007924   0.000000
   16       13.863346   0.000000
