 vasp.5.4.1 24Jun15 (build Nov 25 2015 16:01:35) complex                        
  
 executed on         CrayXC-Intel date 2016.09.08  17:45:29
 running on   96 total cores
 distrk:  each k-point on   24 cores,    4 groups
 distr:  one band on NCORES_PER_BAND=   6 cores,    4 groups


--------------------------------------------------------------------------------------------------------


 INCAR:
 POTCAR:    PAW_PBE Cd 06Sep2000                  
 POTCAR:    PAW_PBE Te 08Apr2002                  

 ----------------------------------------------------------------------------- 
|                                                                             |
|           W    W    AA    RRRRR   N    N  II  N    N   GGGG   !!!           |
|           W    W   A  A   R    R  NN   N  II  NN   N  G    G  !!!           |
|           W    W  A    A  R    R  N N  N  II  N N  N  G       !!!           |
|           W WW W  AAAAAA  RRRRR   N  N N  II  N  N N  G  GGG   !            |
|           WW  WW  A    A  R   R   N   NN  II  N   NN  G    G                |
|           W    W  A    A  R    R  N    N  II  N    N   GGGG   !!!           |
|                                                                             |
|      You have enabled k-point parallelism (KPAR>1).                         |
|      This developmental code was originally  written by Paul Kent at ORNL,  |
|      and carefully double checked in Vienna.                                |
|      GW as well as linear response parallelism added by Martijn Marsman     |
|      and Georg Kresse.                                                      |
|      Carefully verify results versus KPAR=1.                                |
|      Report problems to Paul Kent and Vienna.                               |
|                                                                             |
 ----------------------------------------------------------------------------- 

 POTCAR:    PAW_PBE Cd 06Sep2000                  
   VRHFIN =Cd : s2 d10                                                          
   LEXCH  = PE                                                                  
   EATOM  =  1293.1815 eV,   95.0462 Ry                                         
                                                                                
   TITEL  = PAW_PBE Cd 06Sep2000                                                
   LULTRA =        F    use ultrasoft PP ?                                      
   IUNSCR =        1    unscreen: 0-lin 1-nonlin 2-no                           
   RPACOR =    2.000    partial core radius                                     
   POMASS =  112.411; ZVAL   =   12.000    mass and valenz                      
   RCORE  =    2.300    outmost cutoff radius                                   
   RWIGS  =    2.980; RWIGS  =    1.577    wigner-seitz radius (au A)           
   ENMAX  =  274.336; ENMIN  =  205.752 eV                                      
   RCLOC  =    2.054    cutoff for local pot                                    
   LCOR   =        T    correct aug charges                                     
   LPAW   =        T    paw PP                                                  
   EAUG   =  456.106                                                            
   DEXC   =    0.000                                                            
   RMAX   =    2.358    core radius for proj-oper                               
   RAUG   =    1.300    factor for augmentation sphere                          
   RDEP   =    2.450    radius for radial grids                                 
   RDEPT  =    1.955    core radius for aug-charge                              
                                                                                
   Atomic configuration                                                         
   12 entries                                                                   
     n  l   j            E        occ.                                          
     1  0  0.50    -26519.7817   2.0000                                         
     2  0  0.50     -3936.9612   2.0000                                         
     2  1  1.50     -3532.2230   6.0000                                         
     3  0  0.50      -733.7908   2.0000                                         
     3  1  1.50      -601.0792   6.0000                                         
     3  2  2.50      -393.5307  10.0000                                         
     4  0  0.50      -105.8977   2.0000                                         
     4  1  1.50       -66.9488   6.0000                                         
     4  2  2.50       -11.7331  10.0000                                         
     5  0  0.50        -5.6592   2.0000                                         
     5  1  0.50        -1.3606   0.0000                                         
     4  3  2.50        -1.3606   0.0000                                         
   Description                                                                  
     l       E           TYP  RCUT    TYP  RCUT                                 
     2    -11.7331479     23  2.300                                             
     2    -13.0937305     23  2.300                                             
     0     -5.6591502     23  2.300                                             
     0     -1.5561433     23  2.300                                             
     1     -2.7211652     23  2.300                                             
     1      8.3548275     23  2.300                                             
  local pseudopotential read in
  partial core-charges read in
  partial kinetic energy density read in
  atomic valenz-charges read in
  non local Contribution for L=           2  read in
    real space projection operators read in
  non local Contribution for L=           2  read in
    real space projection operators read in
  non local Contribution for L=           0  read in
    real space projection operators read in
  non local Contribution for L=           0  read in
    real space projection operators read in
  non local Contribution for L=           1  read in
    real space projection operators read in
  non local Contribution for L=           1  read in
    real space projection operators read in
    PAW grid and wavefunctions read in
 
   number of l-projection  operators is LMAX  =           6
   number of lm-projection operators is LMMAX =          18
 
 POTCAR:    PAW_PBE Te 08Apr2002                  
   VRHFIN =Te: s2p4                                                             
   LEXCH  = PE                                                                  
   EATOM  =   223.2721 eV,   16.4100 Ry                                         
                                                                                
   TITEL  = PAW_PBE Te 08Apr2002                                                
   LULTRA =        F    use ultrasoft PP ?                                      
   IUNSCR =        1    unscreen: 0-lin 1-nonlin 2-no                           
   RPACOR =    2.200    partial core radius                                     
   POMASS =  127.600; ZVAL   =    6.000    mass and valenz                      
   RCORE  =    2.300    outmost cutoff radius                                   
   RWIGS  =    2.900; RWIGS  =    1.535    wigner-seitz radius (au A)           
   ENMAX  =  174.982; ENMIN  =  131.236 eV                                      
   ICORE  =        3    local potential                                         
   LCOR   =        T    correct aug charges                                     
   LPAW   =        T    paw PP                                                  
   EAUG   =  368.792                                                            
   DEXC   =    0.000                                                            
   RMAX   =    2.345    core radius for proj-oper                               
   RAUG   =    1.300    factor for augmentation sphere                          
   RDEP   =    2.397    radius for radial grids                                 
   RDEPT  =    2.174    core radius for aug-charge                              
                                                                                
   Atomic configuration                                                         
   13 entries                                                                   
     n  l   j            E        occ.                                          
     1  0  0.50    -31621.2075   2.0000                                         
     2  0  0.50     -4848.7941   2.0000                                         
     2  1  1.50     -4352.1960   6.0000                                         
     3  0  0.50      -964.9612   2.0000                                         
     3  1  1.50      -803.6179   6.0000                                         
     3  2  2.50      -559.8710  10.0000                                         
     4  0  0.50      -164.3522   2.0000                                         
     4  1  1.50      -114.3756   6.0000                                         
     4  2  2.50       -41.6483  10.0000                                         
     5  0  0.50       -15.1072   2.0000                                         
     5  1  0.50        -5.9526   4.0000                                         
     5  2  1.50        -5.4423   0.0000                                         
     4  3  2.50        -5.4423   0.0000                                         
   Description                                                                  
     l       E           TYP  RCUT    TYP  RCUT                                 
     0    -15.1072389     23  2.300                                             
     0    -16.4678215     23  2.300                                             
     1     -5.9526306     23  2.300                                             
     1     -2.4873968     23  2.300                                             
     2     -5.4423304     23  2.300                                             
     3     -1.3605826     23  2.300                                             
  local pseudopotential read in
  partial core-charges read in
  partial kinetic energy density read in
  atomic valenz-charges read in
  non local Contribution for L=           0  read in
    real space projection operators read in
  non local Contribution for L=           0  read in
    real space projection operators read in
  non local Contribution for L=           1  read in
    real space projection operators read in
  non local Contribution for L=           1  read in
    real space projection operators read in
  non local Contribution for L=           2  read in
    real space projection operators read in
    PAW grid and wavefunctions read in
 
   number of l-projection  operators is LMAX  =           5
   number of lm-projection operators is LMMAX =          13
 

 ----------------------------------------------------------------------------- 
|                                                                             |
|  ADVICE TO THIS USER RUNNING 'VASP/VAMP'   (HEAR YOUR MASTER'S VOICE ...):  |
|                                                                             |
|      You enforced a specific xc-type in the INCAR file,                     |
|      a different type was found on the POTCAR file                          |
|          I HOPE YOU KNOW, WHAT YOU ARE  DOING                               |
|                                                                             |
 ----------------------------------------------------------------------------- 

  PAW_PBE Cd 06Sep2000                  :
 energy of atom  1       EATOM=-1293.1815
 kinetic energy error for atom=    0.0063 (will be added to EATOM!!)
  PAW_PBE Te 08Apr2002                  :
 energy of atom  2       EATOM= -223.2721
 kinetic energy error for atom=    0.0007 (will be added to EATOM!!)
 
 
 POSCAR: CdTe (ICSD, 295K, Rabadanov 2001)       
  positions in direct lattice
  velocities in cartesian coordinates
 exchange correlation table for  LEXCH =       14
   RHO(1)=    0.500       N(1)  =     2000
   RHO(2)=  100.500       N(2)  =     4000
 


--------------------------------------------------------------------------------------------------------


 ion  position               nearest neighbor table
   1  0.000  0.000  0.000-   2 2.81   2 2.81   2 2.81   2 2.81
   2  0.250  0.250  0.250-   1 2.81   1 2.81   1 2.81   1 2.81
 
  LATTYP: Found a face centered cubic cell.
 ALAT       =     6.4827000000
  
  Lattice vectors:
  
 A1 = (   3.2413500000,   3.2413500000,   0.0000000000)
 A2 = (   3.2413500000,   0.0000000000,  -3.2413500000)
 A3 = (   0.0000000000,   3.2413500000,  -3.2413500000)


Analysis of symmetry for initial positions (statically):
=====================================================================
 Subroutine PRICEL returns:
 Original cell was already a primitive cell.
 

 Routine SETGRP: Setting up the symmetry group for a 
 face centered cubic supercell.


 Subroutine GETGRP returns: Found 24 space group operations
 (whereof 24 operations were pure point group operations)
 out of a pool of 48 trial point group operations.


The static configuration has the point symmetry T_d .


Analysis of symmetry for dynamics (positions and initial velocities):
=====================================================================
 Subroutine PRICEL returns:
 Original cell was already a primitive cell.
 

 Routine SETGRP: Setting up the symmetry group for a 
 face centered cubic supercell.


 Subroutine GETGRP returns: Found 24 space group operations
 (whereof 24 operations were pure point group operations)
 out of a pool of 48 trial point group operations.


The dynamic configuration has the point symmetry T_d .


 Subroutine INISYM returns: Found 24 space group operations
 (whereof 24 operations are pure point group operations),
 and found     1 'primitive' translations

 
 
 KPOINTS: Automatically generated mesh SCF: 16 ste
  k-points in reciprocal lattice
Space group operators:
 irot       det(A)        alpha          n_x          n_y          n_z        tau_x        tau_y        tau_z
    1     1.000000     0.000000     1.000000     0.000000     0.000000     0.000000     0.000000     0.000000
    2     1.000000   120.000000    -0.577350    -0.577350     0.577350     0.000000     0.000000     0.000000
    3     1.000000   120.000000     0.577350     0.577350    -0.577350     0.000000     0.000000     0.000000
    4    -1.000000    90.000000    -1.000000     0.000000     0.000000     0.000000     0.000000     0.000000
    5    -1.000000   180.000000     0.707107     0.707107     0.000000     0.000000     0.000000     0.000000
    6    -1.000000    90.000000     0.000000     1.000000     0.000000     0.000000     0.000000     0.000000
    7     1.000000   180.000000     1.000000     0.000000     0.000000     0.000000     0.000000     0.000000
    8     1.000000   120.000000     0.577350     0.577350     0.577350     0.000000     0.000000     0.000000
    9     1.000000   120.000000    -0.577350     0.577350     0.577350     0.000000     0.000000     0.000000
   10    -1.000000    90.000000     1.000000     0.000000     0.000000     0.000000     0.000000     0.000000
   11    -1.000000    90.000000     0.000000     0.000000     1.000000     0.000000     0.000000     0.000000
   12    -1.000000   180.000000     0.707107     0.000000    -0.707107     0.000000     0.000000     0.000000
   13     1.000000   120.000000     0.577350    -0.577350    -0.577350     0.000000     0.000000     0.000000
   14     1.000000   120.000000     0.577350    -0.577350     0.577350     0.000000     0.000000     0.000000
   15     1.000000   180.000000     0.000000     0.000000     1.000000     0.000000     0.000000     0.000000
   16    -1.000000    90.000000     0.000000    -1.000000     0.000000     0.000000     0.000000     0.000000
   17    -1.000000   180.000000     0.000000    -0.707107     0.707107     0.000000     0.000000     0.000000
   18    -1.000000    90.000000     0.000000     0.000000    -1.000000     0.000000     0.000000     0.000000
   19     1.000000   120.000000    -0.577350    -0.577350    -0.577350     0.000000     0.000000     0.000000
   20     1.000000   180.000000     0.000000     1.000000     0.000000     0.000000     0.000000     0.000000
   21     1.000000   120.000000    -0.577350     0.577350    -0.577350     0.000000     0.000000     0.000000
   22    -1.000000   180.000000     0.707107    -0.707107     0.000000     0.000000     0.000000     0.000000
   23    -1.000000   180.000000     0.000000     0.707107     0.707107     0.000000     0.000000     0.000000
   24    -1.000000   180.000000     0.707107     0.000000     0.707107     0.000000     0.000000     0.000000


--------------------------------------------------------------------------------------------------------




 Dimension of arrays:
   k-points           NKPTS =     32   k-points in BZ     NKDIM =     32   number of bands    NBANDS=     16
   number of dos      NEDOS =    301   number of ions     NIONS =      2
   non local maximal  LDIM  =      6   non local SUM 2l+1 LMDIM =     18
   total plane-waves  NPLWV =  46656
   max r-space proj   IRMAX =      1   max aug-charges    IRDMAX=  40037
   dimension x,y,z NGX =    36 NGY =   36 NGZ =   36
   dimension x,y,z NGXF=    72 NGYF=   72 NGZF=   72
   support grid    NGXF=    72 NGYF=   72 NGZF=   72
   ions per type =               1   1
 NGX,Y,Z   is equivalent  to a cutoff of  13.06, 13.06, 13.06 a.u.
 NGXF,Y,Z  is equivalent  to a cutoff of  26.11, 26.11, 26.11 a.u.


 I would recommend the setting:
   dimension x,y,z NGX =    33 NGY =   33 NGZ =   33
 SYSTEM =  Name                                    
 POSCAR =  CdTe (ICSD, 295K, Rabadanov 2001)       

 Startparameter for this run:
   NWRITE =      2    write-flag & timer
   PREC   = accura    normal or accurate (medium, high low for compatibility)
   ISTART =      0    job   : 0-new  1-cont  2-samecut
   ICHARG =     11    charge: 1-file 2-atom 10-const
   ISPIN  =      1    spin polarized calculation?
   LNONCOLLINEAR =      F non collinear calculations
   LSORBIT =      F    spin-orbit coupling
   INIWAV =      1    electr: 0-lowe 1-rand  2-diag
   LASPH  =      F    aspherical Exc in radial PAW
   METAGGA=      F    non-selfconsistent MetaGGA calc.

 Electronic Relaxation 1
   ENCUT  =  500.0 eV  36.75 Ry    6.06 a.u.   8.36  8.36  8.36*2*pi/ulx,y,z
   ENINI  =  500.0     initial cutoff
   ENAUG  =  456.1 eV  augmentation charge cutoff
   NELM   =     60;   NELMIN=  2; NELMDL=  0     # of ELM steps 
   EDIFF  = 0.1E-05   stopping-criterion for ELM
   LREAL  =      F    real-space projection
   NLSPLINE    = F    spline interpolate recip. space projectors
   LCOMPAT=      F    compatible to vasp.4.4
   GGA_COMPAT  = T    GGA compatible to vasp.4.4-vasp.4.6
   LMAXPAW     = -100 max onsite density
   LMAXMIX     =    2 max onsite mixed and CHGCAR
   VOSKOWN=      0    Vosko Wilk Nusair interpolation
   ROPT   =    0.00000   0.00000
 Ionic relaxation
   EDIFFG = -.5E-02   stopping-criterion for IOM
   NSW    =      1    number of steps for IOM
   NBLOCK =      1;   KBLOCK =      1    inner block; outer block 
   IBRION =      2    ionic relax: 0-MD 1-quasi-New 2-CG
   NFREE  =      1    steps in history (QN), initial steepest desc. (CG)
   ISIF   =      3    stress and relaxation
   IWAVPR =     11    prediction:  0-non 1-charg 2-wave 3-comb
   ISYM   =      2    0-nonsym 1-usesym 2-fastsym
   LCORR  =      T    Harris-Foulkes like correction to forces

   POTIM  = 0.5000    time-step for ionic-motion
   TEIN   =    0.0    initial temperature
   TEBEG  =    0.0;   TEEND  =   0.0 temperature during run
   SMASS  =  -3.00    Nose mass-parameter (am)
   estimated Nose-frequenzy (Omega)   =  0.10E-29 period in steps =****** mass=  -0.480E-27a.u.
   SCALEE = 1.0000    scale energy and forces
   NPACO  =    256;   APACO  = 16.0  distance and # of slots for P.C.
   PSTRESS=    0.0 pullay stress

  Mass of Ions in am
   POMASS = 112.41127.60
  Ionic Valenz
   ZVAL   =  12.00  6.00
  Atomic Wigner-Seitz radii
   RWIGS  =  -1.00 -1.00
  virtual crystal weights 
   VCA    =   1.00  1.00
   NELECT =      18.0000    total number of electrons
   NUPDOWN=      -1.0000    fix difference up-down

 DOS related values:
   EMIN   =  10.00;   EMAX   =-10.00  energy-range for DOS
   EFERMI =   0.00
   ISMEAR =     0;   SIGMA  =   0.01  broadening in eV -4-tet -1-fermi 0-gaus

 Electronic relaxation 2 (details)
   IALGO  =     38    algorithm
   LDIAG  =      T    sub-space diagonalisation (order eigenvalues)
   LSUBROT=      F    optimize rotation matrix (better conditioning)
   TURBO    =      0    0=normal 1=particle mesh
   IRESTART =      0    0=no restart 2=restart with 2 vectors
   NREBOOT  =      0    no. of reboots
   NMIN     =      0    reboot dimension
   EREF     =   0.00    reference energy to select bands
   IMIX   =      4    mixing-type and parameters
     AMIX     =   0.40;   BMIX     =  1.00
     AMIX_MAG =   1.60;   BMIX_MAG =  1.00
     AMIN     =   0.01
     WC   =   100.;   INIMIX=   1;  MIXPRE=   1;  MAXMIX= -45

 Intra band minimization:
   WEIMIN = 0.0010     energy-eigenvalue tresh-hold
   EBREAK =  0.16E-07  absolut break condition
   DEPER  =   0.30     relativ break condition  

   TIME   =   0.40     timestep for ELM

  volume/ion in A,a.u.               =      34.05       229.81
  Fermi-wavevector in a.u.,A,eV,Ry     =   1.050581  1.985311 15.017042  1.103721
  Thomas-Fermi vector in A             =   2.185590
 
 Write flags
   LWAVE  =      T    write WAVECAR
   LCHARG =      T    write CHGCAR
   LVTOT  =      F    write LOCPOT, total local potential
   LVHAR  =      F    write LOCPOT, Hartree potential only
   LELF   =      F    write electronic localiz. function (ELF)
   LORBIT =     10    0 simple, 1 ext, 2 COOP (PROOUT)


 Dipole corrections
   LMONO  =      F    monopole corrections only (constant potential shift)
   LDIPOL =      F    correct potential (dipole corrections)
   IDIPOL =      0    1-x, 2-y, 3-z, 4-all directions 
   EPSILON=  1.0000000 bulk dielectric constant

 Core level calculations are selected ICORELEVEL =  1
 Exchange correlation treatment:
   GGA     =    PS    GGA type
   LEXCH   =    14    internal setting for exchange type
   VOSKOWN=      0    Vosko Wilk Nusair interpolation
   LHFCALC =     F    Hartree Fock is set to
   LHFONE  =     F    Hartree Fock one center treatment
   AEXX    =    0.0000 exact exchange contribution

 Linear response parameters
   LEPSILON=     F    determine dielectric tensor
   LRPA    =     F    only Hartree local field effects (RPA)
   LNABLA  =     F    use nabla operator in PAW spheres
   LVEL    =     F    velocity operator in full k-point grid
   LINTERFAST=   F  fast interpolation
   KINTER  =     0    interpolate to denser k-point grid
   CSHIFT  =0.1000    complex shift for real part using Kramers Kronig
   OMEGAMAX=  -1.0    maximum frequency
   DEG_THRESHOLD= 0.2000000E-02 threshold for treating states as degnerate
   RTIME   =    0.100 relaxation time in fs

 Orbital magnetization related:
   ORBITALMAG=     F  switch on orbital magnetization
   LCHIMAG   =     F  perturbation theory with respect to B field
   DQ        =  0.001000  dq finite difference perturbation B field



--------------------------------------------------------------------------------------------------------


 conjugate gradient relaxation of ions
 charge density and potential remain constant during run
 non-spin polarized calculation
 Variant of blocked Davidson
 Davidson routine will perform the subspace rotation
 perform sub-space diagonalisation
    after iterative eigenvector-optimisation
 no mixing
 using additional bands            7
 reciprocal scheme for non local part
 use partial core corrections
 calculate Harris-corrections to forces 
   (improved forces if not selfconsistent)
 use gradient corrections 
 WARNING: stress and forces are not correct
  (second derivative of E(xc) not defined)
 use of overlap-Matrix (Vanderbilt PP)
 Gauss-broadening in eV      SIGMA  =   0.01


--------------------------------------------------------------------------------------------------------


  energy-cutoff  :      500.00
  volume of cell :       68.11
      direct lattice vectors                 reciprocal lattice vectors
     3.241350000  3.241350000  0.000000000     0.154256714  0.154256714  0.154256714
     3.241350000  0.000000000 -3.241350000     0.154256714 -0.154256714 -0.154256714
     0.000000000  3.241350000 -3.241350000    -0.154256714  0.154256714 -0.154256714

  length of vectors
     4.583961130  4.583961130  4.583961130     0.267180466  0.267180466  0.267180466


 
 k-points in units of 2pi/SCALE and weight: Automatically generated mesh SCF: 16 ste
   0.00000000  0.00000000  0.00000000       0.005
   0.16666667  0.16666667  0.16666667       0.037
   0.33333333  0.33333333  0.33333333       0.037
   0.50000000  0.50000000  0.50000000       0.019
   0.33333333  0.00000000  0.00000000       0.028
   0.50000000  0.16666667  0.16666667       0.111
   0.66666667  0.33333333  0.33333333       0.111
  -0.16666667 -0.50000000 -0.50000000       0.111
   0.00000000 -0.33333333 -0.33333333       0.056
   0.66666667  0.00000000  0.00000000       0.028
   0.83333333  0.16666667  0.16666667       0.111
   0.00000000 -0.66666667 -0.66666667       0.056
   1.00000000  0.00000000  0.00000000       0.014
   0.66666667  0.33333333  0.00000000       0.111
  -0.16666667 -0.50000000 -0.83333333       0.111
   0.00000000 -0.66666667 -1.00000000       0.056
   0.00000000  0.00000000  0.00000000       0.000
   0.00000000  0.06250000  0.00000000       0.000
   0.00000000  0.12500000  0.00000000       0.000
   0.00000000  0.18750000  0.00000000       0.000
   0.00000000  0.25000000  0.00000000       0.000
   0.00000000  0.31250000  0.00000000       0.000
   0.00000000  0.37500000  0.00000000       0.000
   0.00000000  0.43750002  0.00000000       0.000
   0.00000000  0.50000000  0.00000000       0.000
   0.00000000  0.56250000  0.00000000       0.000
   0.00000000  0.62500000  0.00000000       0.000
   0.00000000  0.68750000  0.00000000       0.000
   0.00000000  0.75000000  0.00000000       0.000
   0.00000000  0.81249994  0.00000000       0.000
   0.00000000  0.87500006  0.00000000       0.000
   0.00000000  0.93750000  0.00000000       0.000
 
 k-points in reciprocal lattice and weights: Automatically generated mesh SCF: 16 ste
   0.00000000  0.00000000  0.00000000       0.005
   0.16666667  0.00000000  0.00000000       0.037
   0.33333333  0.00000000  0.00000000       0.037
   0.50000000  0.00000000  0.00000000       0.019
   0.16666667  0.16666667  0.00000000       0.028
   0.33333333  0.16666667  0.00000000       0.111
   0.50000000  0.16666667  0.00000000       0.111
  -0.33333333  0.16666667  0.00000000       0.111
  -0.16666667  0.16666667  0.00000000       0.056
   0.33333333  0.33333333  0.00000000       0.028
   0.50000000  0.33333333  0.00000000       0.111
  -0.33333333  0.33333333  0.00000000       0.056
   0.50000000  0.50000000  0.00000000       0.014
   0.50000000  0.33333333  0.16666667       0.111
  -0.33333333  0.33333333  0.16666667       0.111
  -0.33333333  0.50000000  0.16666667       0.056
   0.00000000  0.00000000  0.00000000       0.000
   0.03125000  0.00000000  0.03125000       0.000
   0.06250000  0.00000000  0.06250000       0.000
   0.09375000  0.00000000  0.09375000       0.000
   0.12500000  0.00000000  0.12500000       0.000
   0.15625000  0.00000000  0.15625000       0.000
   0.18750000  0.00000000  0.18750000       0.000
   0.21875001  0.00000000  0.21875001       0.000
   0.25000000  0.00000000  0.25000000       0.000
   0.28125000  0.00000000  0.28125000       0.000
   0.31250000  0.00000000  0.31250000       0.000
   0.34375000  0.00000000  0.34375000       0.000
   0.37500000  0.00000000  0.37500000       0.000
   0.40624997  0.00000000  0.40624997       0.000
   0.43750003  0.00000000  0.43750003       0.000
   0.46875000  0.00000000  0.46875000       0.000
 
 position of ions in fractional coordinates (direct lattice) 
   0.00000000  0.00000000  0.00000000
   0.25000000  0.25000000  0.25000000
 
 position of ions in cartesian coordinates  (Angst):
   0.00000000  0.00000000  0.00000000
   1.62067500  1.62067500 -1.62067500
 


--------------------------------------------------------------------------------------------------------


 k-point  1 :   0.0000 0.0000 0.0000  plane waves:    1759
 k-point  2 :   0.1667 0.0000 0.0000  plane waves:    1747
 k-point  3 :   0.3333 0.0000 0.0000  plane waves:    1730
 k-point  4 :   0.5000 0.0000 0.0000  plane waves:    1718
 k-point  5 :   0.1667 0.1667 0.0000  plane waves:    1736
 k-point  6 :   0.3333 0.1667 0.0000  plane waves:    1729
 k-point  7 :   0.5000 0.1667 0.0000  plane waves:    1739
 k-point  8 :  -0.3333 0.1667 0.0000  plane waves:    1732
 k-point  9 :  -0.1667 0.1667 0.0000  plane waves:    1735
 k-point 10 :   0.3333 0.3333 0.0000  plane waves:    1728
 k-point 11 :   0.5000 0.3333 0.0000  plane waves:    1723
 k-point 12 :  -0.3333 0.3333 0.0000  plane waves:    1726
 k-point 13 :   0.5000 0.5000 0.0000  plane waves:    1724
 k-point 14 :   0.5000 0.3333 0.1667  plane waves:    1724
 k-point 15 :  -0.3333 0.3333 0.1667  plane waves:    1726
 k-point 16 :  -0.3333 0.5000 0.1667  plane waves:    1722
 k-point 17 :   0.0000 0.0000 0.0000  plane waves:    1759
 k-point 18 :   0.0312 0.0000 0.0312  plane waves:    1755
 k-point 19 :   0.0625 0.0000 0.0625  plane waves:    1747
 k-point 20 :   0.0938 0.0000 0.0938  plane waves:    1744
 k-point 21 :   0.1250 0.0000 0.1250  plane waves:    1740
 k-point 22 :   0.1562 0.0000 0.1562  plane waves:    1736
 k-point 23 :   0.1875 0.0000 0.1875  plane waves:    1748
 k-point 24 :   0.2188 0.0000 0.2188  plane waves:    1736
 k-point 25 :   0.2500 0.0000 0.2500  plane waves:    1716
 k-point 26 :   0.2812 0.0000 0.2812  plane waves:    1724
 k-point 27 :   0.3125 0.0000 0.3125  plane waves:    1720
 k-point 28 :   0.3438 0.0000 0.3438  plane waves:    1728
 k-point 29 :   0.3750 0.0000 0.3750  plane waves:    1728
 k-point 30 :   0.4062 0.0000 0.4062  plane waves:    1728
 k-point 31 :   0.4375 0.0000 0.4375  plane waves:    1720
 k-point 32 :   0.4688 0.0000 0.4688  plane waves:    1732

 maximum and minimum number of plane-waves per node :       301      274

 maximum number of plane-waves:      1759
 maximum index in each direction: 
   IXMAX=    8   IYMAX=    8   IZMAX=    8
   IXMIN=   -8   IYMIN=   -8   IZMIN=   -8

 NGX is ok and might be reduce to  34
 NGY is ok and might be reduce to  34
 NGZ is ok and might be reduce to  34

 parallel 3D FFT for wavefunctions:
    minimum data exchange during FFTs selected (reduces bandwidth)
 parallel 3D FFT for charge:
    minimum data exchange during FFTs selected (reduces bandwidth)


 total amount of memory used by VASP on root node    35369. kBytes
========================================================================

   base      :      30000. kBytes
   nonl-proj :       2737. kBytes
   fftplans  :        768. kBytes
   grid      :       1202. kBytes
   one-center:         15. kBytes
   wavefun   :        647. kBytes
 
     INWAV:  cpu time    0.0000: real time    0.0016
 initial charge density was supplied:
 number of electron      18.0000000 magnetization 
 keeping initial charge density in first step


--------------------------------------------------------------------------------------------------------


 Maximum index for augmentation-charges         1676 (set IRDMAX)


--------------------------------------------------------------------------------------------------------


 First call to EWALD:  gamma=   0.434
 Maximum number of real-space cells 3x 3x 3
 Maximum number of reciprocal cells 3x 3x 3

 FEWALD executed in parallel
    FEWALD:  cpu time    0.0000: real time    0.0013


----------------------------------------- Iteration    1(   1)  ---------------------------------------


    POTLOK:  cpu time    0.0080: real time    0.0088
    SETDIJ:  cpu time    0.0040: real time    0.0032
     EDDAV:  cpu time    0.0480: real time    0.0528
       DOS:  cpu time    0.0040: real time    0.0021
    --------------------------------------------
      LOOP:  cpu time    0.0720: real time    0.0914

 eigenvalue-minimisations  :  1032
 total energy-change (2. order) : 0.9747822E+02  (-0.8222084E+03)
 number of electron      18.0000000 magnetization 
 augmentation part       18.0000000 magnetization 

 Free energy of the ion-electron system (eV)
  ---------------------------------------------------
  alpha Z        PSCENC =        50.17222034
  Ewald energy   TEWEN  =     -1044.83138452
  -Hartree energ DENC   =      -504.99582460
  -exchange      EXHF   =         0.00000000
  -V(xc)+E(xc)   XCENC  =       -20.59894587
  PAW double counting   =      1708.54112970    -1637.28476310
  entropy T*S    EENTRO =        -0.00059585
  eigenvalues    EBANDS =        30.27096869
  atomic energy  EATOM  =      1516.20541573
  Solvation  Ediel_sol  =         0.00000000
  ---------------------------------------------------
  free energy    TOTEN  =        97.47822052 eV

  energy without entropy =       97.47881637  energy(sigma->0) =       97.47851844


--------------------------------------------------------------------------------------------------------




----------------------------------------- Iteration    1(   2)  ---------------------------------------


     EDDAV:  cpu time    0.0520: real time    0.0522
       DOS:  cpu time    0.0000: real time    0.0004
    --------------------------------------------
      LOOP:  cpu time    0.0560: real time    0.0614

 eigenvalue-minimisations  :  1224
 total energy-change (2. order) :-0.9948794E+02  (-0.9497123E+02)
 number of electron      18.0000000 magnetization 
 augmentation part       18.0000000 magnetization 

 Free energy of the ion-electron system (eV)
  ---------------------------------------------------
  alpha Z        PSCENC =        50.17222034
  Ewald energy   TEWEN  =     -1044.83138452
  -Hartree energ DENC   =      -504.99582460
  -exchange      EXHF   =         0.00000000
  -V(xc)+E(xc)   XCENC  =       -20.59894587
  PAW double counting   =      1708.54112970    -1637.28476310
  entropy T*S    EENTRO =        -0.00000000
  eigenvalues    EBANDS =       -69.21756541
  atomic energy  EATOM  =      1516.20541573
  Solvation  Ediel_sol  =         0.00000000
  ---------------------------------------------------
  free energy    TOTEN  =        -2.00971774 eV

  energy without entropy =       -2.00971774  energy(sigma->0) =       -2.00971774


--------------------------------------------------------------------------------------------------------




----------------------------------------- Iteration    1(   3)  ---------------------------------------


     EDDAV:  cpu time    0.0720: real time    0.0696
       DOS:  cpu time    0.0000: real time    0.0015
    --------------------------------------------
      LOOP:  cpu time    0.0720: real time    0.0789

 eigenvalue-minimisations  :  1272
 total energy-change (2. order) :-0.3454948E+01  (-0.3451042E+01)
 number of electron      18.0000000 magnetization 
 augmentation part       18.0000000 magnetization 

 Free energy of the ion-electron system (eV)
  ---------------------------------------------------
  alpha Z        PSCENC =        50.17222034
  Ewald energy   TEWEN  =     -1044.83138452
  -Hartree energ DENC   =      -504.99582460
  -exchange      EXHF   =         0.00000000
  -V(xc)+E(xc)   XCENC  =       -20.59894587
  PAW double counting   =      1708.54112970    -1637.28476310
  entropy T*S    EENTRO =        -0.00000000
  eigenvalues    EBANDS =       -72.67251357
  atomic energy  EATOM  =      1516.20541573
  Solvation  Ediel_sol  =         0.00000000
  ---------------------------------------------------
  free energy    TOTEN  =        -5.46466589 eV

  energy without entropy =       -5.46466589  energy(sigma->0) =       -5.46466589


--------------------------------------------------------------------------------------------------------




----------------------------------------- Iteration    1(   4)  ---------------------------------------


     EDDAV:  cpu time    0.0640: real time    0.0645
       DOS:  cpu time    0.0040: real time    0.0009
    --------------------------------------------
      LOOP:  cpu time    0.0680: real time    0.0748

 eigenvalue-minimisations  :  1512
 total energy-change (2. order) :-0.2853325E-01  (-0.2853194E-01)
 number of electron      18.0000000 magnetization 
 augmentation part       18.0000000 magnetization 

 Free energy of the ion-electron system (eV)
  ---------------------------------------------------
  alpha Z        PSCENC =        50.17222034
  Ewald energy   TEWEN  =     -1044.83138452
  -Hartree energ DENC   =      -504.99582460
  -exchange      EXHF   =         0.00000000
  -V(xc)+E(xc)   XCENC  =       -20.59894587
  PAW double counting   =      1708.54112970    -1637.28476310
  entropy T*S    EENTRO =        -0.00000000
  eigenvalues    EBANDS =       -72.70104682
  atomic energy  EATOM  =      1516.20541573
  Solvation  Ediel_sol  =         0.00000000
  ---------------------------------------------------
  free energy    TOTEN  =        -5.49319914 eV

  energy without entropy =       -5.49319914  energy(sigma->0) =       -5.49319914


--------------------------------------------------------------------------------------------------------




----------------------------------------- Iteration    1(   5)  ---------------------------------------


     EDDAV:  cpu time    0.0600: real time    0.0603
       DOS:  cpu time    0.0000: real time    0.0011
    --------------------------------------------
      LOOP:  cpu time    0.0600: real time    0.0686

 eigenvalue-minimisations  :  1360
 total energy-change (2. order) :-0.5778717E-04  (-0.5778685E-04)
 number of electron      18.0000000 magnetization 
 augmentation part       18.0000000 magnetization 

 Free energy of the ion-electron system (eV)
  ---------------------------------------------------
  alpha Z        PSCENC =        50.17222034
  Ewald energy   TEWEN  =     -1044.83138452
  -Hartree energ DENC   =      -504.99582460
  -exchange      EXHF   =         0.00000000
  -V(xc)+E(xc)   XCENC  =       -20.59894587
  PAW double counting   =      1708.54112970    -1637.28476310
  entropy T*S    EENTRO =        -0.00000000
  eigenvalues    EBANDS =       -72.70110460
  atomic energy  EATOM  =      1516.20541573
  Solvation  Ediel_sol  =         0.00000000
  ---------------------------------------------------
  free energy    TOTEN  =        -5.49325693 eV

  energy without entropy =       -5.49325693  energy(sigma->0) =       -5.49325693


--------------------------------------------------------------------------------------------------------




----------------------------------------- Iteration    1(   6)  ---------------------------------------


     EDDAV:  cpu time    0.0640: real time    0.0659
       DOS:  cpu time    0.0000: real time    0.0013
    --------------------------------------------
      LOOP:  cpu time    0.0720: real time    0.0795

 eigenvalue-minimisations  :  1456
 total energy-change (2. order) :-0.1046817E-05  (-0.1046940E-05)
 number of electron      18.0000000 magnetization 
 augmentation part       18.0000000 magnetization 

 Free energy of the ion-electron system (eV)
  ---------------------------------------------------
  alpha Z        PSCENC =        50.17222034
  Ewald energy   TEWEN  =     -1044.83138452
  -Hartree energ DENC   =      -504.99582460
  -exchange      EXHF   =         0.00000000
  -V(xc)+E(xc)   XCENC  =       -20.59894587
  PAW double counting   =      1708.54112970    -1637.28476310
  entropy T*S    EENTRO =        -0.00000000
  eigenvalues    EBANDS =       -72.70110565
  atomic energy  EATOM  =      1516.20541573
  Solvation  Ediel_sol  =         0.00000000
  ---------------------------------------------------
  free energy    TOTEN  =        -5.49325797 eV

  energy without entropy =       -5.49325797  energy(sigma->0) =       -5.49325797


--------------------------------------------------------------------------------------------------------




----------------------------------------- Iteration    1(   7)  ---------------------------------------


     EDDAV:  cpu time    0.0520: real time    0.0503
       DOS:  cpu time    0.0040: real time    0.0035
    --------------------------------------------
      LOOP:  cpu time    0.1000: real time    0.1507

 eigenvalue-minimisations  :  1144
 total energy-change (2. order) :-0.1657531E-07  (-0.1663924E-07)
 number of electron      18.0000000 magnetization 
 augmentation part       18.0000000 magnetization 

 Free energy of the ion-electron system (eV)
  ---------------------------------------------------
  alpha Z        PSCENC =        50.17222034
  Ewald energy   TEWEN  =     -1044.83138452
  -Hartree energ DENC   =      -504.99582460
  -exchange      EXHF   =         0.00000000
  -V(xc)+E(xc)   XCENC  =       -20.59894587
  PAW double counting   =      1708.54112970    -1637.28476310
  entropy T*S    EENTRO =        -0.00000000
  eigenvalues    EBANDS =       -72.70110567
  atomic energy  EATOM  =      1516.20541573
  Solvation  Ediel_sol  =         0.00000000
  ---------------------------------------------------
  free energy    TOTEN  =        -5.49325799 eV

  energy without entropy =       -5.49325799  energy(sigma->0) =       -5.49325799


--------------------------------------------------------------------------------------------------------




 the core state eigenenergies are
   1-  1s -26513.5706  2s  -3930.7399  2p  -3525.9966  3s   -727.5628  3p   -594.8522
       3d   -387.3088  4s    -99.6505  4p    -60.6945
   2-  1s -31612.8737  2s  -4840.4554  2p  -4343.8509  3s   -956.6729  3p   -795.3307
       3d   -551.5808  4s   -156.1800  4p   -106.2196  4d    -33.5453
 
 E-fermi :   2.3718     XC(G=0):  -8.7634     alpha+bet : -7.4227


 k-point     1 :       0.0000    0.0000    0.0000
  band No.  band energies     occupation 
      1      -8.9586      2.00000
      2      -5.8303      2.00000
      3      -5.8303      2.00000
      4      -5.8303      2.00000
      5      -5.5525      2.00000
      6      -5.5525      2.00000
      7       2.2607      2.00000
      8       2.2607      2.00000
      9       2.2607      2.00000
     10       2.8942      0.00000
     11       6.7663      0.00000
     12       6.7663      0.00000
     13       6.7663      0.00000
     14       9.5086      0.00000
     15      11.5756      0.00000
     16      11.5756      0.00000

 k-point     2 :       0.1667    0.0000    0.0000
  band No.  band energies     occupation 
      1      -8.8533      2.00000
      2      -5.8105      2.00000
      3      -5.8105      2.00000
      4      -5.7518      2.00000
      5      -5.5538      2.00000
      6      -5.5538      2.00000
      7       0.4766      2.00000
      8       2.0263      2.00000
      9       2.0263      2.00000
     10       4.0146      0.00000
     11       6.8684      0.00000
     12       7.1086      0.00000
     13       7.1086      0.00000
     14      10.5095      0.00000
     15      10.6420      0.00000
     16      10.6420      0.00000

 k-point     3 :       0.3333    0.0000    0.0000
  band No.  band energies     occupation 
      1      -8.6392      2.00000
      2      -5.7764      2.00000
      3      -5.7764      2.00000
      4      -5.5497      2.00000
      5      -5.5497      2.00000
      6      -5.4788      2.00000
      7      -1.3822      2.00000
      8       1.6361      2.00000
      9       1.6361      2.00000
     10       4.0723      0.00000
     11       7.3914      0.00000
     12       7.3914      0.00000
     13       8.3866      0.00000
     14      10.1311      0.00000
     15      11.0519      0.00000
     16      11.0519      0.00000

 k-point     4 :       0.5000    0.0000    0.0000
  band No.  band energies     occupation 
      1      -8.5322      2.00000
      2      -5.7631      2.00000
      3      -5.7631      2.00000
      4      -5.5431      2.00000
      5      -5.5431      2.00000
      6      -5.2234      2.00000
      7      -2.2437      2.00000
      8       1.4671      2.00000
      9       1.4671      2.00000
     10       3.9608      0.00000
     11       7.3528      0.00000
     12       7.3528      0.00000
     13       9.1444      0.00000
     14      10.7397      0.00000
     15      12.4802      0.00000
     16      12.4802      0.00000

 k-point     5 :       0.1667    0.1667    0.0000
  band No.  band energies     occupation 
      1      -8.8185      2.00000
      2      -5.7904      2.00000
      3      -5.7904      2.00000
      4      -5.7552      2.00000
      5      -5.5621      2.00000
      6      -5.5443      2.00000
      7       0.4742      2.00000
      8       1.6385      2.00000
      9       1.6385      2.00000
     10       4.6764      0.00000
     11       5.8402      0.00000
     12       7.7264      0.00000
     13       7.7264      0.00000
     14       9.3083      0.00000
     15      11.2861      0.00000
     16      11.8149      0.00000

 k-point     6 :       0.3333    0.1667    0.0000
  band No.  band energies     occupation 
      1      -8.6412      2.00000
      2      -5.7644      2.00000
      3      -5.7517      2.00000
      4      -5.6152      2.00000
      5      -5.5382      2.00000
      6      -5.4973      2.00000
      7      -0.9174      2.00000
      8       1.1037      2.00000
      9       1.2214      2.00000
     10       5.0379      0.00000
     11       6.1894      0.00000
     12       7.8574      0.00000
     13       8.2937      0.00000
     14      10.0400      0.00000
     15      11.8730      0.00000
     16      11.9461      0.00000

 k-point     7 :       0.5000    0.1667    0.0000
  band No.  band energies     occupation 
      1      -8.5001      2.00000
      2      -5.7487      2.00000
      3      -5.7352      2.00000
      4      -5.5709      2.00000
      5      -5.5400      2.00000
      6      -5.2020      2.00000
      7      -2.0254      2.00000
      8       0.5676      2.00000
      9       1.1382      2.00000
     10       4.9410      0.00000
     11       6.8452      0.00000
     12       8.1087      0.00000
     13       8.7230      0.00000
     14      10.9318      0.00000
     15      12.1261      0.00000
     16      12.5749      0.00000

 k-point     8 :      -0.3333    0.1667    0.0000
  band No.  band energies     occupation 
      1      -8.5350      2.00000
      2      -5.7500      2.00000
      3      -5.7496      2.00000
      4      -5.5566      2.00000
      5      -5.5562      2.00000
      6      -5.2877      2.00000
      7      -1.7543      2.00000
      8       0.4296      2.00000
      9       1.4425      2.00000
     10       4.9981      0.00000
     11       7.0870      0.00000
     12       7.8039      0.00000
     13       8.4941      0.00000
     14      10.6442      0.00000
     15      11.2935      0.00000
     16      12.4761      0.00000

 k-point     9 :      -0.1667    0.1667    0.0000
  band No.  band energies     occupation 
      1      -8.7117      2.00000
      2      -5.7877      2.00000
      3      -5.7729      2.00000
      4      -5.6261      2.00000
      5      -5.5631      2.00000
      6      -5.5328      2.00000
      7      -0.5071      2.00000
      8       0.9732      2.00000
      9       1.9032      2.00000
     10       4.8404      0.00000
     11       6.8399      0.00000
     12       7.3394      0.00000
     13       7.6463      0.00000
     14       9.8857      0.00000
     15      11.1192      0.00000
     16      11.8746      0.00000

 k-point    10 :       0.3333    0.3333    0.0000
  band No.  band energies     occupation 
      1      -8.5370      2.00000
      2      -5.7033      2.00000
      3      -5.7033      2.00000
      4      -5.6575      2.00000
      5      -5.5281      2.00000
      6      -5.3902      2.00000
      7      -1.2650      2.00000
      8       0.7268      2.00000
      9       0.7268      2.00000
     10       4.8697      0.00000
     11       5.2942      0.00000
     12       9.4739      0.00000
     13       9.6832      0.00000
     14       9.6832      0.00000
     15      12.4775      0.00000
     16      14.0846      0.00000

 k-point    11 :       0.5000    0.3333    0.0000
  band No.  band energies     occupation 
      1      -8.4339      2.00000
      2      -5.7038      2.00000
      3      -5.6805      2.00000
      4      -5.6254      2.00000
      5      -5.5292      2.00000
      6      -5.1409      2.00000
      7      -1.9011      2.00000
      8       0.0503      2.00000
      9       0.5911      2.00000
     10       4.9620      0.00000
     11       5.8616      0.00000
     12       9.1269      0.00000
     13       9.8732      0.00000
     14      11.2338      0.00000
     15      12.8833      0.00000
     16      13.6541      0.00000

 k-point    12 :      -0.3333    0.3333    0.0000
  band No.  band energies     occupation 
      1      -8.4341      2.00000
      2      -5.7239      2.00000
      3      -5.7011      2.00000
      4      -5.5829      2.00000
      5      -5.5478      2.00000
      6      -5.0757      2.00000
      7      -1.9435      2.00000
      8      -0.4140      2.00000
      9       0.9068      2.00000
     10       5.1947      0.00000
     11       7.2843      0.00000
     12       9.0190      0.00000
     13       9.1356      0.00000
     14       9.6201      0.00000
     15      11.1764      0.00000
     16      14.3119      0.00000

 k-point    13 :       0.5000    0.5000    0.0000
  band No.  band energies     occupation 
      1      -8.3998      2.00000
      2      -5.6701      2.00000
      3      -5.6555      2.00000
      4      -5.6555      2.00000
      5      -5.5199      2.00000
      6      -5.0954      2.00000
      7      -2.1084      2.00000
      8       0.3530      2.00000
      9       0.3530      2.00000
     10       4.7082      0.00000
     11       4.8283      0.00000
     12      10.9483      0.00000
     13      11.2989      0.00000
     14      11.2989      0.00000
     15      13.0362      0.00000
     16      13.7462      0.00000

 k-point    14 :       0.5000    0.3333    0.1667
  band No.  band energies     occupation 
      1      -8.5020      2.00000
      2      -5.7288      2.00000
      3      -5.7214      2.00000
      4      -5.5992      2.00000
      5      -5.5394      2.00000
      6      -5.2659      2.00000
      7      -1.5814      2.00000
      8       0.1365      2.00000
      9       0.9093      2.00000
     10       5.7564      0.00000
     11       6.2761      0.00000
     12       7.4366      0.00000
     13       9.5780      0.00000
     14      10.3467      0.00000
     15      12.4325      0.00000
     16      13.6123      0.00000

 k-point    15 :      -0.3333    0.3333    0.1667
  band No.  band energies     occupation 
      1      -8.4341      2.00000
      2      -5.7210      2.00000
      3      -5.7055      2.00000
      4      -5.5795      2.00000
      5      -5.5500      2.00000
      6      -5.0746      2.00000
      7      -1.9821      2.00000
      8      -0.1831      2.00000
      9       0.6198      2.00000
     10       5.8864      0.00000
     11       6.7585      0.00000
     12       7.9100      0.00000
     13       9.4210      0.00000
     14      10.1234      0.00000
     15      12.6231      0.00000
     16      13.4044      0.00000

 k-point    16 :      -0.3333    0.5000    0.1667
  band No.  band energies     occupation 
      1      -8.4010      2.00000
      2      -5.6927      2.00000
      3      -5.6888      2.00000
      4      -5.6047      2.00000
      5      -5.5394      2.00000
      6      -5.0284      2.00000
      7      -2.0233      2.00000
      8      -0.0021      2.00000
      9       0.0814      2.00000
     10       5.8936      0.00000
     11       5.9108      0.00000
     12       8.8342      0.00000
     13       9.1101      0.00000
     14      11.7471      0.00000
     15      13.2782      0.00000
     16      13.4993      0.00000

 k-point    17 :       0.0000    0.0000    0.0000
  band No.  band energies     occupation 
      1      -8.9586      2.00000
      2      -5.8303      2.00000
      3      -5.8303      2.00000
      4      -5.8303      2.00000
      5      -5.5525      2.00000
      6      -5.5525      2.00000
      7       2.2607      2.00000
      8       2.2607      2.00000
      9       2.2607      2.00000
     10       2.8942      0.00000
     11       6.7663      0.00000
     12       6.7663      0.00000
     13       6.7663      0.00000
     14       9.5086      0.00000
     15      11.5756      0.00000
     16      11.5756      0.00000

 k-point    18 :       0.0312    0.0000    0.0312
  band No.  band energies     occupation 
      1      -8.9533      2.00000
      2      -5.8288      2.00000
      3      -5.8288      2.00000
      4      -5.8278      2.00000
      5      -5.5530      2.00000
      6      -5.5522      2.00000
      7       2.0627      2.00000
      8       2.2329      2.00000
      9       2.2329      2.00000
     10       3.0960      0.00000
     11       6.7110      0.00000
     12       6.8059      0.00000
     13       6.8059      0.00000
     14       9.5908      0.00000
     15      11.2773      0.00000
     16      11.5841      0.00000

 k-point    19 :       0.0625    0.0000    0.0625
  band No.  band energies     occupation 
      1      -8.9374      2.00000
      2      -5.8243      2.00000
      3      -5.8243      2.00000
      4      -5.8201      2.00000
      5      -5.5546      2.00000
      6      -5.5512      2.00000
      7       1.7115      2.00000
      8       2.1529      2.00000
      9       2.1529      2.00000
     10       3.4570      0.00000
     11       6.5633      0.00000
     12       6.9213      0.00000
     13       6.9213      0.00000
     14       9.8141      0.00000
     15      10.7971      0.00000
     16      11.6095      0.00000

 k-point    20 :       0.0938    0.0000    0.0938
  band No.  band energies     occupation 
      1      -8.9116      2.00000
      2      -5.8171      2.00000
      3      -5.8171      2.00000
      4      -5.8072      2.00000
      5      -5.5569      2.00000
      6      -5.5497      2.00000
      7       1.3379      2.00000
      8       2.0296      2.00000
      9       2.0296      2.00000
     10       3.8419      0.00000
     11       6.3607      0.00000
     12       7.1038      0.00000
     13       7.1038      0.00000
     14      10.0601      0.00000
     15      10.4045      0.00000
     16      11.6519      0.00000

 k-point    21 :       0.1250    0.0000    0.1250
  band No.  band energies     occupation 
      1      -8.8768      2.00000
      2      -5.8072      2.00000
      3      -5.8072      2.00000
      4      -5.7886      2.00000
      5      -5.5596      2.00000
      6      -5.5477      2.00000
      7       0.9637      2.00000
      8       1.8746      2.00000
      9       1.8746      2.00000
     10       4.2198      0.00000
     11       6.1360      0.00000
     12       7.3418      0.00000
     13       7.3418      0.00000
     14       9.7851      0.00000
     15      10.6525      0.00000
     16      11.7109      0.00000

 k-point    22 :       0.1562    0.0000    0.1562
  band No.  band energies     occupation 
      1      -8.8341      2.00000
      2      -5.7950      2.00000
      3      -5.7950      2.00000
      4      -5.7644      2.00000
      5      -5.5618      2.00000
      6      -5.5453      2.00000
      7       0.5953      2.00000
      8       1.6995      2.00000
      9       1.6995      2.00000
     10       4.5700      0.00000
     11       5.9119      0.00000
     12       7.6242      0.00000
     13       7.6242      0.00000
     14       9.4155      0.00000
     15      11.1182      0.00000
     16      11.7862      0.00000

 k-point    23 :       0.1875    0.0000    0.1875
  band No.  band energies     occupation 
      1      -8.7854      2.00000
      2      -5.7807      2.00000
      3      -5.7807      2.00000
      4      -5.7353      2.00000
      5      -5.5617      2.00000
      6      -5.5424      2.00000
      7       0.2352      2.00000
      8       1.5145      2.00000
      9       1.5145      2.00000
     10       4.8663      0.00000
     11       5.7051      0.00000
     12       7.9410      0.00000
     13       7.9410      0.00000
     14       9.1274      0.00000
     15      11.6347      0.00000
     16      11.8775      0.00000

 k-point    24 :       0.2188    0.0000    0.2188
  band No.  band energies     occupation 
      1      -8.7325      2.00000
      2      -5.7650      2.00000
      3      -5.7650      2.00000
      4      -5.7042      2.00000
      5      -5.5555      2.00000
      6      -5.5394      2.00000
      7      -0.1145      2.00000
      8       1.3280      2.00000
      9       1.3280      2.00000
     10       5.0687      0.00000
     11       5.5375      0.00000
     12       8.2845      0.00000
     13       8.2845      0.00000
     14       8.9565      0.00000
     15      11.9839      0.00000
     16      12.1796      0.00000

 k-point    25 :       0.2500    0.0000    0.2500
  band No.  band energies     occupation 
      1      -8.6774      2.00000
      2      -5.7482      2.00000
      3      -5.7482      2.00000
      4      -5.6775      2.00000
      5      -5.5362      2.00000
      6      -5.5359      2.00000
      7      -0.4516      2.00000
      8       1.1468      2.00000
      9       1.1468      2.00000
     10       5.1189      0.00000
     11       5.4495      0.00000
     12       8.6485      0.00000
     13       8.6485      0.00000
     14       8.9260      0.00000
     15      12.1043      0.00000
     16      12.7363      0.00000

 k-point    26 :       0.2812    0.0000    0.2812
  band No.  band energies     occupation 
      1      -8.6224      2.00000
      2      -5.7310      2.00000
      3      -5.7310      2.00000
      4      -5.6622      2.00000
      5      -5.5330      2.00000
      6      -5.4959      2.00000
      7      -0.7734      2.00000
      8       0.9762      2.00000
      9       0.9762      2.00000
     10       5.0399      0.00000
     11       5.4163      0.00000
     12       9.0282      0.00000
     13       9.0282      0.00000
     14       9.0384      0.00000
     15      12.2369      0.00000
     16      13.2837      0.00000

 k-point    27 :       0.3125    0.0000    0.3125
  band No.  band energies     occupation 
      1      -8.5698      2.00000
      2      -5.7141      2.00000
      3      -5.7141      2.00000
      4      -5.6573      2.00000
      5      -5.5300      2.00000
      6      -5.4368      2.00000
      7      -1.0762      2.00000
      8       0.8205      2.00000
      9       0.8205      2.00000
     10       4.9341      0.00000
     11       5.3556      0.00000
     12       9.2708      0.00000
     13       9.4189      0.00000
     14       9.4189      0.00000
     15      12.3792      0.00000
     16      13.7908      0.00000

 k-point    28 :       0.3438    0.0000    0.3438
  band No.  band energies     occupation 
      1      -8.5216      2.00000
      2      -5.6981      2.00000
      3      -5.6981      2.00000
      4      -5.6581      2.00000
      5      -5.5272      2.00000
      6      -5.3656      2.00000
      7      -1.3548      2.00000
      8       0.6833      2.00000
      9       0.6833      2.00000
     10       4.8408      0.00000
     11       5.2592      0.00000
     12       9.5854      0.00000
     13       9.8159      0.00000
     14       9.8159      0.00000
     15      12.5271      0.00000
     16      14.2116      0.00000

 k-point    29 :       0.3750    0.0000    0.3750
  band No.  band energies     occupation 
      1      -8.4797      2.00000
      2      -5.6839      2.00000
      3      -5.6839      2.00000
      4      -5.6611      2.00000
      5      -5.5247      2.00000
      6      -5.2893      2.00000
      7      -1.6028      2.00000
      8       0.5673      2.00000
      9       0.5673      2.00000
     10       4.7699      0.00000
     11       5.1458      0.00000
     12       9.9428      0.00000
     13      10.2118      0.00000
     14      10.2118      0.00000
     15      12.6746      0.00000
     16      14.4797      0.00000

 k-point    30 :       0.4062    0.0000    0.4062
  band No.  band energies     occupation 
      1      -8.4455      2.00000
      2      -5.6719      2.00000
      3      -5.6719      2.00000
      4      -5.6645      2.00000
      5      -5.5226      2.00000
      6      -5.2156      2.00000
      7      -1.8118      2.00000
      8       0.4749      2.00000
      9       0.4749      2.00000
     10       4.7240      0.00000
     11       5.0330      0.00000
     12      10.3046      0.00000
     13      10.5942      0.00000
     14      10.5942      0.00000
     15      12.8126      0.00000
     16      14.5423      0.00000

 k-point    31 :       0.4375    0.0000    0.4375
  band No.  band energies     occupation 
      1      -8.4204      2.00000
      2      -5.6675      2.00000
      3      -5.6630      2.00000
      4      -5.6630      2.00000
      5      -5.5211      2.00000
      6      -5.1530      2.00000
      7      -1.9720      2.00000
      8       0.4076      2.00000
      9       0.4076      2.00000
     10       4.7029      0.00000
     11       4.9337      0.00000
     12      10.6283      0.00000
     13      10.9389      0.00000
     14      10.9389      0.00000
     15      12.9288      0.00000
     16      14.1710      0.00000

 k-point    32 :       0.4688    0.0000    0.4688
  band No.  band energies     occupation 
      1      -8.4050      2.00000
      2      -5.6695      2.00000
      3      -5.6574      2.00000
      4      -5.6574      2.00000
      5      -5.5202      2.00000
      6      -5.1105      2.00000
      7      -2.0735      2.00000
      8       0.3667      2.00000
      9       0.3667      2.00000
     10       4.7026      0.00000
     11       4.8592      0.00000
     12      10.8615      0.00000
     13      11.1980      0.00000
     14      11.1980      0.00000
     15      13.0079      0.00000
     16      13.8633      0.00000


--------------------------------------------------------------------------------------------------------


 soft charge-density along one line, spin component           1
         0         1         2         3         4         5         6         7         8         9
 total charge-density along one line
 
 pseudopotential strength for first ion, spin component:           1
-17.748   0.000   0.000   0.000   0.000 -17.795   0.000   0.000
  0.000 -17.748   0.000  -0.000  -0.000   0.000 -17.795   0.000
  0.000   0.000 -17.747   0.000  -0.000   0.000   0.000 -17.794
  0.000  -0.000   0.000 -17.748   0.000   0.000  -0.000   0.000
  0.000  -0.000  -0.000   0.000 -17.747   0.000  -0.000  -0.000
-17.795   0.000   0.000   0.000   0.000 -17.822   0.000   0.000
  0.000 -17.795   0.000  -0.000  -0.000   0.000 -17.822   0.000
  0.000   0.000 -17.794   0.000  -0.000   0.000   0.000 -17.821
  0.000  -0.000   0.000 -17.795   0.000   0.000  -0.000   0.000
  0.000  -0.000  -0.000   0.000 -17.794   0.000  -0.000  -0.000
  0.000  -0.000  -0.000  -0.000  -0.000   0.000  -0.000  -0.000
  0.000  -0.000  -0.000  -0.000  -0.000   0.000  -0.000  -0.000
 -0.000   0.000  -0.000  -0.001  -0.000  -0.000   0.000  -0.000
 -0.001  -0.000  -0.000  -0.000  -0.000  -0.001  -0.000  -0.000
 -0.000  -0.001  -0.000   0.000   0.000  -0.000  -0.001  -0.000
 -0.000   0.000  -0.000  -0.001  -0.000  -0.000   0.000  -0.000
 -0.001  -0.000  -0.000  -0.000  -0.000  -0.001  -0.000  -0.000
 -0.000  -0.001  -0.000   0.000   0.000  -0.000  -0.001  -0.000
 total augmentation occupancy for first ion, spin component:           1
  2.000   0.000   0.000   0.000   0.000   0.000   0.000   0.000   0.000   0.000   0.000   0.000   0.000   0.000   0.000   0.000
  0.000   2.000   0.000   0.000   0.000   0.000   0.000   0.000   0.000   0.000   0.000   0.000   0.000   0.000   0.000   0.000
  0.000   0.000   2.000   0.000   0.000   0.000   0.000   0.000   0.000   0.000   0.000   0.000   0.000   0.000   0.000   0.000
  0.000   0.000   0.000   2.000   0.000   0.000   0.000   0.000   0.000   0.000   0.000   0.000   0.000   0.000   0.000   0.000
  0.000   0.000   0.000   0.000   2.000   0.000   0.000   0.000   0.000   0.000   0.000   0.000   0.000   0.000   0.000   0.000
  0.000   0.000   0.000   0.000   0.000   0.000   0.000   0.000   0.000   0.000   0.000   0.000   0.000   0.000   0.000   0.000
  0.000   0.000   0.000   0.000   0.000   0.000   0.000   0.000   0.000   0.000   0.000   0.000   0.000   0.000   0.000   0.000
  0.000   0.000   0.000   0.000   0.000   0.000   0.000   0.000   0.000   0.000   0.000   0.000   0.000   0.000   0.000   0.000
  0.000   0.000   0.000   0.000   0.000   0.000   0.000   0.000   0.000   0.000   0.000   0.000   0.000   0.000   0.000   0.000
  0.000   0.000   0.000   0.000   0.000   0.000   0.000   0.000   0.000   0.000   0.000   0.000   0.000   0.000   0.000   0.000
  0.000   0.000   0.000   0.000   0.000   0.000   0.000   0.000   0.000   0.000   2.000   0.000   0.000   0.000   0.000   0.000
  0.000   0.000   0.000   0.000   0.000   0.000   0.000   0.000   0.000   0.000   0.000   0.000   0.000   0.000   0.000   0.000
  0.000   0.000   0.000   0.000   0.000   0.000   0.000   0.000   0.000   0.000   0.000   0.000   0.000   0.000   0.000   0.000
  0.000   0.000   0.000   0.000   0.000   0.000   0.000   0.000   0.000   0.000   0.000   0.000   0.000   0.000   0.000   0.000
  0.000   0.000   0.000   0.000   0.000   0.000   0.000   0.000   0.000   0.000   0.000   0.000   0.000   0.000   0.000   0.000
  0.000   0.000   0.000   0.000   0.000   0.000   0.000   0.000   0.000   0.000   0.000   0.000   0.000   0.000   0.000   0.000
  0.000   0.000   0.000   0.000   0.000   0.000   0.000   0.000   0.000   0.000   0.000   0.000   0.000   0.000   0.000   0.000
  0.000   0.000   0.000   0.000   0.000   0.000   0.000   0.000   0.000   0.000   0.000   0.000   0.000   0.000   0.000   0.000


------------------------ aborting loop because EDIFF is reached ----------------------------------------


 


 total charge     
 
# of ion     s       p       d       tot
----------------------------------------
  1        0.473   0.320   9.522  10.315
  2        1.351   2.041   0.022   3.414
------------------------------------------------
tot        1.824   2.361   9.544  13.729
 
    CHARGE:  cpu time    0.0080: real time    0.0091
    FORLOC:  cpu time    0.0000: real time    0.0006
    FORNL :  cpu time    0.0080: real time    0.0080
    STRESS:  cpu time    0.0560: real time    0.0592
    FORCOR:  cpu time    0.0120: real time    0.0092
    FORHAR:  cpu time    0.0000: real time    0.0021
    OFIELD:  cpu time    0.0000: real time    0.0001

  FORCE on cell =-STRESS in cart. coord.  units (eV):
  Direction    XX          YY          ZZ          XY          YZ          ZX
  --------------------------------------------------------------------------------------
  Alpha Z    50.17222    50.17222    50.17222
  Ewald    -348.27726  -348.27726  -348.27726     0.00000     0.00000     0.00000
  Hartree   166.39054   166.39054   166.39054     0.00000    -0.00000    -0.00000
  E(xc)     -86.51613   -86.51613   -86.51613    -0.00000     0.00000     0.00000
  Local     -18.13000   -18.13000   -18.13000     0.00001    -0.00001    -0.00001
  n-local    21.77380    27.04899    26.17482    -1.74284    -3.04445    -1.13548
  augment     5.57736     5.57736     5.57736    -0.00001     0.00001     0.00001
  Kinetic   200.21809   203.72155   203.96489    -1.61817    -3.08908    -1.23070
  Fock        0.00000     0.00000     0.00000     0.00000     0.00000     0.00000
  -------------------------------------------------------------------------------------
  Total      -3.14923    -3.14923    -3.14923     0.00000    -0.00000     0.00000
  in kB     -74.08111   -74.08111   -74.08111     0.00000    -0.00000     0.00000
  external pressure =      -74.08 kB  Pullay stress =        0.00 kB


 VOLUME and BASIS-vectors are now :
 -----------------------------------------------------------------------------
  energy-cutoff  :      500.00
  volume of cell :       68.11
      direct lattice vectors                 reciprocal lattice vectors
     3.241350000  3.241350000  0.000000000     0.154256714  0.154256714  0.154256714
     3.241350000  0.000000000 -3.241350000     0.154256714 -0.154256714 -0.154256714
     0.000000000  3.241350000 -3.241350000    -0.154256714  0.154256714 -0.154256714

  length of vectors
     4.583961130  4.583961130  4.583961130     0.267180466  0.267180466  0.267180466


 FORCES acting on ions
    electron-ion (+dipol)            ewald-force                    non-local-force                 convergence-correction
 -----------------------------------------------------------------------------------------------
   -.322E-06 -.323E-06 0.323E-06   -.744E-14 -.454E-14 0.998E-14   -.416E-16 -.312E-16 0.312E-16   0.552E-06 0.552E-06 0.550E-06
   0.157E-06 0.163E-06 -.163E-06   0.759E-14 0.606E-14 -.102E-13   -.711E-16 -.971E-16 0.971E-16   0.131E-06 0.131E-06 0.131E-06
 -----------------------------------------------------------------------------------------------
   -.165E-06 -.160E-06 0.160E-06   0.152E-15 0.152E-14 -.238E-15   -.113E-15 -.128E-15 0.128E-15   0.683E-06 0.683E-06 0.680E-06
 
 
 POSITION                                       TOTAL-FORCE (eV/Angst)
 -----------------------------------------------------------------------------------
      0.00000      0.00000      0.00000         0.000000      0.000000     -0.000000
      1.62068      1.62068     -1.62068        -0.000000     -0.000000      0.000000
 -----------------------------------------------------------------------------------
    total drift:                                0.000001      0.000001      0.000001


--------------------------------------------------------------------------------------------------------



  FREE ENERGIE OF THE ION-ELECTRON SYSTEM (eV)
  ---------------------------------------------------
  free  energy   TOTEN  =        -5.49325799 eV

  energy  without entropy=       -5.49325799  energy(sigma->0) =       -5.49325799
 


--------------------------------------------------------------------------------------------------------


    POTLOK:  cpu time    0.0120: real time    0.0123


--------------------------------------------------------------------------------------------------------




--------------------------------------------------------------------------------------------------------


 writing wavefunctions
     LOOP+:  cpu time    1.6001: real time    1.9098
    4ORBIT:  cpu time    0.0000: real time    0.0000
 


 total charge     
 
# of ion     s       p       d       tot
----------------------------------------
  1        0.473   0.320   9.522  10.315
  2        1.351   2.041   0.022   3.414
------------------------------------------------
tot        1.824   2.361   9.544  13.729
 

 total amount of memory used by VASP on root node    35369. kBytes
========================================================================

   base      :      30000. kBytes
   nonl-proj :       2737. kBytes
   fftplans  :        768. kBytes
   grid      :       1202. kBytes
   one-center:         15. kBytes
   wavefun   :        647. kBytes
 
  
  
 General timing and accounting informations for this job:
 ========================================================
  
                  Total CPU time used (sec):        4.552
                            User time (sec):        2.620
                          System time (sec):        1.932
                         Elapsed time (sec):        5.954
  
                   Maximum memory used (kb):       29784.
                   Average memory used (kb):           0.
  
                          Minor page faults:         7779
                          Major page faults:            0
                 Voluntary context switches:         1203
