       N       E                     dE             d eps       ncg     rms          ort
DAV:   1     0.217127331696E+03    0.21713E+03   -0.77208E+03  6048   0.115E+03
DAV:   2     0.659889545117E+02   -0.15114E+03   -0.13928E+03  6048   0.336E+02
DAV:   3     0.343774675580E+02   -0.31611E+02   -0.30698E+02  6048   0.146E+02
DAV:   4     0.297809505060E+02   -0.45965E+01   -0.44980E+01  6048   0.614E+01
DAV:   5     0.287928128641E+02   -0.98814E+00   -0.96767E+00  6048   0.249E+01
