  96  96   0   0
  0.2080188E+02  0.1257760E-08  0.1245754E-08  0.1274818E-08  0.5000000E-15
  1.000000000000000E-004
  CAR 
 MAPbI3-Cubic                            
     10.65296668    -19.52806963  301      1.52320320      1.00000000
    -19.528  0.0000E+00  0.0000E+00
    -19.427  0.0000E+00  0.0000E+00
    -19.327  0.0000E+00  0.0000E+00
    -19.226  0.0000E+00  0.0000E+00
    -19.126  0.0000E+00  0.0000E+00
    -19.025  0.0000E+00  0.0000E+00
    -18.924  0.0000E+00  0.0000E+00
    -18.824  0.0000E+00  0.0000E+00
    -18.723  0.0000E+00  0.0000E+00
    -18.623  0.0000E+00  0.0000E+00
    -18.522  0.0000E+00  0.0000E+00
    -18.421  0.0000E+00  0.0000E+00
    -18.321  0.0000E+00  0.0000E+00
    -18.220  0.0000E+00  0.0000E+00
    -18.120  0.0000E+00  0.1600E+02
    -18.019  0.0000E+00  0.1600E+02
    -17.918  0.0000E+00  0.1600E+02
    -17.818  0.0000E+00  0.1600E+02
    -17.717  0.0000E+00  0.1600E+02
    -17.617  0.0000E+00  0.1600E+02
    -17.516  0.0000E+00  0.1600E+02
    -17.415  0.0000E+00  0.1600E+02
    -17.315  0.0000E+00  0.1600E+02
    -17.214  0.0000E+00  0.1600E+02
    -17.114  0.0000E+00  0.1600E+02
    -17.013  0.0000E+00  0.1600E+02
    -16.912  0.0000E+00  0.1600E+02
    -16.812  0.0000E+00  0.1600E+02
    -16.711  0.0000E+00  0.1600E+02
    -16.611  0.0000E+00  0.1600E+02
    -16.510  0.0000E+00  0.1600E+02
    -16.409  0.0000E+00  0.4800E+02
    -16.309  0.0000E+00  0.4800E+02
    -16.208  0.0000E+00  0.4800E+02
    -16.108  0.0000E+00  0.4800E+02
    -16.007  0.0000E+00  0.4800E+02
    -15.906  0.0000E+00  0.4800E+02
    -15.806  0.0000E+00  0.4800E+02
    -15.705  0.0000E+00  0.4800E+02
    -15.605  0.0000E+00  0.4800E+02
    -15.504  0.0000E+00  0.4800E+02
    -15.403  0.0000E+00  0.4800E+02
    -15.303  0.0000E+00  0.4800E+02
    -15.202  0.0000E+00  0.4800E+02
    -15.102  0.0000E+00  0.4800E+02
    -15.001  0.0000E+00  0.4800E+02
    -14.900  0.0000E+00  0.4800E+02
    -14.800  0.0000E+00  0.4800E+02
    -14.699  0.0000E+00  0.4800E+02
    -14.599  0.0000E+00  0.4800E+02
    -14.498  0.0000E+00  0.4800E+02
    -14.397  0.0000E+00  0.4800E+02
    -14.297  0.0000E+00  0.4800E+02
    -14.196  0.0000E+00  0.4800E+02
    -14.095  0.0000E+00  0.4800E+02
    -13.995  0.0000E+00  0.4800E+02
    -13.894  0.8484E+02  0.7402E+02
    -13.794  0.0000E+00  0.9600E+02
    -13.693  0.0000E+00  0.9600E+02
    -13.592  0.0000E+00  0.9600E+02
    -13.492  0.0000E+00  0.9600E+02
    -13.391  0.0000E+00  0.9600E+02
    -13.291  0.0000E+00  0.9600E+02
    -13.190  0.0000E+00  0.9600E+02
    -13.089  0.0000E+00  0.9600E+02
    -12.989  0.0000E+00  0.9600E+02
    -12.888  0.0000E+00  0.9600E+02
    -12.788  0.0000E+00  0.9600E+02
    -12.687  0.0000E+00  0.9600E+02
    -12.586  0.0000E+00  0.9600E+02
    -12.486  0.0000E+00  0.9600E+02
    -12.385  0.0000E+00  0.9600E+02
    -12.285  0.0000E+00  0.9600E+02
    -12.184  0.0000E+00  0.9600E+02
    -12.083  0.0000E+00  0.9600E+02
    -11.983  0.0000E+00  0.9600E+02
    -11.882  0.0000E+00  0.9600E+02
    -11.782  0.0000E+00  0.9600E+02
    -11.681  0.0000E+00  0.9600E+02
    -11.580  0.0000E+00  0.9600E+02
    -11.480  0.0000E+00  0.9600E+02
    -11.379  0.0000E+00  0.9600E+02
    -11.279  0.0000E+00  0.1040E+03
    -11.178  0.0000E+00  0.1120E+03
    -11.077  0.0000E+00  0.1120E+03
    -10.977  0.0000E+00  0.1120E+03
    -10.876  0.0000E+00  0.1120E+03
    -10.776  0.2079E+01  0.1124E+03
    -10.675  0.8669E+01  0.1150E+03
    -10.574  0.3098E+01  0.1201E+03
    -10.474  0.4542E+01  0.1279E+03
    -10.373  0.2767E+01  0.1294E+03
    -10.273  0.4418E+01  0.1369E+03
    -10.172  0.4382E+01  0.1422E+03
    -10.071  0.6751E+01  0.1492E+03
     -9.971  0.2760E+01  0.1578E+03
     -9.870  0.0000E+00  0.1600E+03
     -9.770  0.0000E+00  0.1600E+03
     -9.669  0.0000E+00  0.1600E+03
     -9.568  0.0000E+00  0.1600E+03
     -9.468  0.0000E+00  0.1600E+03
     -9.367  0.0000E+00  0.1600E+03
     -9.267  0.0000E+00  0.1600E+03
     -9.166  0.0000E+00  0.1600E+03
     -9.065  0.0000E+00  0.1600E+03
     -8.965  0.0000E+00  0.1600E+03
     -8.864  0.0000E+00  0.1600E+03
     -8.764  0.0000E+00  0.1600E+03
     -8.663  0.0000E+00  0.1600E+03
     -8.562  0.0000E+00  0.1600E+03
     -8.462  0.0000E+00  0.1600E+03
     -8.361  0.0000E+00  0.1600E+03
     -8.260  0.0000E+00  0.1600E+03
     -8.160  0.0000E+00  0.1600E+03
     -8.059  0.0000E+00  0.1600E+03
     -7.959  0.0000E+00  0.1600E+03
     -7.858  0.0000E+00  0.1600E+03
     -7.757  0.0000E+00  0.1600E+03
     -7.657  0.2135E+02  0.1680E+03
     -7.556  0.0000E+00  0.1840E+03
     -7.456  0.0000E+00  0.1920E+03
     -7.355  0.0000E+00  0.1920E+03
     -7.254  0.0000E+00  0.1920E+03
     -7.154  0.0000E+00  0.1920E+03
     -7.053  0.0000E+00  0.1920E+03
     -6.953  0.0000E+00  0.1920E+03
     -6.852  0.0000E+00  0.1921E+03
     -6.751  0.0000E+00  0.1925E+03
     -6.651  0.0000E+00  0.1934E+03
     -6.550  0.2093E+01  0.1942E+03
     -6.450  0.5557E-04  0.1944E+03
     -6.349  0.0000E+00  0.1964E+03
     -6.248  0.2945E+01  0.1991E+03
     -6.148  0.1473E+01  0.2007E+03
     -6.047  0.1472E+01  0.2030E+03
     -5.947  0.2945E+01  0.2041E+03
     -5.846  0.1245E-01  0.2061E+03
     -5.745  0.2784E+01  0.2146E+03
     -5.645  0.7363E+01  0.2223E+03
     -5.544  0.0000E+00  0.2235E+03
     -5.444  0.0000E+00  0.2239E+03
     -5.343  0.5824E-07  0.2239E+03
     -5.242  0.0000E+00  0.2240E+03
     -5.142  0.0000E+00  0.2240E+03
     -5.041  0.0000E+00  0.2240E+03
     -4.941  0.0000E+00  0.2240E+03
     -4.840  0.0000E+00  0.2240E+03
     -4.739  0.0000E+00  0.2240E+03
     -4.639  0.0000E+00  0.2240E+03
     -4.538  0.0000E+00  0.2240E+03
     -4.438  0.0000E+00  0.2240E+03
     -4.337  0.0000E+00  0.2240E+03
     -4.236  0.0000E+00  0.2240E+03
     -4.136  0.0000E+00  0.2240E+03
     -4.035  0.0000E+00  0.2240E+03
     -3.935  0.0000E+00  0.2240E+03
     -3.834  0.0000E+00  0.2240E+03
     -3.733  0.0000E+00  0.2240E+03
     -3.633  0.0000E+00  0.2240E+03
     -3.532  0.3796E+02  0.2401E+03
     -3.432  0.0000E+00  0.2560E+03
     -3.331  0.0000E+00  0.2560E+03
     -3.230  0.0000E+00  0.2560E+03
     -3.130  0.0000E+00  0.2560E+03
     -3.029  0.0000E+00  0.2560E+03
     -2.928  0.0000E+00  0.2560E+03
     -2.828  0.0000E+00  0.2560E+03
     -2.727  0.0000E+00  0.2560E+03
     -2.627  0.0000E+00  0.2560E+03
     -2.526  0.0000E+00  0.2560E+03
     -2.425  0.0000E+00  0.2560E+03
     -2.325  0.0000E+00  0.2560E+03
     -2.224  0.0000E+00  0.2560E+03
     -2.124  0.3682E+01  0.2573E+03
     -2.023  0.7363E+00  0.2600E+03
     -1.922  0.2802E+00  0.2625E+03
     -1.822  0.1024E+00  0.2654E+03
     -1.721  0.4512E+01  0.2693E+03
     -1.621  0.2628E+01  0.2730E+03
     -1.520  0.2899E+01  0.2767E+03
     -1.419  0.1298E-02  0.2794E+03
     -1.319  0.0000E+00  0.2800E+03
     -1.218  0.1482E+01  0.2810E+03
     -1.118  0.2209E+01  0.2853E+03
     -1.017  0.2942E+01  0.2886E+03
     -0.916  0.5788E+01  0.2945E+03
     -0.816  0.4286E+01  0.2979E+03
     -0.715  0.1473E+01  0.3015E+03
     -0.615  0.3425E+00  0.3041E+03
     -0.514  0.2212E+01  0.3087E+03
     -0.413  0.3367E+01  0.3152E+03
     -0.313  0.4362E+01  0.3198E+03
     -0.212  0.5154E+01  0.3244E+03
     -0.112  0.6630E+01  0.3310E+03
     -0.011  0.5509E+01  0.3391E+03
      0.090  0.1031E+02  0.3476E+03
      0.190  0.3518E+01  0.3523E+03
      0.291  0.2957E+01  0.3570E+03
      0.391  0.4226E+01  0.3614E+03
      0.492  0.5291E+01  0.3675E+03
      0.593  0.6191E+01  0.3751E+03
      0.693  0.6552E+01  0.3818E+03
      0.794  0.4686E+01  0.3893E+03
      0.894  0.1473E+01  0.3942E+03
      0.995  0.7443E+00  0.3966E+03
      1.096  0.1628E+01  0.3982E+03
      1.196  0.0000E+00  0.3993E+03
      1.297  0.1108E+01  0.3997E+03
      1.397  0.0000E+00  0.3999E+03
      1.498  0.0000E+00  0.4000E+03
      1.599  0.0000E+00  0.4000E+03
      1.699  0.0000E+00  0.4000E+03
      1.800  0.0000E+00  0.4000E+03
      1.900  0.0000E+00  0.4000E+03
      2.001  0.0000E+00  0.4000E+03
      2.102  0.0000E+00  0.4000E+03
      2.202  0.0000E+00  0.4001E+03
      2.303  0.0000E+00  0.4001E+03
      2.403  0.0000E+00  0.4003E+03
      2.504  0.0000E+00  0.4004E+03
      2.605  0.0000E+00  0.4005E+03
      2.705  0.1762E-08  0.4010E+03
      2.806  0.0000E+00  0.4016E+03
      2.907  0.0000E+00  0.4021E+03
      3.007  0.2945E+01  0.4028E+03
      3.108  0.1488E-04  0.4034E+03
      3.208  0.0000E+00  0.4044E+03
      3.309  0.1460E+01  0.4051E+03
      3.410  0.1473E+01  0.4063E+03
      3.510  0.1909E+01  0.4079E+03
      3.611  0.1473E+01  0.4087E+03
      3.711  0.0000E+00  0.4093E+03
      3.812  0.1473E+01  0.4104E+03
      3.913  0.3512E-01  0.4117E+03
      4.013  0.0000E+00  0.4133E+03
      4.114  0.7363E+00  0.4140E+03
      4.214  0.9621E-04  0.4163E+03
      4.315  0.5095E+01  0.4182E+03
      4.416  0.7360E+00  0.4199E+03
      4.516  0.7363E+00  0.4210E+03
      4.617  0.1499E+01  0.4222E+03
      4.717  0.2884E+01  0.4231E+03
      4.818  0.4408E-08  0.4239E+03
      4.919  0.1473E+01  0.4247E+03
      5.019  0.2431E-04  0.4251E+03
      5.120  0.0000E+00  0.4261E+03
      5.220  0.7797E+00  0.4273E+03
      5.321  0.1680E+01  0.4285E+03
      5.422  0.3681E+01  0.4320E+03
      5.522  0.4852E+01  0.4348E+03
      5.623  0.7363E+00  0.4372E+03
      5.723  0.1473E+01  0.4396E+03
      5.824  0.1583E+01  0.4419E+03
      5.925  0.2945E+01  0.4444E+03
      6.025  0.1656E+01  0.4476E+03
      6.126  0.3681E+01  0.4513E+03
      6.226  0.2727E+01  0.4550E+03
      6.327  0.4420E+01  0.4597E+03
      6.428  0.4996E+01  0.4634E+03
      6.528  0.3985E+01  0.4693E+03
      6.629  0.2199E+01  0.4744E+03
      6.729  0.2955E+01  0.4787E+03
      6.830  0.6376E+01  0.4835E+03
      6.931  0.2925E+01  0.4869E+03
      7.031  0.5187E+01  0.4899E+03
      7.132  0.7034E+01  0.4945E+03
      7.232  0.3035E+01  0.5009E+03
      7.333  0.1079E+01  0.5044E+03
      7.434  0.3900E+01  0.5100E+03
      7.534  0.2943E+01  0.5139E+03
      7.635  0.6655E+01  0.5186E+03
      7.735  0.4971E+01  0.5235E+03
      7.836  0.2949E+01  0.5284E+03
      7.937  0.4485E+01  0.5342E+03
      8.037  0.4914E+01  0.5399E+03
      8.138  0.4555E+01  0.5456E+03
      8.238  0.7074E+01  0.5503E+03
      8.339  0.2983E+01  0.5555E+03
      8.440  0.2508E+01  0.5614E+03
      8.540  0.2555E+01  0.5675E+03
      8.641  0.4050E+01  0.5733E+03
      8.742  0.6718E+01  0.5795E+03
      8.842  0.3354E+01  0.5846E+03
      8.943  0.4791E+01  0.5920E+03
      9.043  0.2283E+01  0.5960E+03
      9.144  0.1957E+01  0.5985E+03
      9.245  0.1104E+01  0.5999E+03
      9.345  0.0000E+00  0.6000E+03
      9.446  0.0000E+00  0.6000E+03
      9.546  0.0000E+00  0.6000E+03
      9.647  0.0000E+00  0.6000E+03
      9.748  0.0000E+00  0.6000E+03
      9.848  0.0000E+00  0.6000E+03
      9.949  0.0000E+00  0.6000E+03
     10.049  0.0000E+00  0.6000E+03
     10.150  0.0000E+00  0.6000E+03
     10.251  0.0000E+00  0.6000E+03
     10.351  0.0000E+00  0.6000E+03
     10.452  0.0000E+00  0.6000E+03
     10.552  0.0000E+00  0.6000E+03
     10.653  0.0000E+00  0.6000E+03
