 vasp.5.4.1 24Jun15 (build Nov 25 2015 16:39:35) complex                        
  
 executed on         CrayXC-Intel date 2016.06.22  00:47:57
 running on  192 total cores
 distrk:  each k-point on  192 cores,    1 groups
 distr:  one band on NCORES_PER_BAND=  24 cores,    8 groups


--------------------------------------------------------------------------------------------------------


 INCAR:
 POTCAR:    PAW_PBE C 08Apr2002                   
 POTCAR:    PAW_PBE N 08Apr2002                   
 POTCAR:    PAW_PBE H 15Jun2001                   
 POTCAR:    PAW_PBE Pb_d 06Sep2000                
 POTCAR:    PAW_PBE I 08Apr2002                   
 POTCAR:    PAW_PBE C 08Apr2002                   
   VRHFIN =C: s2p2                                                              
   LEXCH  = PE                                                                  
   EATOM  =   147.1560 eV,   10.8157 Ry                                         
                                                                                
   TITEL  = PAW_PBE C 08Apr2002                                                 
   LULTRA =        F    use ultrasoft PP ?                                      
   IUNSCR =        1    unscreen: 0-lin 1-nonlin 2-no                           
   RPACOR =    1.200    partial core radius                                     
   POMASS =   12.011; ZVAL   =    4.000    mass and valenz                      
   RCORE  =    1.500    outmost cutoff radius                                   
   RWIGS  =    1.630; RWIGS  =    0.863    wigner-seitz radius (au A)           
   ENMAX  =  400.000; ENMIN  =  300.000 eV                                      
   ICORE  =        2    local potential                                         
   LCOR   =        T    correct aug charges                                     
   LPAW   =        T    paw PP                                                  
   EAUG   =  644.873                                                            
   DEXC   =    0.000                                                            
   RMAX   =    1.529    core radius for proj-oper                               
   RAUG   =    1.300    factor for augmentation sphere                          
   RDEP   =    1.501    radius for radial grids                                 
   RDEPT  =    1.300    core radius for aug-charge                              
                                                                                
   Atomic configuration                                                         
    4 entries                                                                   
     n  l   j            E        occ.                                          
     1  0  0.50      -273.3789   2.0000                                         
     2  0  0.50       -13.7508   2.0000                                         
     2  1  0.50        -5.2854   2.0000                                         
     3  2  1.50        -5.4423   0.0000                                         
   Description                                                                  
     l       E           TYP  RCUT    TYP  RCUT                                 
     0    -13.7508458     23  1.200                                             
     0     -8.2022199     23  1.200                                             
     1     -5.2854383     23  1.500                                             
     1     34.0145650     23  1.500                                             
     2     -5.4423304      7  1.500                                             
  local pseudopotential read in
  partial core-charges read in
  partial kinetic energy density read in
  atomic valenz-charges read in
  non local Contribution for L=           0  read in
    real space projection operators read in
  non local Contribution for L=           0  read in
    real space projection operators read in
  non local Contribution for L=           1  read in
    real space projection operators read in
  non local Contribution for L=           1  read in
    real space projection operators read in
    PAW grid and wavefunctions read in
 
   number of l-projection  operators is LMAX  =           4
   number of lm-projection operators is LMMAX =           8
 
 POTCAR:    PAW_PBE N 08Apr2002                   
   VRHFIN =N: s2p3                                                              
   LEXCH  = PE                                                                  
   EATOM  =   264.5486 eV,   19.4438 Ry                                         
                                                                                
   TITEL  = PAW_PBE N 08Apr2002                                                 
   LULTRA =        F    use ultrasoft PP ?                                      
   IUNSCR =        1    unscreen: 0-lin 1-nonlin 2-no                           
   RPACOR =    1.200    partial core radius                                     
   POMASS =   14.001; ZVAL   =    5.000    mass and valenz                      
   RCORE  =    1.500    outmost cutoff radius                                   
   RWIGS  =    1.400; RWIGS  =    0.741    wigner-seitz radius (au A)           
   ENMAX  =  400.000; ENMIN  =  300.000 eV                                      
   ICORE  =        2    local potential                                         
   LCOR   =        T    correct aug charges                                     
   LPAW   =        T    paw PP                                                  
   EAUG   =  627.112                                                            
   DEXC   =    0.000                                                            
   RMAX   =    1.529    core radius for proj-oper                               
   RAUG   =    1.300    factor for augmentation sphere                          
   RDEP   =    1.514    radius for radial grids                                 
   RDEPT  =    1.338    core radius for aug-charge                              
                                                                                
   Atomic configuration                                                         
    4 entries                                                                   
     n  l   j            E        occ.                                          
     1  0  0.50      -384.7179   2.0000                                         
     2  0  0.50       -18.5828   2.0000                                         
     2  1  0.50        -7.0898   3.0000                                         
     3  2  1.50        -6.8029   0.0000                                         
   Description                                                                  
     l       E           TYP  RCUT    TYP  RCUT                                 
     0    -18.5828119     23  1.200                                             
     0    -13.5018863     23  1.200                                             
     1     -7.0897853     23  1.500                                             
     1      9.5240782     23  1.500                                             
     2     -6.8029130      7  1.500                                             
  local pseudopotential read in
  partial core-charges read in
  partial kinetic energy density read in
  atomic valenz-charges read in
  non local Contribution for L=           0  read in
    real space projection operators read in
  non local Contribution for L=           0  read in
    real space projection operators read in
  non local Contribution for L=           1  read in
    real space projection operators read in
  non local Contribution for L=           1  read in
    real space projection operators read in
    PAW grid and wavefunctions read in
 
   number of l-projection  operators is LMAX  =           4
   number of lm-projection operators is LMMAX =           8
 
 POTCAR:    PAW_PBE H 15Jun2001                   
   VRHFIN =H: ultrasoft test                                                    
   LEXCH  = PE                                                                  
   EATOM  =    12.4884 eV,    0.9179 Ry                                         
                                                                                
   TITEL  = PAW_PBE H 15Jun2001                                                 
   LULTRA =        F    use ultrasoft PP ?                                      
   IUNSCR =        0    unscreen: 0-lin 1-nonlin 2-no                           
   RPACOR =    0.000    partial core radius                                     
   POMASS =    1.000; ZVAL   =    1.000    mass and valenz                      
   RCORE  =    1.100    outmost cutoff radius                                   
   RWIGS  =    0.700; RWIGS  =    0.370    wigner-seitz radius (au A)           
   ENMAX  =  250.000; ENMIN  =  200.000 eV                                      
   RCLOC  =    0.701    cutoff for local pot                                    
   LCOR   =        T    correct aug charges                                     
   LPAW   =        T    paw PP                                                  
   EAUG   =  400.000                                                            
   RMAX   =    1.123    core radius for proj-oper                               
   RAUG   =    1.200    factor for augmentation sphere                          
   RDEP   =    1.112    radius for radial grids                                 
   RDEPT  =    0.926    core radius for aug-charge                              
                                                                                
   Atomic configuration                                                         
    2 entries                                                                   
     n  l   j            E        occ.                                          
     1  0  0.50        -6.4927   1.0000                                         
     2  1  0.50        -3.4015   0.0000                                         
   Description                                                                  
     l       E           TYP  RCUT    TYP  RCUT                                 
     0     -6.4927494     23  1.100                                             
     0      6.8029130     23  1.100                                             
     1     -4.0817478     23  1.100                                             
  local pseudopotential read in
  atomic valenz-charges read in
  non local Contribution for L=           0  read in
    real space projection operators read in
  non local Contribution for L=           0  read in
    real space projection operators read in
  non local Contribution for L=           1  read in
    real space projection operators read in
    PAW grid and wavefunctions read in
 
   number of l-projection  operators is LMAX  =           3
   number of lm-projection operators is LMMAX =           5
 
 POTCAR:    PAW_PBE Pb_d 06Sep2000                
   VRHFIN =Pb:                                                                  
   LEXCH  = PE                                                                  
   EATOM  =  1661.6185 eV,  122.1255 Ry                                         
                                                                                
   TITEL  = PAW_PBE Pb_d 06Sep2000                                              
   LULTRA =        F    use ultrasoft PP ?                                      
   IUNSCR =        1    unscreen: 0-lin 1-nonlin 2-no                           
   RPACOR =    2.200    partial core radius                                     
   POMASS =  207.200; ZVAL   =   14.000    mass and valenz                      
   RCORE  =    2.500    outmost cutoff radius                                   
   RWIGS  =    3.260; RWIGS  =    1.725    wigner-seitz radius (au A)           
   ENMAX  =  237.835; ENMIN  =  178.376 eV                                      
   ICORE  =        3    local potential                                         
   LCOR   =        T    correct aug charges                                     
   LPAW   =        T    paw PP                                                  
   EAUG   =  391.914                                                            
   DEXC   =    0.000                                                            
   RMAX   =    2.565    core radius for proj-oper                               
   RAUG   =    1.300    factor for augmentation sphere                          
   RDEP   =    2.643    radius for radial grids                                 
   RDEPT  =    2.092    core radius for aug-charge                              
                                                                                
   Atomic configuration                                                         
   16 entries                                                                   
     n  l   j            E        occ.                                          
     1  0  0.50    -88091.8466   2.0000                                         
     2  0  0.50    -15753.4197   2.0000                                         
     2  1  1.50    -13508.1797   6.0000                                         
     3  0  0.50     -3781.7194   2.0000                                         
     3  1  1.50     -3138.2529   6.0000                                         
     3  2  2.50     -2483.2977  10.0000                                         
     4  0  0.50      -856.2895   2.0000                                         
     4  1  1.50      -645.4942   6.0000                                         
     4  2  2.50      -401.8768  10.0000                                         
     4  3  3.50      -132.9059  14.0000                                         
     5  0  0.50      -144.0950   2.0000                                         
     5  1  1.50       -85.7879   6.0000                                         
     5  2  2.50       -21.1769  10.0000                                         
     6  0  0.50       -12.0372   2.0000                                         
     6  1  1.50        -3.4971   2.0000                                         
     5  3  2.50        -2.7212   0.0000                                         
   Description                                                                  
     l       E           TYP  RCUT    TYP  RCUT                                 
     2    -21.1768523     23  2.500                                             
     2      1.3605826     23  2.500                                             
     0    -12.0371562     23  2.500                                             
     0     13.6058260     23  2.500                                             
     1     -3.4971339     23  2.500                                             
     1     13.6058260     23  2.500                                             
     3     -1.3605826      7  2.500                                             
  local pseudopotential read in
  partial core-charges read in
  partial kinetic energy density read in
  atomic valenz-charges read in
  non local Contribution for L=           2  read in
    real space projection operators read in
  non local Contribution for L=           2  read in
    real space projection operators read in
  non local Contribution for L=           0  read in
    real space projection operators read in
  non local Contribution for L=           0  read in
    real space projection operators read in
  non local Contribution for L=           1  read in
    real space projection operators read in
  non local Contribution for L=           1  read in
    real space projection operators read in
    PAW grid and wavefunctions read in
 
   number of l-projection  operators is LMAX  =           6
   number of lm-projection operators is LMMAX =          18
 
 POTCAR:    PAW_PBE I 08Apr2002                   
   VRHFIN =I : s2p5                                                             
   LEXCH  = PE                                                                  
   EATOM  =   315.8678 eV,   23.2156 Ry                                         
                                                                                
   TITEL  = PAW_PBE I 08Apr2002                                                 
   LULTRA =        F    use ultrasoft PP ?                                      
   IUNSCR =        1    unscreen: 0-lin 1-nonlin 2-no                           
   RPACOR =    2.200    partial core radius                                     
   POMASS =  126.904; ZVAL   =    7.000    mass and valenz                      
   RCORE  =    2.300    outmost cutoff radius                                   
   RWIGS  =    2.810; RWIGS  =    1.487    wigner-seitz radius (au A)           
   ENMAX  =  175.647; ENMIN  =  131.735 eV                                      
   ICORE  =        3    local potential                                         
   LCOR   =        T    correct aug charges                                     
   LPAW   =        T    paw PP                                                  
   EAUG   =  370.139                                                            
   DEXC   =    0.000                                                            
   RMAX   =    2.359    core radius for proj-oper                               
   RAUG   =    1.300    factor for augmentation sphere                          
   RDEP   =    2.392    radius for radial grids                                 
   RDEPT  =    2.170    core radius for aug-charge                              
                                                                                
   Atomic configuration                                                         
   13 entries                                                                   
     n  l   j            E        occ.                                          
     1  0  0.50    -32976.3739   2.0000                                         
     2  0  0.50     -5094.5933   2.0000                                         
     2  1  1.50     -4572.0131   6.0000                                         
     3  0  0.50     -1028.2813   2.0000                                         
     3  1  1.50      -859.0250   6.0000                                         
     3  2  2.50      -605.7620  10.0000                                         
     4  0  0.50      -180.5540   2.0000                                         
     4  1  1.50      -127.5306   6.0000                                         
     4  2  2.50       -50.2720  10.0000                                         
     5  0  0.50       -17.4058   2.0000                                         
     5  1  0.50        -7.0851   5.0000                                         
     5  2  1.50        -7.0750   0.0000                                         
     4  3  2.50        -7.0750   0.0000                                         
   Description                                                                  
     l       E           TYP  RCUT    TYP  RCUT                                 
     0    -17.4058016     23  2.300                                             
     0    -18.7663842     23  2.300                                             
     1     -7.0850686     23  2.300                                             
     1     -4.2150896     23  2.300                                             
     2     -7.0750295     23  2.300                                             
     3     -1.3605826     23  2.300                                             
  local pseudopotential read in
  partial core-charges read in
  partial kinetic energy density read in
  atomic valenz-charges read in
  non local Contribution for L=           0  read in
    real space projection operators read in
  non local Contribution for L=           0  read in
    real space projection operators read in
  non local Contribution for L=           1  read in
    real space projection operators read in
  non local Contribution for L=           1  read in
    real space projection operators read in
  non local Contribution for L=           2  read in
    real space projection operators read in
    PAW grid and wavefunctions read in
 
   number of l-projection  operators is LMAX  =           5
   number of lm-projection operators is LMMAX =          13
 

 ----------------------------------------------------------------------------- 
|                                                                             |
|  ADVICE TO THIS USER RUNNING 'VASP/VAMP'   (HEAR YOUR MASTER'S VOICE ...):  |
|                                                                             |
|      You have a (more or less) 'large supercell' and for larger cells       |
|      it might be more efficient to use real space projection opertators     |
|      So try LREAL= Auto  in the INCAR   file.                               |
|      Mind: At the moment your POTCAR file does not contain real space       |
|       projectors, and has to be modified,  BUT if you                       |
|      want to do an extremely  accurate calculation you might also keep the  |
|      reciprocal projection scheme          (i.e. LREAL=.FALSE.)             |
|                                                                             |
 ----------------------------------------------------------------------------- 


 ----------------------------------------------------------------------------- 
|                                                                             |
|  ADVICE TO THIS USER RUNNING 'VASP/VAMP'   (HEAR YOUR MASTER'S VOICE ...):  |
|                                                                             |
|      You enforced a specific xc-type in the INCAR file,                     |
|      a different type was found on the POTCAR file                          |
|          I HOPE YOU KNOW, WHAT YOU ARE  DOING                               |
|                                                                             |
 ----------------------------------------------------------------------------- 

  PAW_PBE C 08Apr2002                   :
 energy of atom  1       EATOM= -147.1560
 kinetic energy error for atom=    0.0032 (will be added to EATOM!!)
  PAW_PBE N 08Apr2002                   :
 energy of atom  2       EATOM= -264.5486
 kinetic energy error for atom=    0.0061 (will be added to EATOM!!)
  PAW_PBE H 15Jun2001                   :
 energy of atom  3       EATOM=  -12.4884
 kinetic energy error for atom=    0.0002 (will be added to EATOM!!)
  PAW_PBE Pb_d 06Sep2000                :
 energy of atom  4       EATOM=-1661.6185
 kinetic energy error for atom=    0.0012 (will be added to EATOM!!)
  PAW_PBE I 08Apr2002                   :
 energy of atom  5       EATOM= -315.8678
 kinetic energy error for atom=    0.0003 (will be added to EATOM!!)
 
 
 POSCAR: C N H Pb I                              
  positions in direct lattice
  No initial velocities read in
 exchange correlation table for  LEXCH =       14
   RHO(1)=    0.500       N(1)  =     2000
   RHO(2)=  100.500       N(2)  =     4000
 


--------------------------------------------------------------------------------------------------------


 ion  position               nearest neighbor table
   1  0.198  0.250  0.229-  25 1.10  33 1.10  17 1.11   9 1.49
   2  0.696  0.250  0.229-  26 1.10  34 1.10  18 1.11  10 1.49
   3  0.196  0.750  0.229-  27 1.10  35 1.10  19 1.11  11 1.49
   4  0.698  0.750  0.229-  28 1.10  36 1.10  20 1.11  12 1.49
   5  0.196  0.250  0.729-  29 1.10  37 1.10  21 1.11  13 1.49
   6  0.698  0.250  0.729-  30 1.10  38 1.10  22 1.11  14 1.49
   7  0.198  0.750  0.729-  31 1.10  39 1.10  23 1.11  15 1.49
   8  0.696  0.750  0.729-  32 1.10  40 1.10  24 1.11  16 1.49
   9  0.312  0.250  0.259-  41 1.05  49 1.05  57 1.06   1 1.49
  10  0.797  0.250  0.289-  58 1.05  42 1.05  50 1.05   2 1.49
  11  0.297  0.750  0.289-  59 1.05  43 1.05  51 1.05   3 1.49
  12  0.812  0.750  0.259-  44 1.05  52 1.05  60 1.06   4 1.49
  13  0.297  0.250  0.789-  61 1.05  45 1.05  53 1.05   5 1.49
  14  0.812  0.250  0.759-  46 1.05  54 1.05  62 1.06   6 1.49
  15  0.312  0.750  0.759-  47 1.05  55 1.05  63 1.06   7 1.49
  16  0.797  0.750  0.789-  64 1.05  48 1.05  56 1.05   8 1.49
  17  0.194  0.250  0.142-   1 1.11
  18  0.716  0.250  0.144-   2 1.11
  19  0.216  0.750  0.144-   3 1.11
  20  0.694  0.750  0.142-   4 1.11
  21  0.216  0.250  0.644-   5 1.11
  22  0.694  0.250  0.642-   6 1.11
  23  0.194  0.750  0.642-   7 1.11
  24  0.716  0.750  0.644-   8 1.11
  25  0.158  0.322  0.261-   1 1.10
  26  0.650  0.323  0.250-   2 1.10
  27  0.150  0.823  0.250-   3 1.10
  28  0.658  0.822  0.261-   4 1.10
  29  0.150  0.323  0.750-   5 1.10
  30  0.658  0.322  0.761-   6 1.10
  31  0.158  0.822  0.761-   7 1.10
  32  0.650  0.823  0.750-   8 1.10
  33  0.159  0.177  0.261-   1 1.10
  34  0.650  0.177  0.251-   2 1.10
  35  0.150  0.677  0.251-   3 1.10
  36  0.659  0.677  0.261-   4 1.10
  37  0.150  0.177  0.751-   5 1.10
  38  0.659  0.177  0.761-   6 1.10
  39  0.159  0.677  0.761-   7 1.10
  40  0.650  0.677  0.751-   8 1.10
  41  0.353  0.318  0.230-   9 1.05
  42  0.844  0.318  0.271-  10 1.05
  43  0.344  0.818  0.271-  11 1.05
  44  0.853  0.818  0.230-  12 1.05
  45  0.344  0.318  0.771-  13 1.05
  46  0.853  0.318  0.730-  14 1.05
  47  0.353  0.818  0.730-  15 1.05
  48  0.844  0.818  0.771-  16 1.05
  49  0.353  0.182  0.230-   9 1.05
  50  0.844  0.182  0.271-  10 1.05
  51  0.344  0.682  0.271-  11 1.05
  52  0.853  0.682  0.230-  12 1.05
  53  0.344  0.182  0.771-  13 1.05
  54  0.853  0.182  0.730-  14 1.05
  55  0.353  0.682  0.730-  15 1.05
  56  0.844  0.682  0.771-  16 1.05
  57  0.323  0.250  0.341-   9 1.06
  58  0.783  0.250  0.370-  10 1.05
  59  0.283  0.750  0.370-  11 1.05
  60  0.823  0.750  0.341-  12 1.06
  61  0.283  0.250  0.870-  13 1.05
  62  0.823  0.250  0.841-  14 1.06
  63  0.323  0.750  0.841-  15 1.06
  64  0.783  0.750  0.870-  16 1.05
  65  0.472  0.498  0.489-  90 3.10  87 3.15  77 3.17  85 3.17  73 3.22  89 3.28
  66  0.972  0.502  0.489-  89 3.10  86 3.15  88 3.17  78 3.17  74 3.22  90 3.28
  67  0.472  0.002  0.489-  92 3.10  87 3.15  85 3.17  79 3.17  75 3.22  91 3.28
  68  0.972  0.998  0.489-  91 3.10  86 3.15  80 3.17  88 3.17  76 3.22  92 3.28
  69  0.472  0.502  0.989-  94 3.10  81 3.15  83 3.17  73 3.17  77 3.22  93 3.28
  70  0.972  0.498  0.989-  93 3.10  84 3.15  74 3.17  82 3.17  78 3.22  94 3.28
  71  0.472  0.998  0.989-  96 3.10  81 3.15  75 3.17  83 3.17  79 3.22  95 3.28
  72  0.972  0.002  0.989-  95 3.10  84 3.15  82 3.17  76 3.17  80 3.22  96 3.28
  73  0.455  0.504  0.238-  69 3.17  65 3.22
  74  0.955  0.496  0.238-  70 3.17  66 3.22
  75  0.455  0.996  0.238-  71 3.17  67 3.22
  76  0.955  0.004  0.238-  72 3.17  68 3.22
  77  0.455  0.496  0.738-  65 3.17  69 3.22
  78  0.955  0.504  0.738-  66 3.17  70 3.22
  79  0.455  0.004  0.738-  67 3.17  71 3.22
  80  0.955  0.996  0.738-  68 3.17  72 3.22
  81  0.480  0.250  0.010-  71 3.15  69 3.15
  82  0.920  0.250  0.013-  72 3.17  70 3.17
  83  0.420  0.750  0.013-  69 3.17  71 3.17
  84  0.980  0.750  0.010-  70 3.15  72 3.15
  85  0.420  0.250  0.513-  67 3.17  65 3.17
  86  0.980  0.250  0.510-  68 3.15  66 3.15
  87  0.480  0.750  0.510-  65 3.15  67 3.15
  88  0.920  0.750  0.513-  66 3.17  68 3.17
  89  0.216  0.534  0.461-  66 3.10  65 3.28
  90  0.716  0.466  0.461-  65 3.10  66 3.28
  91  0.216  0.966  0.461-  68 3.10  67 3.28
  92  0.716  0.034  0.461-  67 3.10  68 3.28
  93  0.216  0.466  0.961-  70 3.10  69 3.28
  94  0.716  0.534  0.961-  69 3.10  70 3.28
  95  0.216  0.034  0.961-  72 3.10  71 3.28
  96  0.716  0.966  0.961-  71 3.10  72 3.28
 
  LATTYP: Found a triclinic cell.
 ALAT       =    17.8238589327
 B/A-ratio  =     0.6989248630
 C/A-ratio  =     1.0156975818
 COS(alpha) =     0.0001355172
 COS(beta)  =     0.5146378593
 COS(gamma) =     0.6988877578
  
  Lattice vectors:
  
 A1 = (  -0.1406063366, -12.4576271275, -12.7466742118)
 A2 = (  -0.0011956322, -12.4575380825,   0.0007464135)
 A3 = ( -12.7162481321,  -0.0020049566, -12.8856194186)


Analysis of symmetry for initial positions (statically):
=====================================================================
 Subroutine PRICEL returns following result:
 
  LATTYP: Found a triclinic cell.
 ALAT       =     8.8524544993
 B/A-ratio  =     1.4072411401
 C/A-ratio  =     1.0225215175
 COS(alpha) =     0.0001355172
 COS(beta)  =     0.5046167836
 COS(gamma) =     0.7037964938
  
  Lattice vectors:
  
 A1 = (   6.2890165300,   6.2297269971,   0.0687261899)
 A2 = (   0.0011956322,  12.4575380825,  -0.0007464135)
 A3 = (   6.3581240661,   0.0010024783,   6.4428097093)
 
   4 primitive cells build up your supercell.
 

 Routine SETGRP: Setting up the symmetry group for a 
 triclinic supercell.


 Subroutine GETGRP returns: Found  1 space group operations
 (whereof  1 operations were pure point group operations)
 out of a pool of  2 trial point group operations.


The static configuration has the point symmetry C_1 .


Analysis of symmetry for dynamics (positions and initial velocities):
=====================================================================
 Subroutine PRICEL returns following result:
 
  LATTYP: Found a triclinic cell.
 ALAT       =     8.8524544993
 B/A-ratio  =     1.4072411401
 C/A-ratio  =     1.0225215175
 COS(alpha) =     0.0001355172
 COS(beta)  =     0.5046167836
 COS(gamma) =     0.7037964938
  
  Lattice vectors:
  
 A1 = (   6.2890165300,   6.2297269971,   0.0687261899)
 A2 = (   0.0011956322,  12.4575380825,  -0.0007464135)
 A3 = (   6.3581240661,   0.0010024783,   6.4428097093)
 
   4 primitive cells build up your supercell.
 

 Routine SETGRP: Setting up the symmetry group for a 
 triclinic supercell.


 Subroutine GETGRP returns: Found  1 space group operations
 (whereof  1 operations were pure point group operations)
 out of a pool of  2 trial point group operations.


The dynamic configuration has the point symmetry C_1 .


Analysis of structural, dynamic, and magnetic symmetry:
=====================================================================
 Subroutine PRICEL returns following result:
 
  LATTYP: Found a triclinic cell.
 ALAT       =     8.8524544993
 B/A-ratio  =     1.4072411401
 C/A-ratio  =     1.0225215175
 COS(alpha) =     0.0001355172
 COS(beta)  =     0.5046167836
 COS(gamma) =     0.7037964938
  
  Lattice vectors:
  
 A1 = (   6.2890165300,   6.2297269971,   0.0687261899)
 A2 = (   0.0011956322,  12.4575380825,  -0.0007464135)
 A3 = (   6.3581240661,   0.0010024783,   6.4428097093)
 
   4 primitive cells build up your supercell.
 

 Routine SETGRP: Setting up the symmetry group for a 
 triclinic supercell.


 Subroutine GETGRP returns: Found  1 space group operations
 (whereof  1 operations were pure point group operations)
 out of a pool of  2 trial point group operations.


The (compounded) configuration has the point symmetry C_1 .


 Subroutine INISYM returns: Found  1 space group operations
 (whereof  1 operations are pure point group operations),
 and found     4 'primitive' translations

 
 
 KPOINTS: Automatic 3x3x3                         

Automatic generation of k-mesh.
Space group operators:
 irot       det(A)        alpha          n_x          n_y          n_z        tau_x        tau_y        tau_z
    1     1.000000     0.000000     1.000000     0.000000     0.000000     0.000000     0.000000     0.000000
 
 Subroutine IBZKPT returns following result:
 ===========================================
 
 Found     27 irreducible k-points:
 
 Following reciprocal coordinates:
            Coordinates               Weight
  0.000000  0.000000  0.000000      1.000000
  0.333333 -0.000000 -0.000000      1.000000
 -0.333333  0.000000  0.000000      1.000000
  0.000000  0.333333 -0.000000      1.000000
  0.333333  0.333333  0.000000      1.000000
 -0.333333  0.333333  0.000000      1.000000
 -0.000000 -0.333333  0.000000      1.000000
  0.333333 -0.333333 -0.000000      1.000000
 -0.333333 -0.333333 -0.000000      1.000000
  0.000000  0.000000  0.333333      1.000000
  0.333333  0.000000  0.333333      1.000000
 -0.333333  0.000000  0.333333      1.000000
  0.000000  0.333333  0.333333      1.000000
  0.333333  0.333333  0.333333      1.000000
 -0.333333  0.333333  0.333333      1.000000
  0.000000 -0.333333  0.333333      1.000000
  0.333333 -0.333333  0.333333      1.000000
 -0.333333 -0.333333  0.333333      1.000000
  0.000000  0.000000 -0.333333      1.000000
  0.333333 -0.000000 -0.333333      1.000000
 -0.333333 -0.000000 -0.333333      1.000000
 -0.000000  0.333333 -0.333333      1.000000
  0.333333  0.333333 -0.333333      1.000000
 -0.333333  0.333333 -0.333333      1.000000
 -0.000000 -0.333333 -0.333333      1.000000
  0.333333 -0.333333 -0.333333      1.000000
 -0.333333 -0.333333 -0.333333      1.000000
 
 Following cartesian coordinates:
            Coordinates               Weight
  0.000000  0.000000  0.000000      1.000000
  0.026507 -0.000003 -0.000290      1.000000
 -0.026507  0.000003  0.000290      1.000000
 -0.000004  0.026758 -0.000000      1.000000
  0.026503  0.026755 -0.000290      1.000000
 -0.026511  0.026760  0.000290      1.000000
  0.000004 -0.026758  0.000000      1.000000
  0.026511 -0.026760 -0.000290      1.000000
 -0.026503 -0.026755  0.000290      1.000000
 -0.000287  0.000002  0.026152      1.000000
  0.026220 -0.000001  0.025862      1.000000
 -0.026794  0.000004  0.026442      1.000000
 -0.000291  0.026759  0.026152      1.000000
  0.026215  0.026757  0.025862      1.000000
 -0.026798  0.026762  0.026442      1.000000
 -0.000283 -0.026756  0.026152      1.000000
  0.026224 -0.026759  0.025862      1.000000
 -0.026790 -0.026753  0.026442      1.000000
  0.000287 -0.000002 -0.026152      1.000000
  0.026794 -0.000004 -0.026442      1.000000
 -0.026220  0.000001 -0.025862      1.000000
  0.000283  0.026756 -0.026152      1.000000
  0.026790  0.026753 -0.026442      1.000000
 -0.026224  0.026759 -0.025862      1.000000
  0.000291 -0.026759 -0.026152      1.000000
  0.026798 -0.026762 -0.026442      1.000000
 -0.026215 -0.026757 -0.025862      1.000000
 


--------------------------------------------------------------------------------------------------------




 Dimension of arrays:
   k-points           NKPTS =     27   k-points in BZ     NKDIM =     27   number of bands    NBANDS=    600
   number of dos      NEDOS =    301   number of ions     NIONS =     96
   non local maximal  LDIM  =      6   non local SUM 2l+1 LMDIM =     18
   total plane-waves  NPLWV = ******
   max r-space proj   IRMAX =      1   max aug-charges    IRDMAX= 314103
   dimension x,y,z NGX =   112 NGY =  108 NGZ =  112
   dimension x,y,z NGXF=   224 NGYF=  216 NGZF=  224
   support grid    NGXF=   448 NGYF=  432 NGZF=  448
   ions per type =               8   8  48   8  24
 NGX,Y,Z   is equivalent  to a cutoff of  14.80, 14.41, 14.61 a.u.
 NGXF,Y,Z  is equivalent  to a cutoff of  29.61, 28.83, 29.21 a.u.


 I would recommend the setting:
   dimension x,y,z NGX =   109 NGY =  107 NGZ =  110
 SYSTEM =  MAPbI3-Cubic                            
 POSCAR =  C N H Pb I                              

 Startparameter for this run:
   NWRITE =      2    write-flag & timer
   PREC   = accura    normal or accurate (medium, high low for compatibility)
   ISTART =      0    job   : 0-new  1-cont  2-samecut
   ICHARG =      2    charge: 1-file 2-atom 10-const
   ISPIN  =      1    spin polarized calculation?
   LNONCOLLINEAR =      T non collinear calculations
   LSORBIT =      T    spin-orbit coupling
   INIWAV =      1    electr: 0-lowe 1-rand  2-diag
   LASPH  =      F    aspherical Exc in radial PAW
   METAGGA=      F    non-selfconsistent MetaGGA calc.

 Electronic Relaxation 1
   ENCUT  =  700.0 eV  51.45 Ry    7.17 a.u.  27.13 26.87 27.50*2*pi/ulx,y,z
   ENINI  =  700.0     initial cutoff
   ENAUG  =  644.9 eV  augmentation charge cutoff
   NELM   =     60;   NELMIN=  2; NELMDL= -5     # of ELM steps 
   EDIFF  = 0.1E-07   stopping-criterion for ELM
   LREAL  =      F    real-space projection
   NLSPLINE    = F    spline interpolate recip. space projectors
   LCOMPAT=      F    compatible to vasp.4.4
   GGA_COMPAT  = T    GGA compatible to vasp.4.4-vasp.4.6
   LMAXPAW     = -100 max onsite density
   LMAXMIX     =    2 max onsite mixed and CHGCAR
   VOSKOWN=      0    Vosko Wilk Nusair interpolation
   ROPT   =    0.00000   0.00000   0.00000   0.00000
   ROPT   =    0.00000
 Ionic relaxation
   EDIFFG = 0.1E-06   stopping-criterion for IOM
   NSW    =      0    number of steps for IOM
   NBLOCK =      1;   KBLOCK =      1    inner block; outer block 
   IBRION =     -1    ionic relax: 0-MD 1-quasi-New 2-CG
   NFREE  =      0    steps in history (QN), initial steepest desc. (CG)
   ISIF   =      2    stress and relaxation
   IWAVPR =     10    prediction:  0-non 1-charg 2-wave 3-comb
   ISYM   =      2    0-nonsym 1-usesym 2-fastsym
   LCORR  =      T    Harris-Foulkes like correction to forces

   POTIM  = 0.5000    time-step for ionic-motion
   TEIN   =    0.0    initial temperature
   TEBEG  =    0.0;   TEEND  =   0.0 temperature during run
   SMASS  =  -3.00    Nose mass-parameter (am)
   estimated Nose-frequenzy (Omega)   =  0.10E-29 period in steps =****** mass=  -0.362E-26a.u.
   SCALEE = 1.0000    scale energy and forces
   NPACO  =    256;   APACO  = 16.0  distance and # of slots for P.C.
   PSTRESS=    0.0 pullay stress

  Mass of Ions in am
   POMASS =  12.01 14.00  1.00207.20126.90
  Ionic Valenz
   ZVAL   =   4.00  5.00  1.00 14.00  7.00
  Atomic Wigner-Seitz radii
   RWIGS  =  -1.00 -1.00 -1.00 -1.00 -1.00
  virtual crystal weights 
   VCA    =   1.00  1.00  1.00  1.00  1.00
   NELECT =     400.0000    total number of electrons
   NUPDOWN=      -1.0000    fix difference up-down

 DOS related values:
   EMIN   =  10.00;   EMAX   =-10.00  energy-range for DOS
   EFERMI =   0.00
   ISMEAR =     0;   SIGMA  =   0.00  broadening in eV -4-tet -1-fermi 0-gaus

 Electronic relaxation 2 (details)
   IALGO  =     38    algorithm
   LDIAG  =      T    sub-space diagonalisation (order eigenvalues)
   LSUBROT=      F    optimize rotation matrix (better conditioning)
   TURBO    =      0    0=normal 1=particle mesh
   IRESTART =      0    0=no restart 2=restart with 2 vectors
   NREBOOT  =      0    no. of reboots
   NMIN     =      0    reboot dimension
   EREF     =   0.00    reference energy to select bands
   IMIX   =      4    mixing-type and parameters
     AMIX     =   0.40;   BMIX     =  1.00
     AMIX_MAG =   1.60;   BMIX_MAG =  1.00
     AMIN     =   0.10
     WC   =   100.;   INIMIX=   1;  MIXPRE=   1;  MAXMIX= -45

 Intra band minimization:
   WEIMIN = 0.0000     energy-eigenvalue tresh-hold
   EBREAK =  0.42E-11  absolut break condition
   DEPER  =   0.30     relativ break condition  

   TIME   =   0.40     timestep for ELM

  volume/ion in A,a.u.               =      20.80       140.38
  Fermi-wavevector in a.u.,A,eV,Ry     =   0.957863  1.810099 12.483376  0.917502
  Thomas-Fermi vector in A             =   2.086919
 
 Write flags
   LWAVE  =      F    write WAVECAR
   LCHARG =      F    write CHGCAR
   LVTOT  =      F    write LOCPOT, total local potential
   LVHAR  =      F    write LOCPOT, Hartree potential only
   LELF   =      F    write electronic localiz. function (ELF)
   LORBIT =      0    0 simple, 1 ext, 2 COOP (PROOUT)


 Dipole corrections
   LMONO  =      F    monopole corrections only (constant potential shift)
   LDIPOL =      F    correct potential (dipole corrections)
   IDIPOL =      0    1-x, 2-y, 3-z, 4-all directions 
   EPSILON=  1.0000000 bulk dielectric constant

 Core level calculations are selected ICORELEVEL =  1
 Exchange correlation treatment:
   GGA     =    PS    GGA type
   LEXCH   =    14    internal setting for exchange type
   VOSKOWN=      0    Vosko Wilk Nusair interpolation
   LHFCALC =     F    Hartree Fock is set to
   LHFONE  =     F    Hartree Fock one center treatment
   AEXX    =    0.0000 exact exchange contribution

 Linear response parameters
   LEPSILON=     F    determine dielectric tensor
   LRPA    =     F    only Hartree local field effects (RPA)
   LNABLA  =     F    use nabla operator in PAW spheres
   LVEL    =     F    velocity operator in full k-point grid
   LINTERFAST=   F  fast interpolation
   KINTER  =     0    interpolate to denser k-point grid
   CSHIFT  =0.1000    complex shift for real part using Kramers Kronig
   OMEGAMAX=  -1.0    maximum frequency
   DEG_THRESHOLD= 0.2000000E-02 threshold for treating states as degnerate
   RTIME   =    0.100 relaxation time in fs

 Orbital magnetization related:
   ORBITALMAG=     F  switch on orbital magnetization
   LCHIMAG   =     F  perturbation theory with respect to B field
   DQ        =  0.001000  dq finite difference perturbation B field



--------------------------------------------------------------------------------------------------------


 Static calculation
 charge density and potential will be updated during run
 non collinear spin polarized calculation
 Variant of blocked Davidson
 Davidson routine will perform the subspace rotation
 perform sub-space diagonalisation
    after iterative eigenvector-optimisation
 modified Broyden-mixing scheme, WC =      100.0
 initial mixing is a Kerker type mixing with AMIX =  0.4000 and BMIX =      1.0000
 Hartree-type preconditioning will be used
 using additional bands          400
 reciprocal scheme for non local part
 use partial core corrections
 calculate Harris-corrections to forces 
   (improved forces if not selfconsistent)
 use gradient corrections 
 use of overlap-Matrix (Vanderbilt PP)
 Gauss-broadening in eV      SIGMA  =   0.00


--------------------------------------------------------------------------------------------------------


  energy-cutoff  :      700.00
  volume of cell :     1996.98
      direct lattice vectors                 reciprocal lattice vectors
    12.576837428  0.001915912  0.138198793     0.079520802 -0.000007684 -0.000869670
     0.001195632 12.457538083 -0.000746413    -0.000012224  0.080272684 -0.000000427
     0.139410704  0.000089045 12.747420625    -0.000862111  0.000004784  0.078456671

  length of vectors
    12.577596840 12.457538162 12.748182927     0.079525558  0.080272685  0.078461408


 
 k-points in units of 2pi/SCALE and weight: Automatic 3x3x3                         
   0.00000000  0.00000000  0.00000000       0.037
   0.02650693 -0.00000256 -0.00028989       0.037
  -0.02650693  0.00000256  0.00028989       0.037
  -0.00000407  0.02675756 -0.00000014       0.037
   0.02650286  0.02675500 -0.00029003       0.037
  -0.02651101  0.02676012  0.00028975       0.037
   0.00000407 -0.02675756  0.00000014       0.037
   0.02651101 -0.02676012 -0.00028975       0.037
  -0.02650286 -0.02675500  0.00029003       0.037
  -0.00028737  0.00000159  0.02615222       0.037
   0.02621956 -0.00000097  0.02586233       0.037
  -0.02679430  0.00000416  0.02644211       0.037
  -0.00029144  0.02675916  0.02615208       0.037
   0.02621549  0.02675659  0.02586219       0.037
  -0.02679838  0.02676172  0.02644197       0.037
  -0.00028330 -0.02675597  0.02615237       0.037
   0.02622364 -0.02675853  0.02586248       0.037
  -0.02679023 -0.02675341  0.02644226       0.037
   0.00028737 -0.00000159 -0.02615222       0.037
   0.02679430 -0.00000416 -0.02644211       0.037
  -0.02621956  0.00000097 -0.02586233       0.037
   0.00028330  0.02675597 -0.02615237       0.037
   0.02679023  0.02675341 -0.02644226       0.037
  -0.02622364  0.02675853 -0.02586248       0.037
   0.00029144 -0.02675916 -0.02615208       0.037
   0.02679838 -0.02676172 -0.02644197       0.037
  -0.02621549 -0.02675659 -0.02586219       0.037
 
 k-points in reciprocal lattice and weights: Automatic 3x3x3                         
   0.00000000  0.00000000  0.00000000       0.037
   0.33333333 -0.00000000 -0.00000000       0.037
  -0.33333333  0.00000000  0.00000000       0.037
   0.00000000  0.33333333 -0.00000000       0.037
   0.33333333  0.33333333  0.00000000       0.037
  -0.33333333  0.33333333  0.00000000       0.037
  -0.00000000 -0.33333333  0.00000000       0.037
   0.33333333 -0.33333333 -0.00000000       0.037
  -0.33333333 -0.33333333 -0.00000000       0.037
   0.00000000  0.00000000  0.33333333       0.037
   0.33333333  0.00000000  0.33333333       0.037
  -0.33333333  0.00000000  0.33333333       0.037
   0.00000000  0.33333333  0.33333333       0.037
   0.33333333  0.33333333  0.33333333       0.037
  -0.33333333  0.33333333  0.33333333       0.037
   0.00000000 -0.33333333  0.33333333       0.037
   0.33333333 -0.33333333  0.33333333       0.037
  -0.33333333 -0.33333333  0.33333333       0.037
   0.00000000  0.00000000 -0.33333333       0.037
   0.33333333 -0.00000000 -0.33333333       0.037
  -0.33333333 -0.00000000 -0.33333333       0.037
  -0.00000000  0.33333333 -0.33333333       0.037
   0.33333333  0.33333333 -0.33333333       0.037
  -0.33333333  0.33333333 -0.33333333       0.037
  -0.00000000 -0.33333333 -0.33333333       0.037
   0.33333333 -0.33333333 -0.33333333       0.037
  -0.33333333 -0.33333333 -0.33333333       0.037
 
 position of ions in fractional coordinates (direct lattice) 
   0.19778320  0.24984613  0.22855870
   0.69620506  0.24997043  0.22927200
   0.19620506  0.74997043  0.22927200
   0.69778320  0.74984613  0.22855870
   0.19620506  0.24997043  0.72927200
   0.69778320  0.24984613  0.72855870
   0.19778320  0.74984613  0.72855870
   0.69620506  0.74997043  0.72927200
   0.31183306  0.24996372  0.25889661
   0.79724138  0.25004357  0.28887198
   0.29724138  0.75004357  0.28887198
   0.81183306  0.74996372  0.25889661
   0.29724138  0.25004357  0.78887198
   0.81183306  0.24996372  0.75889661
   0.31183306  0.74996372  0.75889661
   0.79724138  0.75004357  0.78887198
   0.19375699  0.24975926  0.14167134
   0.71639335  0.24988293  0.14410592
   0.21639335  0.74988293  0.14410592
   0.69375699  0.74975926  0.14167134
   0.21639335  0.24988293  0.64410592
   0.69375699  0.24975926  0.64167134
   0.19375699  0.74975926  0.64167134
   0.71639335  0.74988293  0.64410592
   0.15846565  0.32220061  0.26066461
   0.65020996  0.32250376  0.25036603
   0.15020996  0.82250376  0.25036603
   0.65846565  0.82220061  0.26066461
   0.15020996  0.32250376  0.75036603
   0.65846565  0.32220061  0.76066461
   0.15846565  0.82220061  0.76066461
   0.65020996  0.82250376  0.75036603
   0.15862307  0.17748239  0.26078754
   0.65026260  0.17746976  0.25051388
   0.15026260  0.67746976  0.25051388
   0.65862307  0.67748239  0.26078754
   0.15026260  0.17746976  0.75051388
   0.65862307  0.17748239  0.76078754
   0.15862307  0.67748239  0.76078754
   0.65026260  0.67746976  0.75051388
   0.35254231  0.31775654  0.23029642
   0.84372684  0.31799203  0.27121657
   0.34372684  0.81799203  0.27121657
   0.85254231  0.81775654  0.23029642
   0.34372684  0.31799203  0.77121657
   0.85254231  0.31775654  0.73029642
   0.35254231  0.81775654  0.73029642
   0.84372684  0.81799203  0.77121657
   0.35267546  0.18218656  0.23037603
   0.84373514  0.18202322  0.27140577
   0.34373514  0.68202322  0.27140577
   0.85267546  0.68218656  0.23037603
   0.34373514  0.18202322  0.77140577
   0.85267546  0.18218656  0.73037603
   0.35267546  0.68218656  0.73037603
   0.84373514  0.68202322  0.77140577
   0.32291243  0.25001133  0.34107757
   0.78342772  0.25017572  0.37014092
   0.28342772  0.75017572  0.37014092
   0.82291243  0.75001133  0.34107757
   0.28342772  0.25017572  0.87014092
   0.82291243  0.25001133  0.84107757
   0.32291243  0.75001133  0.84107757
   0.78342772  0.75017572  0.87014092
   0.47243799  0.49804014  0.48880626
   0.97244556  0.50193945  0.48881663
   0.47244556  0.00193945  0.48881663
   0.97243799  0.99804014  0.48880626
   0.47244556  0.50193945  0.98881663
   0.97243799  0.49804014  0.98880626
   0.47243799  0.99804014  0.98880626
   0.97244556  0.00193945  0.98881663
   0.45469815  0.50402695  0.23757505
   0.95478919  0.49595515  0.23757044
   0.45478919  0.99595515  0.23757044
   0.95469815  0.00402695  0.23757505
   0.45478919  0.49595515  0.73757044
   0.95469815  0.50402695  0.73757505
   0.45469815  0.00402695  0.73757505
   0.95478919  0.99595515  0.73757044
   0.47955994  0.24997182  0.01049531
   0.91971093  0.24998620  0.01316912
   0.41971093  0.74998620  0.01316912
   0.97955994  0.74997182  0.01049531
   0.41971093  0.24998620  0.51316912
   0.97955994  0.24997182  0.51049531
   0.47955994  0.74997182  0.51049531
   0.91971093  0.74998620  0.51316912
   0.21616402  0.53432402  0.46127554
   0.71617885  0.46567086  0.46120386
   0.21617885  0.96567086  0.46120386
   0.71616402  0.03432402  0.46127554
   0.21617885  0.46567086  0.96120386
   0.71616402  0.53432402  0.96127554
   0.21616402  0.03432402  0.96127554
   0.71617885  0.96567086  0.96120386
 
 position of ions in cartesian coordinates  (Angst):
   2.51964941  3.11286691  2.94068085
   8.78831976  3.11537037  3.01865480
   2.50049886  9.34318146  2.94918219
   8.80866594  9.34259390  3.00940704
   2.56960640  3.11445694  9.32326571
   8.87777347  3.11386938  9.38349056
   2.58995258  9.34168047  9.31401796
   8.85862293  9.34418394  9.39199190
   3.95826552  3.11455301  3.34317239
  10.06734601  3.11648040  3.79236381
   3.77952511  9.34429149  3.72289121
  10.24728205  9.34428001  3.41189858
   3.84863265  3.11556697 10.09697473
  10.31638958  3.11555549  9.78598210
   4.02856869  9.34336657  9.71650949
  10.13764918  9.34529397 10.16570092
   2.45689925  3.11176931  1.83253466
   9.03035134  3.11431154  1.93579692
   2.74253044  9.34212263  1.86632431
   8.74591578  9.34149631  1.90126085
   2.81163798  3.11339811  8.24040783
   8.81502331  3.11277179  8.27534437
   2.52720242  9.34058288  8.20587176
   9.10065451  9.34312511  8.30913402
   2.02972141  4.01415322  3.34446073
   8.21287429  4.01887092  3.28113855
   1.92505339 10.24668200  3.21166594
   8.31873794 10.24388022  3.41318692
   1.99416092  4.01795748  9.58574946
   8.38784547  4.01515570  9.78727044
   2.10002457 10.24296679  9.71779784
   8.28317745 10.24768448  9.65447565
   2.03154534  2.21132070  3.34615745
   8.21338348  2.21210447  3.28313881
   1.92556258  8.43991555  3.21366621
   8.32056187  8.44104770  3.41488364
   1.99467012  2.21119103  9.58774973
   8.38966940  2.21232318  9.78896716
   2.10184851  8.44013427  9.71949456
   8.28368665  8.44091803  9.65647592
   4.46635309  3.95916011  2.98416903
  10.64960599  3.96303847  3.57367632
   4.36178509 10.19084955  3.50420372
  10.75536962 10.18888710  3.05289522
   4.43089263  3.96212503  9.87828724
  10.82447715  3.96016259  9.42697874
   4.53665626 10.18797367  9.35750614
  10.71990916 10.19185203  9.94701343
   4.46787666  2.27029219  2.98530351
  10.64957417  2.26920185  3.57619080
   4.36175328  8.49701294  3.50671820
  10.75689319  8.50001918  3.05402970
   4.43086081  2.26828842  9.88080172
  10.82600073  2.27129467  9.42811322
   4.53817983  8.49910575  9.35864062
  10.71987734  8.49801542  9.94952791
   4.10906593  3.11517469  4.39229874
   9.90494374  3.11810744  4.82642403
   3.61712284  9.34591852  4.75695143
  10.39808246  9.34490168  4.46102493
   3.68623037  3.11719400 11.13103495
  10.46719000  3.11617716 10.83510845
   4.17936910  9.34398825 10.76563584
   9.97524690  9.34692100 11.19976114
   6.01051609  6.20530264  6.29593764
  12.29903615  6.25483651  6.36516737
   6.01001962  0.02510951  6.29644118
  12.29953262 12.43502963  6.36466383
   6.08032279  6.25392307 12.66977829
  12.36864016  6.20630511 12.73874735
   6.08081926 12.43411620 12.66927474
  12.36814368  0.02611199 12.73925089
   5.75238790  6.27982729  3.09093160
  12.04194131  6.18023056  3.15999080
   5.75412042 12.40804164  3.09051819
  12.04020880  0.05201620  3.16040420
   5.82322795  6.17931712  9.46460171
  12.11051197  6.28082976  9.53374131
   5.82149544  0.05110277  9.46501512
  12.11224448 12.40904412  9.53332790
   6.03310949  3.11495323  0.19987618
  11.56918971  3.11597585  0.29478870
   5.28136881  9.34378693  0.22531610
  12.32212602  9.34468022  0.26860237
   5.35047635  3.11506241  6.59939962
  12.39123356  3.11595570  6.64268589
   6.10341266  9.34376679  6.57321329
  11.63949288  9.34478941  6.66812581
   2.78360537  6.65681701  5.90954811
   9.07211855  5.80252563  5.97778711
   2.78429765 12.03033671  5.90831451
   9.07142627  0.42900592  5.97902072
   2.85340519  5.80161219 12.28239803
   9.14172944  6.65781949 12.35235782
   2.85271291  0.42809249 12.28363163
   9.14242172 12.03133919 12.35112422
 
 Euler angles ALPHA=     0.0000000  BETA=     0.0000000

 transformation matrix from SAXIS to cartesian coordinates
 ---------------------------------------------------------
     1.0000000 m_x     0.0000000 m_y     0.0000000 m_z
     0.0000000 m_x     1.0000000 m_y     0.0000000 m_z
     0.0000000 m_x     0.0000000 m_y     1.0000000 m_z

 transformation matrix from cartesian coordinates to SAXIS
 ---------------------------------------------------------
     1.0000000 m_x     0.0000000 m_y     0.0000000 m_z
     0.0000000 m_x     1.0000000 m_y     0.0000000 m_z
     0.0000000 m_x     0.0000000 m_y     1.0000000 m_z




--------------------------------------------------------------------------------------------------------


 k-point  1 :   0.0000 0.0000 0.0000  plane waves:  168014
 k-point  2 :   0.3333-0.0000-0.0000  plane waves:  168006
 k-point  3 :  -0.3333 0.0000 0.0000  plane waves:  168006
 k-point  4 :   0.0000 0.3333-0.0000  plane waves:  167990
 k-point  5 :   0.3333 0.3333 0.0000  plane waves:  168036
 k-point  6 :  -0.3333 0.3333 0.0000  plane waves:  168038
 k-point  7 :  -0.0000-0.3333 0.0000  plane waves:  167990
 k-point  8 :   0.3333-0.3333-0.0000  plane waves:  168038
 k-point  9 :  -0.3333-0.3333-0.0000  plane waves:  168036
 k-point 10 :   0.0000 0.0000 0.3333  plane waves:  167920
 k-point 11 :   0.3333 0.0000 0.3333  plane waves:  167874
 k-point 12 :  -0.3333 0.0000 0.3333  plane waves:  167964
 k-point 13 :   0.0000 0.3333 0.3333  plane waves:  167968
 k-point 14 :   0.3333 0.3333 0.3333  plane waves:  168024
 k-point 15 :  -0.3333 0.3333 0.3333  plane waves:  167940
 k-point 16 :   0.0000-0.3333 0.3333  plane waves:  167954
 k-point 17 :   0.3333-0.3333 0.3333  plane waves:  168026
 k-point 18 :  -0.3333-0.3333 0.3333  plane waves:  167946
 k-point 19 :   0.0000 0.0000-0.3333  plane waves:  167920
 k-point 20 :   0.3333-0.0000-0.3333  plane waves:  167964
 k-point 21 :  -0.3333-0.0000-0.3333  plane waves:  167874
 k-point 22 :  -0.0000 0.3333-0.3333  plane waves:  167954
 k-point 23 :   0.3333 0.3333-0.3333  plane waves:  167946
 k-point 24 :  -0.3333 0.3333-0.3333  plane waves:  168026
 k-point 25 :  -0.0000-0.3333-0.3333  plane waves:  167968
 k-point 26 :   0.3333-0.3333-0.3333  plane waves:  167940
 k-point 27 :  -0.3333-0.3333-0.3333  plane waves:  168024

 maximum and minimum number of plane-waves per node :      7122     6820

 maximum number of plane-waves:    168038
 maximum index in each direction: 
   IXMAX=   27   IYMAX=   27   IZMAX=   27
   IXMIN=  -27   IYMIN=  -27   IZMIN=  -27

 NGX is ok and might be reduce to 110
 WARNING: aliasing errors must be expected set NGY to 110 to avoid them
 NGZ is ok and might be reduce to 110
 aliasing errors are usually negligible using standard VASP settings
 and one can safely disregard these warnings

 parallel 3D FFT for wavefunctions:
    minimum data exchange during FFTs selected (reduces bandwidth)
 parallel 3D FFT for charge:
    minimum data exchange during FFTs selected (reduces bandwidth)


 total amount of memory used by VASP on root node   392927. kBytes
========================================================================

   base      :      30000. kBytes
   nonl-proj :      73667. kBytes
   fftplans  :      22714. kBytes
   grid      :      35610. kBytes
   one-center:        248. kBytes
   wavefun   :     230688. kBytes
 
     INWAV:  cpu time    0.0000: real time    0.0000
 Broyden mixing: mesh for mixing (old mesh)
   NGX = 55   NGY = 53   NGZ = 55
  (NGX  =224   NGY  =216   NGZ  =224)
  gives a total of 160325 points

 initial charge density was supplied:
 charge density of overlapping atoms calculated
 number of electron     400.0000000 magnetization      96.0000000     96.0000000     96.0000000
 keeping initial charge density in first step


--------------------------------------------------------------------------------------------------------


 Maximum index for augmentation-charges         5347 (set IRDMAX)


--------------------------------------------------------------------------------------------------------


 First call to EWALD:  gamma=   0.141
 Maximum number of real-space cells 3x 3x 3
 Maximum number of reciprocal cells 3x 3x 3

 FEWALD executed in parallel
    FEWALD:  cpu time    0.0040: real time    0.0037


----------------------------------------- Iteration    1(   1)  ---------------------------------------


    POTLOK:  cpu time    0.5680: real time    0.5661
    SETDIJ:  cpu time    2.1321: real time    2.1365
     EDDAV:  cpu time  236.0348: real time  236.1921
       DOS:  cpu time    0.0040: real time    0.0059
    --------------------------------------------
      LOOP:  cpu time  238.7389: real time  238.9269

 eigenvalue-minimisations  : 32544
 total energy-change (2. order) : 0.4219471E+04  (-0.1928394E+05)
 number of electron     400.0000000 magnetization      96.0000000     96.0000000     96.0000000
 augmentation part      400.0000000 magnetization      96.0000000     96.0000000     96.0000000

 Free energy of the ion-electron system (eV)
  ---------------------------------------------------
  alpha Z        PSCENC =       370.05370877
  Ewald energy   TEWEN  =    -15567.38622809
  -Hartree energ DENC   =     -8092.43365017
  -exchange      EXHF   =         0.00000000
  -V(xc)+E(xc)   XCENC  =       671.94087609
  PAW double counting   =     20172.90621935   -19413.33347658
  entropy T*S    EENTRO =        -0.00001866
  eigenvalues    EBANDS =      1328.71736825
  atomic energy  EATOM  =     24749.00668030
  Solvation  Ediel_sol  =         0.00000000
  ---------------------------------------------------
  free energy    TOTEN  =      4219.47147926 eV

  energy without entropy =     4219.47149792  energy(sigma->0) =     4219.47148859


--------------------------------------------------------------------------------------------------------




----------------------------------------- Iteration    1(   2)  ---------------------------------------


     EDDAV:  cpu time  252.3078: real time  252.4728
       DOS:  cpu time    0.0080: real time    0.0076
    --------------------------------------------
      LOOP:  cpu time  252.3198: real time  252.4909

 eigenvalue-minimisations  : 35584
 total energy-change (2. order) :-0.3377755E+04  (-0.3128269E+04)
 number of electron     400.0000000 magnetization      96.0000000     96.0000000     96.0000000
 augmentation part      400.0000000 magnetization      96.0000000     96.0000000     96.0000000

 Free energy of the ion-electron system (eV)
  ---------------------------------------------------
  alpha Z        PSCENC =       370.05370877
  Ewald energy   TEWEN  =    -15567.38622809
  -Hartree energ DENC   =     -8092.43365017
  -exchange      EXHF   =         0.00000000
  -V(xc)+E(xc)   XCENC  =       671.94087609
  PAW double counting   =     20172.90621935   -19413.33347658
  entropy T*S    EENTRO =        -0.00003887
  eigenvalues    EBANDS =     -2049.03786162
  atomic energy  EATOM  =     24749.00668030
  Solvation  Ediel_sol  =         0.00000000
  ---------------------------------------------------
  free energy    TOTEN  =       841.71622918 eV

  energy without entropy =      841.71626805  energy(sigma->0) =      841.71624861


--------------------------------------------------------------------------------------------------------




----------------------------------------- Iteration    1(   3)  ---------------------------------------


     EDDAV:  cpu time  297.0746: real time  297.2719
       DOS:  cpu time    0.0080: real time    0.0076
    --------------------------------------------
      LOOP:  cpu time  297.0826: real time  297.3421

 eigenvalue-minimisations  : 43976
 total energy-change (2. order) :-0.6090271E+03  (-0.5888464E+03)
 number of electron     400.0000000 magnetization      96.0000000     96.0000000     96.0000000
 augmentation part      400.0000000 magnetization      96.0000000     96.0000000     96.0000000

 Free energy of the ion-electron system (eV)
  ---------------------------------------------------
  alpha Z        PSCENC =       370.05370877
  Ewald energy   TEWEN  =    -15567.38622809
  -Hartree energ DENC   =     -8092.43365017
  -exchange      EXHF   =         0.00000000
  -V(xc)+E(xc)   XCENC  =       671.94087609
  PAW double counting   =     20172.90621935   -19413.33347658
  entropy T*S    EENTRO =        -0.00003648
  eigenvalues    EBANDS =     -2658.06500666
  atomic energy  EATOM  =     24749.00668030
  Solvation  Ediel_sol  =         0.00000000
  ---------------------------------------------------
  free energy    TOTEN  =       232.68908653 eV

  energy without entropy =      232.68912301  energy(sigma->0) =      232.68910477


--------------------------------------------------------------------------------------------------------




----------------------------------------- Iteration    1(   4)  ---------------------------------------


     EDDAV:  cpu time  298.1186: real time  298.3153
       DOS:  cpu time    0.0080: real time    0.0080
    --------------------------------------------
      LOOP:  cpu time  298.1266: real time  298.3496

 eigenvalue-minimisations  : 44128
 total energy-change (2. order) :-0.4576036E+02  (-0.4465883E+02)
 number of electron     400.0000000 magnetization      96.0000000     96.0000000     96.0000000
 augmentation part      400.0000000 magnetization      96.0000000     96.0000000     96.0000000

 Free energy of the ion-electron system (eV)
  ---------------------------------------------------
  alpha Z        PSCENC =       370.05370877
  Ewald energy   TEWEN  =    -15567.38622809
  -Hartree energ DENC   =     -8092.43365017
  -exchange      EXHF   =         0.00000000
  -V(xc)+E(xc)   XCENC  =       671.94087609
  PAW double counting   =     20172.90621935   -19413.33347658
  entropy T*S    EENTRO =        -0.00004056
  eigenvalues    EBANDS =     -2703.82536166
  atomic energy  EATOM  =     24749.00668030
  Solvation  Ediel_sol  =         0.00000000
  ---------------------------------------------------
  free energy    TOTEN  =       186.92872745 eV

  energy without entropy =      186.92876800  energy(sigma->0) =      186.92874773


--------------------------------------------------------------------------------------------------------




----------------------------------------- Iteration    1(   5)  ---------------------------------------


     EDDAV:  cpu time  331.9567: real time  332.1733
       DOS:  cpu time    0.0040: real time    0.0065
    CHARGE:  cpu time   11.6367: real time   11.6440
    MIXING:  cpu time    0.0160: real time    0.0161
    --------------------------------------------
      LOOP:  cpu time  343.6135: real time  343.8838

 eigenvalue-minimisations  : 50440
 total energy-change (2. order) :-0.2190070E+01  (-0.2182185E+01)
 number of electron     400.0000000 magnetization      67.2084574     67.2173187     67.2224747
 augmentation part        6.9080962 magnetization      63.2397380     63.2161793     63.2037973

 Broyden mixing:
  rms(total) = 0.97557E+01    rms(broyden)= 0.97555E+01
  rms(prec ) = 0.10250E+02
  weight for this iteration     100.00

 Free energy of the ion-electron system (eV)
  ---------------------------------------------------
  alpha Z        PSCENC =       370.05370877
  Ewald energy   TEWEN  =    -15567.38622809
  -Hartree energ DENC   =     -8092.43365017
  -exchange      EXHF   =         0.00000000
  -V(xc)+E(xc)   XCENC  =       671.94087609
  PAW double counting   =     20172.90621935   -19413.33347658
  entropy T*S    EENTRO =        -0.00003752
  eigenvalues    EBANDS =     -2706.01543475
  atomic energy  EATOM  =     24749.00668030
  Solvation  Ediel_sol  =         0.00000000
  ---------------------------------------------------
  free energy    TOTEN  =       184.73865739 eV

  energy without entropy =      184.73869491  energy(sigma->0) =      184.73867615


--------------------------------------------------------------------------------------------------------




----------------------------------------- Iteration    1(   6)  ---------------------------------------


    POTLOK:  cpu time    0.5720: real time    0.5724
    SETDIJ:  cpu time    2.1081: real time    2.1087
     EDDAV:  cpu time  260.0083: real time  260.1775
       DOS:  cpu time    0.0040: real time    0.0071
    CHARGE:  cpu time   11.7807: real time   11.7856
    MIXING:  cpu time    0.0120: real time    0.0146
    --------------------------------------------
      LOOP:  cpu time  274.4892: real time  274.6770

 eigenvalue-minimisations  : 37008
 total energy-change (2. order) :-0.1294751E+03  (-0.1509376E+03)
 number of electron     400.0000000 magnetization      50.4175286     50.4224866     50.4265900
 augmentation part        5.9935939 magnetization      51.2774178     51.2886662     51.2909555

 Broyden mixing:
  rms(total) = 0.48937E+01    rms(broyden)= 0.48936E+01
  rms(prec ) = 0.50793E+01
  weight for this iteration     100.00

 eigenvalues of (default mixing * dielectric matrix)
  average eigenvalue GAMMA=   0.7553
  0.7553

 Free energy of the ion-electron system (eV)
  ---------------------------------------------------
  alpha Z        PSCENC =       370.05370877
  Ewald energy   TEWEN  =    -15567.38622809
  -Hartree energ DENC   =     -8444.29850477
  -exchange      EXHF   =         0.00000000
  -V(xc)+E(xc)   XCENC  =       687.98630564
  PAW double counting   =     24149.24944895   -23412.34125637
  entropy T*S    EENTRO =        -0.00001804
  eigenvalues    EBANDS =     -2477.00660771
  atomic energy  EATOM  =     24749.00668030
  Solvation  Ediel_sol  =         0.00000000
  ---------------------------------------------------
  free energy    TOTEN  =        55.26352870 eV

  energy without entropy =       55.26354673  energy(sigma->0) =       55.26353771


--------------------------------------------------------------------------------------------------------




----------------------------------------- Iteration    1(   7)  ---------------------------------------


    POTLOK:  cpu time    0.5680: real time    0.5697
    SETDIJ:  cpu time    2.1321: real time    2.1336
     EDDAV:  cpu time  269.9569: real time  270.1340
       DOS:  cpu time    0.0040: real time    0.0066
    CHARGE:  cpu time   11.8047: real time   11.8126
    MIXING:  cpu time    0.0160: real time    0.0140
    --------------------------------------------
      LOOP:  cpu time  284.4858: real time  284.7008

 eigenvalue-minimisations  : 38800
 total energy-change (2. order) :-0.1489219E+03  (-0.1606778E+02)
 number of electron     400.0000000 magnetization      34.5662517     34.5681647     34.5728417
 augmentation part        5.5980302 magnetization      35.6461287     35.6553093     35.6522875

 Broyden mixing:
  rms(total) = 0.28427E+01    rms(broyden)= 0.28427E+01
  rms(prec ) = 0.29992E+01
  weight for this iteration     100.00

 eigenvalues of (default mixing * dielectric matrix)
  average eigenvalue GAMMA=   0.8371
  0.8371  0.8371

 Free energy of the ion-electron system (eV)
  ---------------------------------------------------
  alpha Z        PSCENC =       370.05370877
  Ewald energy   TEWEN  =    -15567.38622809
  -Hartree energ DENC   =     -8492.68954330
  -exchange      EXHF   =         0.00000000
  -V(xc)+E(xc)   XCENC  =       591.30457487
  PAW double counting   =     26564.99614278   -25828.00743353
  entropy T*S    EENTRO =        -0.00001804
  eigenvalues    EBANDS =     -2480.93623842
  atomic energy  EATOM  =     24749.00668030
  Solvation  Ediel_sol  =         0.00000000
  ---------------------------------------------------
  free energy    TOTEN  =       -93.65835467 eV

  energy without entropy =      -93.65833663  energy(sigma->0) =      -93.65834565


--------------------------------------------------------------------------------------------------------




----------------------------------------- Iteration    1(   8)  ---------------------------------------


    POTLOK:  cpu time    0.5680: real time    0.5703
    SETDIJ:  cpu time    2.1241: real time    2.1242
     EDDAV:  cpu time  263.9885: real time  264.1648
       DOS:  cpu time    0.0040: real time    0.0042
    CHARGE:  cpu time   11.8167: real time   11.8222
    MIXING:  cpu time    0.0120: real time    0.0153
    --------------------------------------------
      LOOP:  cpu time  278.5174: real time  279.0914

 eigenvalue-minimisations  : 37680
 total energy-change (2. order) :-0.1073822E+03  (-0.6509845E+01)
 number of electron     400.0000000 magnetization      16.1592418     16.1536662     16.1591135
 augmentation part        6.6458970 magnetization      17.3573351     17.3660755     17.3665624

 Broyden mixing:
  rms(total) = 0.18479E+01    rms(broyden)= 0.18479E+01
  rms(prec ) = 0.19046E+01
  weight for this iteration     100.00

 eigenvalues of (default mixing * dielectric matrix)
  average eigenvalue GAMMA=   1.0002
  1.3892  0.9812  0.6302

 Free energy of the ion-electron system (eV)
  ---------------------------------------------------
  alpha Z        PSCENC =       370.05370877
  Ewald energy   TEWEN  =    -15567.38622809
  -Hartree energ DENC   =     -8525.97488020
  -exchange      EXHF   =         0.00000000
  -V(xc)+E(xc)   XCENC  =       529.29641350
  PAW double counting   =     28495.69852087   -27760.48869523
  entropy T*S    EENTRO =         0.00000000
  eigenvalues    EBANDS =     -2491.24610375
  atomic energy  EATOM  =     24749.00668030
  Solvation  Ediel_sol  =         0.00000000
  ---------------------------------------------------
  free energy    TOTEN  =      -201.04058382 eV

  energy without entropy =     -201.04058382  energy(sigma->0) =     -201.04058382


--------------------------------------------------------------------------------------------------------




----------------------------------------- Iteration    1(   9)  ---------------------------------------


    POTLOK:  cpu time    0.5800: real time    0.5802
    SETDIJ:  cpu time    2.1481: real time    2.1484
     EDDAV:  cpu time  257.3281: real time  257.5042
       DOS:  cpu time    0.0040: real time    0.0044
    CHARGE:  cpu time   11.7967: real time   11.8011
    MIXING:  cpu time    0.0160: real time    0.0157
    --------------------------------------------
      LOOP:  cpu time  271.8770: real time  272.0748

 eigenvalue-minimisations  : 36520
 total energy-change (2. order) :-0.1311511E+03  (-0.1210260E+02)
 number of electron     400.0000000 magnetization      10.4186354     10.4104795     10.4151060
 augmentation part        7.9043382 magnetization      11.2452841     11.2553327     11.2563979

 Broyden mixing:
  rms(total) = 0.92547E+00    rms(broyden)= 0.92546E+00
  rms(prec ) = 0.97793E+00
  weight for this iteration     100.00

 eigenvalues of (default mixing * dielectric matrix)
  average eigenvalue GAMMA=   1.0780
  1.8149  1.1102  0.6934  0.6934

 Free energy of the ion-electron system (eV)
  ---------------------------------------------------
  alpha Z        PSCENC =       370.05370877
  Ewald energy   TEWEN  =    -15567.38622809
  -Hartree energ DENC   =     -8556.33577491
  -exchange      EXHF   =         0.00000000
  -V(xc)+E(xc)   XCENC  =       464.04573060
  PAW double counting   =     30494.18854718   -29759.81987171
  entropy T*S    EENTRO =         0.00000000
  eigenvalues    EBANDS =     -2525.94451942
  atomic energy  EATOM  =     24749.00668030
  Solvation  Ediel_sol  =         0.00000000
  ---------------------------------------------------
  free energy    TOTEN  =      -332.19172728 eV

  energy without entropy =     -332.19172728  energy(sigma->0) =     -332.19172728


--------------------------------------------------------------------------------------------------------




----------------------------------------- Iteration    1(  10)  ---------------------------------------


    POTLOK:  cpu time    0.5720: real time    0.5728
    SETDIJ:  cpu time    2.1241: real time    2.1235
     EDDAV:  cpu time  261.6644: real time  261.8374
       DOS:  cpu time    0.0040: real time    0.0039
    CHARGE:  cpu time   11.8607: real time   11.8666
    MIXING:  cpu time    0.0120: real time    0.0152
    --------------------------------------------
      LOOP:  cpu time  276.2373: real time  276.4314

 eigenvalue-minimisations  : 37248
 total energy-change (2. order) :-0.4858471E+02  (-0.4796657E+01)
 number of electron     400.0000000 magnetization       6.0858469      6.0791172      6.0818450
 augmentation part        8.1980786 magnetization       6.6196799      6.6187090      6.6220068

 Broyden mixing:
  rms(total) = 0.66254E+00    rms(broyden)= 0.66253E+00
  rms(prec ) = 0.73420E+00
  weight for this iteration     100.00

 eigenvalues of (default mixing * dielectric matrix)
  average eigenvalue GAMMA=   1.1391
  1.7090  1.7090  0.8319  0.8319  0.6137

 Free energy of the ion-electron system (eV)
  ---------------------------------------------------
  alpha Z        PSCENC =       370.05370877
  Ewald energy   TEWEN  =    -15567.38622809
  -Hartree energ DENC   =     -8543.34518083
  -exchange      EXHF   =         0.00000000
  -V(xc)+E(xc)   XCENC  =       442.41185926
  PAW double counting   =     30858.69933180   -30122.79930419
  entropy T*S    EENTRO =        -0.00000000
  eigenvalues    EBANDS =     -2567.41730681
  atomic energy  EATOM  =     24749.00668030
  Solvation  Ediel_sol  =         0.00000000
  ---------------------------------------------------
  free energy    TOTEN  =      -380.77643979 eV

  energy without entropy =     -380.77643979  energy(sigma->0) =     -380.77643979


--------------------------------------------------------------------------------------------------------




----------------------------------------- Iteration    1(  11)  ---------------------------------------


    POTLOK:  cpu time    0.5800: real time    0.5819
    SETDIJ:  cpu time    2.1281: real time    2.1299
     EDDAV:  cpu time  264.2845: real time  264.4564
       DOS:  cpu time    0.0040: real time    0.0035
    CHARGE:  cpu time   11.8647: real time   11.8717
    MIXING:  cpu time    0.0160: real time    0.0166
    --------------------------------------------
      LOOP:  cpu time  278.8814: real time  279.0771

 eigenvalue-minimisations  : 37736
 total energy-change (2. order) :-0.2973236E+02  (-0.4113878E+01)
 number of electron     400.0000000 magnetization       3.1457393      3.1412326      3.1429186
 augmentation part        8.0792465 magnetization       3.3662031      3.3636468      3.3642190

 Broyden mixing:
  rms(total) = 0.37735E+00    rms(broyden)= 0.37735E+00
  rms(prec ) = 0.43166E+00
  weight for this iteration     100.00

 eigenvalues of (default mixing * dielectric matrix)
  average eigenvalue GAMMA=   1.2098
  2.0740  2.0740  0.9369  0.9369  0.6605  0.5766

 Free energy of the ion-electron system (eV)
  ---------------------------------------------------
  alpha Z        PSCENC =       370.05370877
  Ewald energy   TEWEN  =    -15567.38622809
  -Hartree energ DENC   =     -8491.66113618
  -exchange      EXHF   =         0.00000000
  -V(xc)+E(xc)   XCENC  =       427.65738192
  PAW double counting   =     30843.21792106   -30103.99204049
  entropy T*S    EENTRO =         0.00000000
  eigenvalues    EBANDS =     -2637.40509166
  atomic energy  EATOM  =     24749.00668030
  Solvation  Ediel_sol  =         0.00000000
  ---------------------------------------------------
  free energy    TOTEN  =      -410.50880437 eV

  energy without entropy =     -410.50880437  energy(sigma->0) =     -410.50880437


--------------------------------------------------------------------------------------------------------




----------------------------------------- Iteration    1(  12)  ---------------------------------------


    POTLOK:  cpu time    0.5920: real time    0.5933
    SETDIJ:  cpu time    2.1641: real time    2.1626
     EDDAV:  cpu time  283.4577: real time  283.6455
       DOS:  cpu time    0.0040: real time    0.0039
    CHARGE:  cpu time   11.8207: real time   11.8283
    MIXING:  cpu time    0.0200: real time    0.0186
    --------------------------------------------
      LOOP:  cpu time  298.0586: real time  298.2798

 eigenvalue-minimisations  : 41344
 total energy-change (2. order) :-0.1061955E+02  (-0.1648389E+01)
 number of electron     400.0000000 magnetization       2.5213883      2.5178236      2.5192901
 augmentation part        7.8918861 magnetization       2.5855330      2.5819196      2.5829441

 Broyden mixing:
  rms(total) = 0.25384E+00    rms(broyden)= 0.25384E+00
  rms(prec ) = 0.29569E+00
  weight for this iteration     100.00

 eigenvalues of (default mixing * dielectric matrix)
  average eigenvalue GAMMA=   1.1612
  2.0921  2.0921  0.9900  0.9900  0.6827  0.6827  0.5983

 Free energy of the ion-electron system (eV)
  ---------------------------------------------------
  alpha Z        PSCENC =       370.05370877
  Ewald energy   TEWEN  =    -15567.38622809
  -Hartree energ DENC   =     -8446.94267238
  -exchange      EXHF   =         0.00000000
  -V(xc)+E(xc)   XCENC  =       421.61026023
  PAW double counting   =     30679.89068023   -29938.11611152
  entropy T*S    EENTRO =         0.00000000
  eigenvalues    EBANDS =     -2689.24467000
  atomic energy  EATOM  =     24749.00668030
  Solvation  Ediel_sol  =         0.00000000
  ---------------------------------------------------
  free energy    TOTEN  =      -421.12835246 eV

  energy without entropy =     -421.12835246  energy(sigma->0) =     -421.12835246


--------------------------------------------------------------------------------------------------------




----------------------------------------- Iteration    1(  13)  ---------------------------------------


    POTLOK:  cpu time    0.5720: real time    0.5697
    SETDIJ:  cpu time    2.1281: real time    2.1318
     EDDAV:  cpu time  275.8612: real time  276.0466
       DOS:  cpu time    0.0040: real time    0.0035
    CHARGE:  cpu time   11.8327: real time   11.8379
    MIXING:  cpu time    0.0160: real time    0.0176
    --------------------------------------------
      LOOP:  cpu time  290.4142: real time  290.6429

 eigenvalue-minimisations  : 39920
 total energy-change (2. order) :-0.1686701E+01  (-0.2486541E+00)
 number of electron     400.0000000 magnetization       1.6409993      1.6390921      1.6400335
 augmentation part        7.8958257 magnetization       1.6900130      1.6893084      1.6894738

 Broyden mixing:
  rms(total) = 0.20692E+00    rms(broyden)= 0.20692E+00
  rms(prec ) = 0.24518E+00
  weight for this iteration     100.00

 eigenvalues of (default mixing * dielectric matrix)
  average eigenvalue GAMMA=   1.1911
  2.2080  2.2080  1.0982  1.0982  0.8605  0.8605  0.6215  0.5741

 Free energy of the ion-electron system (eV)
  ---------------------------------------------------
  alpha Z        PSCENC =       370.05370877
  Ewald energy   TEWEN  =    -15567.38622809
  -Hartree energ DENC   =     -8433.67302085
[...]
     0.0000000     0.0000000     0.0000000     0.0000000     0.0000000     0.0000000     0.0000000
     0.0000000     0.0000000     0.0000000     0.0000000     0.0000000     0.0000000     0.0000000
     0.0000000     0.0000000     0.0000000     0.0000000     0.0000000     0.0000000     0.0000000
     0.0000000     0.0000000     0.0000000     0.0000000     0.0000000     0.0000000     0.0000000

 Ion:   82  E_soc:     -0.2789620
 l=   1
     0.0000000    -0.0477771    -0.0485048
    -0.0477771     0.0000000    -0.0432155
    -0.0485048    -0.0432155     0.0000000
 l=   2
     0.0000000    -0.0000081     0.0000000    -0.0000025     0.0000203
    -0.0000081     0.0000000     0.0000045    -0.0000024     0.0000100
     0.0000000     0.0000045     0.0000000    -0.0000034     0.0000000
    -0.0000025    -0.0000024    -0.0000034     0.0000000    -0.0000020
     0.0000203     0.0000100     0.0000000    -0.0000020     0.0000000
 l=   3
     0.0000000     0.0000000     0.0000000     0.0000000     0.0000000     0.0000000     0.0000000
     0.0000000     0.0000000     0.0000000     0.0000000     0.0000000     0.0000000     0.0000000
     0.0000000     0.0000000     0.0000000     0.0000000     0.0000000     0.0000000     0.0000000
     0.0000000     0.0000000     0.0000000     0.0000000     0.0000000     0.0000000     0.0000000
     0.0000000     0.0000000     0.0000000     0.0000000     0.0000000     0.0000000     0.0000000
     0.0000000     0.0000000     0.0000000     0.0000000     0.0000000     0.0000000     0.0000000
     0.0000000     0.0000000     0.0000000     0.0000000     0.0000000     0.0000000     0.0000000

 Ion:   83  E_soc:     -0.2789620
 l=   1
     0.0000000    -0.0477771    -0.0485048
    -0.0477771     0.0000000    -0.0432155
    -0.0485048    -0.0432155     0.0000000
 l=   2
     0.0000000    -0.0000081     0.0000000    -0.0000025     0.0000203
    -0.0000081     0.0000000     0.0000045    -0.0000024     0.0000100
     0.0000000     0.0000045     0.0000000    -0.0000034     0.0000000
    -0.0000025    -0.0000024    -0.0000034     0.0000000    -0.0000020
     0.0000203     0.0000100     0.0000000    -0.0000020     0.0000000
 l=   3
     0.0000000     0.0000000     0.0000000     0.0000000     0.0000000     0.0000000     0.0000000
     0.0000000     0.0000000     0.0000000     0.0000000     0.0000000     0.0000000     0.0000000
     0.0000000     0.0000000     0.0000000     0.0000000     0.0000000     0.0000000     0.0000000
     0.0000000     0.0000000     0.0000000     0.0000000     0.0000000     0.0000000     0.0000000
     0.0000000     0.0000000     0.0000000     0.0000000     0.0000000     0.0000000     0.0000000
     0.0000000     0.0000000     0.0000000     0.0000000     0.0000000     0.0000000     0.0000000
     0.0000000     0.0000000     0.0000000     0.0000000     0.0000000     0.0000000     0.0000000

 Ion:   84  E_soc:     -0.2814134
 l=   1
     0.0000000    -0.0488468    -0.0489680
    -0.0488468     0.0000000    -0.0429156
    -0.0489680    -0.0429156     0.0000000
 l=   2
     0.0000000    -0.0000099     0.0000000    -0.0000025     0.0000226
    -0.0000099     0.0000000     0.0000057    -0.0000022     0.0000138
     0.0000000     0.0000057     0.0000000    -0.0000030     0.0000000
    -0.0000025    -0.0000022    -0.0000030     0.0000000    -0.0000009
     0.0000226     0.0000138     0.0000000    -0.0000009     0.0000000
 l=   3
     0.0000000     0.0000000     0.0000000     0.0000000     0.0000000     0.0000000     0.0000000
     0.0000000     0.0000000     0.0000000     0.0000000     0.0000000     0.0000000     0.0000000
     0.0000000     0.0000000     0.0000000     0.0000000     0.0000000     0.0000000     0.0000000
     0.0000000     0.0000000     0.0000000     0.0000000     0.0000000     0.0000000     0.0000000
     0.0000000     0.0000000     0.0000000     0.0000000     0.0000000     0.0000000     0.0000000
     0.0000000     0.0000000     0.0000000     0.0000000     0.0000000     0.0000000     0.0000000
     0.0000000     0.0000000     0.0000000     0.0000000     0.0000000     0.0000000     0.0000000

 Ion:   85  E_soc:     -0.2789620
 l=   1
     0.0000000    -0.0477771    -0.0485048
    -0.0477771     0.0000000    -0.0432155
    -0.0485048    -0.0432155     0.0000000
 l=   2
     0.0000000    -0.0000081     0.0000000    -0.0000025     0.0000203
    -0.0000081     0.0000000     0.0000045    -0.0000024     0.0000100
     0.0000000     0.0000045     0.0000000    -0.0000034     0.0000000
    -0.0000025    -0.0000024    -0.0000034     0.0000000    -0.0000020
     0.0000203     0.0000100     0.0000000    -0.0000020     0.0000000
 l=   3
     0.0000000     0.0000000     0.0000000     0.0000000     0.0000000     0.0000000     0.0000000
     0.0000000     0.0000000     0.0000000     0.0000000     0.0000000     0.0000000     0.0000000
     0.0000000     0.0000000     0.0000000     0.0000000     0.0000000     0.0000000     0.0000000
     0.0000000     0.0000000     0.0000000     0.0000000     0.0000000     0.0000000     0.0000000
     0.0000000     0.0000000     0.0000000     0.0000000     0.0000000     0.0000000     0.0000000
     0.0000000     0.0000000     0.0000000     0.0000000     0.0000000     0.0000000     0.0000000
     0.0000000     0.0000000     0.0000000     0.0000000     0.0000000     0.0000000     0.0000000

 Ion:   86  E_soc:     -0.2814134
 l=   1
     0.0000000    -0.0488468    -0.0489680
    -0.0488468     0.0000000    -0.0429156
    -0.0489680    -0.0429156     0.0000000
 l=   2
     0.0000000    -0.0000099     0.0000000    -0.0000025     0.0000226
    -0.0000099     0.0000000     0.0000057    -0.0000022     0.0000138
     0.0000000     0.0000057     0.0000000    -0.0000030     0.0000000
    -0.0000025    -0.0000022    -0.0000030     0.0000000    -0.0000009
     0.0000226     0.0000138     0.0000000    -0.0000009     0.0000000
 l=   3
     0.0000000     0.0000000     0.0000000     0.0000000     0.0000000     0.0000000     0.0000000
     0.0000000     0.0000000     0.0000000     0.0000000     0.0000000     0.0000000     0.0000000
     0.0000000     0.0000000     0.0000000     0.0000000     0.0000000     0.0000000     0.0000000
     0.0000000     0.0000000     0.0000000     0.0000000     0.0000000     0.0000000     0.0000000
     0.0000000     0.0000000     0.0000000     0.0000000     0.0000000     0.0000000     0.0000000
     0.0000000     0.0000000     0.0000000     0.0000000     0.0000000     0.0000000     0.0000000
     0.0000000     0.0000000     0.0000000     0.0000000     0.0000000     0.0000000     0.0000000

 Ion:   87  E_soc:     -0.2814134
 l=   1
     0.0000000    -0.0488468    -0.0489680
    -0.0488468     0.0000000    -0.0429156
    -0.0489680    -0.0429156     0.0000000
 l=   2
     0.0000000    -0.0000099     0.0000000    -0.0000025     0.0000226
    -0.0000099     0.0000000     0.0000057    -0.0000022     0.0000138
     0.0000000     0.0000057     0.0000000    -0.0000030     0.0000000
    -0.0000025    -0.0000022    -0.0000030     0.0000000    -0.0000009
     0.0000226     0.0000138     0.0000000    -0.0000009     0.0000000
 l=   3
     0.0000000     0.0000000     0.0000000     0.0000000     0.0000000     0.0000000     0.0000000
     0.0000000     0.0000000     0.0000000     0.0000000     0.0000000     0.0000000     0.0000000
     0.0000000     0.0000000     0.0000000     0.0000000     0.0000000     0.0000000     0.0000000
     0.0000000     0.0000000     0.0000000     0.0000000     0.0000000     0.0000000     0.0000000
     0.0000000     0.0000000     0.0000000     0.0000000     0.0000000     0.0000000     0.0000000
     0.0000000     0.0000000     0.0000000     0.0000000     0.0000000     0.0000000     0.0000000
     0.0000000     0.0000000     0.0000000     0.0000000     0.0000000     0.0000000     0.0000000

 Ion:   88  E_soc:     -0.2789620
 l=   1
     0.0000000    -0.0477771    -0.0485048
    -0.0477771     0.0000000    -0.0432155
    -0.0485048    -0.0432155     0.0000000
 l=   2
     0.0000000    -0.0000081     0.0000000    -0.0000025     0.0000203
    -0.0000081     0.0000000     0.0000045    -0.0000024     0.0000100
     0.0000000     0.0000045     0.0000000    -0.0000034     0.0000000
    -0.0000025    -0.0000024    -0.0000034     0.0000000    -0.0000020
     0.0000203     0.0000100     0.0000000    -0.0000020     0.0000000
 l=   3
     0.0000000     0.0000000     0.0000000     0.0000000     0.0000000     0.0000000     0.0000000
     0.0000000     0.0000000     0.0000000     0.0000000     0.0000000     0.0000000     0.0000000
     0.0000000     0.0000000     0.0000000     0.0000000     0.0000000     0.0000000     0.0000000
     0.0000000     0.0000000     0.0000000     0.0000000     0.0000000     0.0000000     0.0000000
     0.0000000     0.0000000     0.0000000     0.0000000     0.0000000     0.0000000     0.0000000
     0.0000000     0.0000000     0.0000000     0.0000000     0.0000000     0.0000000     0.0000000
     0.0000000     0.0000000     0.0000000     0.0000000     0.0000000     0.0000000     0.0000000

 Ion:   89  E_soc:     -0.2850744
 l=   1
     0.0000000    -0.0430782    -0.0493271
    -0.0430782     0.0000000    -0.0501499
    -0.0493271    -0.0501499     0.0000000
 l=   2
     0.0000000    -0.0000020     0.0000000    -0.0000072     0.0000176
    -0.0000020     0.0000000    -0.0000023    -0.0000023    -0.0000016
     0.0000000    -0.0000023     0.0000000     0.0000045     0.0000000
    -0.0000072    -0.0000023     0.0000045     0.0000000     0.0000113
     0.0000176    -0.0000016     0.0000000     0.0000113     0.0000000
 l=   3
     0.0000000     0.0000000     0.0000000     0.0000000     0.0000000     0.0000000     0.0000000
     0.0000000     0.0000000     0.0000000     0.0000000     0.0000000     0.0000000     0.0000000
     0.0000000     0.0000000     0.0000000     0.0000000     0.0000000     0.0000000     0.0000000
     0.0000000     0.0000000     0.0000000     0.0000000     0.0000000     0.0000000     0.0000000
     0.0000000     0.0000000     0.0000000     0.0000000     0.0000000     0.0000000     0.0000000
     0.0000000     0.0000000     0.0000000     0.0000000     0.0000000     0.0000000     0.0000000
     0.0000000     0.0000000     0.0000000     0.0000000     0.0000000     0.0000000     0.0000000

 Ion:   90  E_soc:     -0.2850535
 l=   1
     0.0000000    -0.0430779    -0.0493207
    -0.0430779     0.0000000    -0.0501461
    -0.0493207    -0.0501461     0.0000000
 l=   2
     0.0000000    -0.0000020     0.0000000    -0.0000072     0.0000176
    -0.0000020     0.0000000    -0.0000023    -0.0000023    -0.0000016
     0.0000000    -0.0000023     0.0000000     0.0000045     0.0000000
    -0.0000072    -0.0000023     0.0000045     0.0000000     0.0000113
     0.0000176    -0.0000016     0.0000000     0.0000113     0.0000000
 l=   3
     0.0000000     0.0000000     0.0000000     0.0000000     0.0000000     0.0000000     0.0000000
     0.0000000     0.0000000     0.0000000     0.0000000     0.0000000     0.0000000     0.0000000
     0.0000000     0.0000000     0.0000000     0.0000000     0.0000000     0.0000000     0.0000000
     0.0000000     0.0000000     0.0000000     0.0000000     0.0000000     0.0000000     0.0000000
     0.0000000     0.0000000     0.0000000     0.0000000     0.0000000     0.0000000     0.0000000
     0.0000000     0.0000000     0.0000000     0.0000000     0.0000000     0.0000000     0.0000000
     0.0000000     0.0000000     0.0000000     0.0000000     0.0000000     0.0000000     0.0000000

 Ion:   91  E_soc:     -0.2850535
 l=   1
     0.0000000    -0.0430779    -0.0493207
    -0.0430779     0.0000000    -0.0501461
    -0.0493207    -0.0501461     0.0000000
 l=   2
     0.0000000    -0.0000020     0.0000000    -0.0000072     0.0000176
    -0.0000020     0.0000000    -0.0000023    -0.0000023    -0.0000016
     0.0000000    -0.0000023     0.0000000     0.0000045     0.0000000
    -0.0000072    -0.0000023     0.0000045     0.0000000     0.0000113
     0.0000176    -0.0000016     0.0000000     0.0000113     0.0000000
 l=   3
     0.0000000     0.0000000     0.0000000     0.0000000     0.0000000     0.0000000     0.0000000
     0.0000000     0.0000000     0.0000000     0.0000000     0.0000000     0.0000000     0.0000000
     0.0000000     0.0000000     0.0000000     0.0000000     0.0000000     0.0000000     0.0000000
     0.0000000     0.0000000     0.0000000     0.0000000     0.0000000     0.0000000     0.0000000
     0.0000000     0.0000000     0.0000000     0.0000000     0.0000000     0.0000000     0.0000000
     0.0000000     0.0000000     0.0000000     0.0000000     0.0000000     0.0000000     0.0000000
     0.0000000     0.0000000     0.0000000     0.0000000     0.0000000     0.0000000     0.0000000

 Ion:   92  E_soc:     -0.2850744
 l=   1
     0.0000000    -0.0430782    -0.0493271
    -0.0430782     0.0000000    -0.0501499
    -0.0493271    -0.0501499     0.0000000
 l=   2
     0.0000000    -0.0000020     0.0000000    -0.0000072     0.0000176
    -0.0000020     0.0000000    -0.0000023    -0.0000023    -0.0000016
     0.0000000    -0.0000023     0.0000000     0.0000045     0.0000000
    -0.0000072    -0.0000023     0.0000045     0.0000000     0.0000113
     0.0000176    -0.0000016     0.0000000     0.0000113     0.0000000
 l=   3
     0.0000000     0.0000000     0.0000000     0.0000000     0.0000000     0.0000000     0.0000000
     0.0000000     0.0000000     0.0000000     0.0000000     0.0000000     0.0000000     0.0000000
     0.0000000     0.0000000     0.0000000     0.0000000     0.0000000     0.0000000     0.0000000
     0.0000000     0.0000000     0.0000000     0.0000000     0.0000000     0.0000000     0.0000000
     0.0000000     0.0000000     0.0000000     0.0000000     0.0000000     0.0000000     0.0000000
     0.0000000     0.0000000     0.0000000     0.0000000     0.0000000     0.0000000     0.0000000
     0.0000000     0.0000000     0.0000000     0.0000000     0.0000000     0.0000000     0.0000000

 Ion:   93  E_soc:     -0.2850535
 l=   1
     0.0000000    -0.0430779    -0.0493207
    -0.0430779     0.0000000    -0.0501461
    -0.0493207    -0.0501461     0.0000000
 l=   2
     0.0000000    -0.0000020     0.0000000    -0.0000072     0.0000176
    -0.0000020     0.0000000    -0.0000023    -0.0000023    -0.0000016
     0.0000000    -0.0000023     0.0000000     0.0000045     0.0000000
    -0.0000072    -0.0000023     0.0000045     0.0000000     0.0000113
     0.0000176    -0.0000016     0.0000000     0.0000113     0.0000000
 l=   3
     0.0000000     0.0000000     0.0000000     0.0000000     0.0000000     0.0000000     0.0000000
     0.0000000     0.0000000     0.0000000     0.0000000     0.0000000     0.0000000     0.0000000
     0.0000000     0.0000000     0.0000000     0.0000000     0.0000000     0.0000000     0.0000000
     0.0000000     0.0000000     0.0000000     0.0000000     0.0000000     0.0000000     0.0000000
     0.0000000     0.0000000     0.0000000     0.0000000     0.0000000     0.0000000     0.0000000
     0.0000000     0.0000000     0.0000000     0.0000000     0.0000000     0.0000000     0.0000000
     0.0000000     0.0000000     0.0000000     0.0000000     0.0000000     0.0000000     0.0000000

 Ion:   94  E_soc:     -0.2850744
 l=   1
     0.0000000    -0.0430782    -0.0493271
    -0.0430782     0.0000000    -0.0501499
    -0.0493271    -0.0501499     0.0000000
 l=   2
     0.0000000    -0.0000020     0.0000000    -0.0000072     0.0000176
    -0.0000020     0.0000000    -0.0000023    -0.0000023    -0.0000016
     0.0000000    -0.0000023     0.0000000     0.0000045     0.0000000
    -0.0000072    -0.0000023     0.0000045     0.0000000     0.0000113
     0.0000176    -0.0000016     0.0000000     0.0000113     0.0000000
 l=   3
     0.0000000     0.0000000     0.0000000     0.0000000     0.0000000     0.0000000     0.0000000
     0.0000000     0.0000000     0.0000000     0.0000000     0.0000000     0.0000000     0.0000000
     0.0000000     0.0000000     0.0000000     0.0000000     0.0000000     0.0000000     0.0000000
     0.0000000     0.0000000     0.0000000     0.0000000     0.0000000     0.0000000     0.0000000
     0.0000000     0.0000000     0.0000000     0.0000000     0.0000000     0.0000000     0.0000000
     0.0000000     0.0000000     0.0000000     0.0000000     0.0000000     0.0000000     0.0000000
     0.0000000     0.0000000     0.0000000     0.0000000     0.0000000     0.0000000     0.0000000

 Ion:   95  E_soc:     -0.2850744
 l=   1
     0.0000000    -0.0430782    -0.0493271
    -0.0430782     0.0000000    -0.0501499
    -0.0493271    -0.0501499     0.0000000
 l=   2
     0.0000000    -0.0000020     0.0000000    -0.0000072     0.0000176
    -0.0000020     0.0000000    -0.0000023    -0.0000023    -0.0000016
     0.0000000    -0.0000023     0.0000000     0.0000045     0.0000000
    -0.0000072    -0.0000023     0.0000045     0.0000000     0.0000113
     0.0000176    -0.0000016     0.0000000     0.0000113     0.0000000
 l=   3
     0.0000000     0.0000000     0.0000000     0.0000000     0.0000000     0.0000000     0.0000000
     0.0000000     0.0000000     0.0000000     0.0000000     0.0000000     0.0000000     0.0000000
     0.0000000     0.0000000     0.0000000     0.0000000     0.0000000     0.0000000     0.0000000
     0.0000000     0.0000000     0.0000000     0.0000000     0.0000000     0.0000000     0.0000000
     0.0000000     0.0000000     0.0000000     0.0000000     0.0000000     0.0000000     0.0000000
     0.0000000     0.0000000     0.0000000     0.0000000     0.0000000     0.0000000     0.0000000
     0.0000000     0.0000000     0.0000000     0.0000000     0.0000000     0.0000000     0.0000000

 Ion:   96  E_soc:     -0.2850535
 l=   1
     0.0000000    -0.0430779    -0.0493207
    -0.0430779     0.0000000    -0.0501461
    -0.0493207    -0.0501461     0.0000000
 l=   2
     0.0000000    -0.0000020     0.0000000    -0.0000072     0.0000176
    -0.0000020     0.0000000    -0.0000023    -0.0000023    -0.0000016
     0.0000000    -0.0000023     0.0000000     0.0000045     0.0000000
    -0.0000072    -0.0000023     0.0000045     0.0000000     0.0000113
     0.0000176    -0.0000016     0.0000000     0.0000113     0.0000000
 l=   3
     0.0000000     0.0000000     0.0000000     0.0000000     0.0000000     0.0000000     0.0000000
     0.0000000     0.0000000     0.0000000     0.0000000     0.0000000     0.0000000     0.0000000
     0.0000000     0.0000000     0.0000000     0.0000000     0.0000000     0.0000000     0.0000000
     0.0000000     0.0000000     0.0000000     0.0000000     0.0000000     0.0000000     0.0000000
     0.0000000     0.0000000     0.0000000     0.0000000     0.0000000     0.0000000     0.0000000
     0.0000000     0.0000000     0.0000000     0.0000000     0.0000000     0.0000000     0.0000000
     0.0000000     0.0000000     0.0000000     0.0000000     0.0000000     0.0000000     0.0000000

 total amount of memory used by VASP on root node   392927. kBytes
========================================================================

   base      :      30000. kBytes
   nonl-proj :      73667. kBytes
   fftplans  :      22714. kBytes
   grid      :      35610. kBytes
   one-center:        248. kBytes
   wavefun   :     230688. kBytes
 
  
  
 General timing and accounting informations for this job:
 ========================================================
  
                  Total CPU time used (sec):     8697.592
                            User time (sec):     8684.923
                          System time (sec):       12.669
                         Elapsed time (sec):     8709.334
  
                   Maximum memory used (kb):      412660.
                   Average memory used (kb):           0.
  
                          Minor page faults:       594483
                          Major page faults:            0
                 Voluntary context switches:        15761
