 running on  192 total cores
 distrk:  each k-point on  192 cores,    1 groups
 distr:  one band on   24 cores,    8 groups
 using from now: INCAR     
 vasp.5.4.1 24Jun15 (build Nov 25 2015 16:39:35) complex                        
  
 POSCAR found type information on POSCAR  C  N  H  Pb I 
 POSCAR found :  5 types and      96 ions
 scaLAPACK will be used

 ----------------------------------------------------------------------------- 
|                                                                             |
|  ADVICE TO THIS USER RUNNING 'VASP/VAMP'   (HEAR YOUR MASTER'S VOICE ...):  |
|                                                                             |
|      You have a (more or less) 'large supercell' and for larger cells       |
|      it might be more efficient to use real space projection opertators     |
|      So try LREAL= Auto  in the INCAR   file.                               |
|      Mind: At the moment your POTCAR file does not contain real space       |
|       projectors, and has to be modified,  BUT if you                       |
|      want to do an extremely  accurate calculation you might also keep the  |
|      reciprocal projection scheme          (i.e. LREAL=.FALSE.)             |
|                                                                             |
 ----------------------------------------------------------------------------- 


 ----------------------------------------------------------------------------- 
|                                                                             |
|  ADVICE TO THIS USER RUNNING 'VASP/VAMP'   (HEAR YOUR MASTER'S VOICE ...):  |
|                                                                             |
|      You enforced a specific xc-type in the INCAR file,                     |
|      a different type was found on the POTCAR file                          |
|          I HOPE YOU KNOW, WHAT YOU ARE  DOING                               |
|                                                                             |
 ----------------------------------------------------------------------------- 

 LDA part: xc-table for Pade appr. of Perdew
 POSCAR, INCAR and KPOINTS ok, starting setup
 WARNING: small aliasing (wrap around) errors must be expected
 FFT: planning ...
 WAVECAR not read
 entering main loop
       N       E                     dE             d eps       ncg     rms          rms(c)
DAV:   1     0.421947147926E+04    0.42195E+04   -0.19284E+05 32544   0.146E+03
DAV:   2     0.841716229175E+03   -0.33778E+04   -0.31283E+04 35584   0.322E+02
DAV:   3     0.232689086528E+03   -0.60903E+03   -0.58885E+03 43976   0.156E+02
DAV:   4     0.186928727446E+03   -0.45760E+02   -0.44659E+02 44128   0.438E+01
DAV:   5     0.184738657391E+03   -0.21901E+01   -0.21822E+01 50440   0.992E+00    0.976E+01
DAV:   6     0.552635286955E+02   -0.12948E+03   -0.15094E+03 37008   0.507E+01    0.489E+01
DAV:   7    -0.936583546678E+02   -0.14892E+03   -0.16068E+02 38800   0.221E+01    0.284E+01
DAV:   8    -0.201040583821E+03   -0.10738E+03   -0.65098E+01 37680   0.130E+01    0.185E+01
DAV:   9    -0.332191727280E+03   -0.13115E+03   -0.12103E+02 36520   0.161E+01    0.925E+00
DAV:  10    -0.380776439789E+03   -0.48585E+02   -0.47967E+01 37248   0.104E+01    0.663E+00
DAV:  11    -0.410508804369E+03   -0.29732E+02   -0.41139E+01 37736   0.840E+00    0.377E+00
DAV:  12    -0.421128352462E+03   -0.10620E+02   -0.16484E+01 41344   0.539E+00    0.254E+00
DAV:  13    -0.422815053291E+03   -0.16867E+01   -0.24865E+00 39920   0.254E+00    0.207E+00
DAV:  14    -0.423424287654E+03   -0.60923E+00   -0.89016E-01 38864   0.135E+00    0.112E+00
DAV:  15    -0.423486904859E+03   -0.62617E-01   -0.17385E-01 42440   0.708E-01    0.637E-01
DAV:  16    -0.423494081573E+03   -0.71767E-02   -0.25772E-02 41840   0.304E-01    0.412E-01
DAV:  17    -0.423497496463E+03   -0.34149E-02   -0.92806E-03 39208   0.167E-01    0.221E-01
DAV:  18    -0.423499100797E+03   -0.16043E-02   -0.30189E-03 40104   0.945E-02    0.836E-02
DAV:  19    -0.423499532263E+03   -0.43147E-03   -0.70953E-04 39672   0.514E-02    0.448E-02
DAV:  20    -0.423499822310E+03   -0.29005E-03   -0.21762E-04 37464   0.291E-02    0.235E-02
DAV:  21    -0.423499949442E+03   -0.12713E-03   -0.12589E-04 39256   0.188E-02    0.150E-02
DAV:  22    -0.423499958579E+03   -0.91363E-05   -0.19582E-05 43872   0.874E-03    0.106E-02
DAV:  23    -0.423499961054E+03   -0.24755E-05   -0.67533E-06 40800   0.417E-03    0.413E-03
DAV:  24    -0.423499963233E+03   -0.21785E-05   -0.25964E-06 35368   0.295E-03    0.169E-03
DAV:  25    -0.423499963314E+03   -0.81087E-07   -0.65840E-07 41456   0.140E-03    0.138E-03
DAV:  26    -0.423499963311E+03    0.26666E-08   -0.12019E-07 43224   0.740E-04    0.983E-04
DAV:  27    -0.423499963233E+03    0.77642E-07   -0.40367E-08 34624   0.440E-04    0.366E-04
DAV:  28    -0.423499963146E+03    0.87301E-07   -0.22380E-08 31920   0.289E-04    0.285E-04
DAV:  29    -0.423499963142E+03    0.45075E-08   -0.32105E-09 29752   0.151E-04
   1 F= -.42349996E+03 E0= -.42349996E+03  d E =0.000000E+00  mag=     0.0000     0.0000     0.0000
Application 22254249 resources: utime ~1667665s, stime ~2602s, Rss ~416060, inblocks ~2672816, outblocks ~3872179
