 running on   96 total cores
 distrk:  each k-point on   24 cores,    4 groups
 distr:  one band on    6 cores,    4 groups
 using from now: INCAR     
 vasp.5.4.1 24Jun15 (build Nov 25 2015 16:01:35) complex                        
  
 POSCAR found type information on POSCAR  Ga As
 POSCAR found :  2 types and       2 ions
 scaLAPACK will be used

 ----------------------------------------------------------------------------- 
|                                                                             |
|           W    W    AA    RRRRR   N    N  II  N    N   GGGG   !!!           |
|           W    W   A  A   R    R  NN   N  II  NN   N  G    G  !!!           |
|           W    W  A    A  R    R  N N  N  II  N N  N  G       !!!           |
|           W WW W  AAAAAA  RRRRR   N  N N  II  N  N N  G  GGG   !            |
|           WW  WW  A    A  R   R   N   NN  II  N   NN  G    G                |
|           W    W  A    A  R    R  N    N  II  N    N   GGGG   !!!           |
|                                                                             |
|      You have enabled k-point parallelism (KPAR>1).                         |
|      This developmental code was originally  written by Paul Kent at ORNL,  |
|      and carefully double checked in Vienna.                                |
|      GW as well as linear response parallelism added by Martijn Marsman     |
|      and Georg Kresse.                                                      |
|      Carefully verify results versus KPAR=1.                                |
|      Report problems to Paul Kent and Vienna.                               |
|                                                                             |
 ----------------------------------------------------------------------------- 

 LDA part: xc-table for Ceperly-Alder, standard interpolation
 POSCAR, INCAR and KPOINTS ok, starting setup
 WARNING: small aliasing (wrap around) errors must be expected
 FFT: planning ...
 WAVECAR not read
 charge-density read from file: Name                                    
 WARNING: random wavefunctions but no delay for mixing, default for NELMDL
 entering main loop
       N       E                     dE             d eps       ncg     rms          rms(c)
DAV:   1     0.841006248352E+02    0.84101E+02   -0.89368E+03  5288   0.179E+03
DAV:   2    -0.633255495791E+00   -0.84734E+02   -0.80647E+02  5576   0.358E+02
DAV:   3    -0.941991839091E+01   -0.87867E+01   -0.87498E+01  6464   0.793E+01
DAV:   4    -0.957444025690E+01   -0.15452E+00   -0.15451E+00  6080   0.113E+01
DAV:   5    -0.957600466651E+01   -0.15644E-02   -0.15644E-02  6712   0.129E+00
DAV:   6    -0.957602770452E+01   -0.23038E-04   -0.23038E-04  6112   0.132E-01
DAV:   7    -0.957602816935E+01   -0.46482E-06   -0.46482E-06  6696   0.196E-02
   1 F= -.95760282E+01 E0= -.95760282E+01  d E =-.957603E+01
 curvature:   0.00 expect dE= 0.000E+00 dE for cont linesearch  0.000E+00
 trial: gam= 0.00000 g(F)=  0.824E-47 g(S)=  0.162E-01 ort = 0.000E+00 (trialstep = 0.100E+01)
 search vector abs. value=  0.162E-01
 writing wavefunctions
Application 21890115 resources: utime ~581s, stime ~15s, Rss ~36884, inblocks ~653797, outblocks ~841475
