   12   12    1    1
  0.2070820E+02  0.6290120E-09  0.6273890E-09  0.6297040E-09  0.5000000E-15
  1.000000000000000E-004
  CAR 
 Name                                    
     50    628     52
 
  0.0000000E+00  0.0000000E+00  0.0000000E+00  0.4629630E-02
    1      -20.844675   1.000000
    2      -17.169833   1.000000
    3      -17.145174   1.000000
    4      -17.097208   1.000000
    5      -17.079169   1.000000
    6      -17.074813   1.000000
    7      -13.301229   1.000000
    8      -12.366265   1.000000
    9      -11.576854   1.000000
   10      -11.283558   1.000000
   11       -9.263435   1.000000
   12       -9.089510   1.000000
   13       -7.043719   1.000000
   14       -6.025622   1.000000
   15       -4.746676   1.000000
   16       -4.730115   1.000000
   17       -2.827960   1.000000
   18       -2.826093   1.000000
   19       -2.655973   1.000000
   20       -0.628022   1.000000
   21       -0.605204   1.000000
   22       -0.525920   1.000000
   23       -0.372095   1.000000
   24       -0.108905   1.000000
   25       -0.094332   1.000000
   26        5.533586   0.000000
   27        6.454956   0.000000
   28        6.615013   0.000000
   29        6.862471   0.000000
   30        6.991623   0.000000
   31        7.012923   0.000000
   32        7.860431   0.000000
   33        8.261821   0.000000
   34        8.441940   0.000000
   35        9.194351   0.000000
   36        9.611558   0.000000
   37        9.818408   0.000000
   38        9.980054   0.000000
   39       10.639785   0.000000
   40       10.752366   0.000000
   41       10.964310   0.000000
   42       11.174306   0.000000
   43       11.308560   0.000000
   44       12.315858   0.000000
   45       12.591949   0.000000
   46       12.636064   0.000000
   47       13.140528   0.000000
   48       13.366854   0.000000
   49       13.781578   0.000000
   50       13.796423   0.000000
   51       14.318306   0.000000
   52       14.983081   0.000000
 
  0.1666667E+00  0.0000000E+00  0.0000000E+00  0.9259259E-02
    1      -20.844395   1.000000
    2      -17.169824   1.000000
    3      -17.142291   1.000000
    4      -17.097208   1.000000
    5      -17.079361   1.000000
    6      -17.074990   1.000000
    7      -13.314922   1.000000
    8      -12.318391   1.000000
    9      -11.576294   1.000000
   10      -11.323871   1.000000
   11       -9.260976   1.000000
   12       -9.086656   1.000000
   13       -7.047444   1.000000
   14       -6.236135   1.000000
   15       -4.766585   1.000000
   16       -4.748865   1.000000
   17       -2.796974   1.000000
   18       -2.787824   1.000000
   19       -2.192094   1.000000
   20       -0.616880   1.000000
   21       -0.603910   1.000000
   22       -0.518344   1.000000
   23       -0.333978   1.000000
   24       -0.176447   1.000000
   25       -0.152042   1.000000
   26        5.664657   0.000000
   27        6.444241   0.000000
   28        6.564134   0.000000
   29        6.804817   0.000000
   30        7.033367   0.000000
   31        7.114659   0.000000
   32        7.167761   0.000000
   33        8.313556   0.000000
   34        8.429352   0.000000
   35        9.204484   0.000000
   36        9.423676   0.000000
   37        9.661213   0.000000
   38        9.740512   0.000000
   39       10.589005   0.000000
   40       10.945444   0.000000
   41       11.180846   0.000000
   42       11.335453   0.000000
   43       11.666664   0.000000
   44       12.305689   0.000000
   45       12.626156   0.000000
   46       12.847751   0.000000
   47       13.099698   0.000000
   48       13.294677   0.000000
   49       13.459142   0.000000
   50       13.519546   0.000000
   51       13.872171   0.000000
   52       14.179805   0.000000
 
  0.3333333E+00  0.0000000E+00  0.0000000E+00  0.9259259E-02
    1      -20.843849   1.000000
    2      -17.169814   1.000000
    3      -17.136517   1.000000
    4      -17.097214   1.000000
    5      -17.079749   1.000000
    6      -17.075355   1.000000
    7      -13.340397   1.000000
    8      -12.209269   1.000000
    9      -11.575002   1.000000
   10      -11.421264   1.000000
   11       -9.255975   1.000000
   12       -9.080938   1.000000
   13       -7.052485   1.000000
   14       -6.564916   1.000000
   15       -4.805348   1.000000
   16       -4.785815   1.000000
   17       -2.720255   1.000000
   18       -2.703750   1.000000
   19       -1.409024   1.000000
   20       -0.669010   1.000000
   21       -0.556597   1.000000
   22       -0.479277   1.000000
   23       -0.313232   1.000000
   24       -0.282352   1.000000
   25       -0.018857   1.000000
   26        5.043317   0.000000
   27        5.875580   0.000000
   28        6.476883   0.000000
   29        6.766297   0.000000
   30        6.985406   0.000000
   31        7.464619   0.000000
   32        7.657515   0.000000
   33        8.200610   0.000000
   34        8.430884   0.000000
   35        8.770693   0.000000
   36        9.433054   0.000000
   37        9.650716   0.000000
   38        9.739376   0.000000
   39       10.548667   0.000000
   40       10.742346   0.000000
   41       11.373557   0.000000
   42       11.429232   0.000000
   43       11.631163   0.000000
   44       12.086991   0.000000
   45       12.576639   0.000000
   46       12.904616   0.000000
   47       12.968602   0.000000
   48       13.026331   0.000000
   49       13.318352   0.000000
   50       13.587346   0.000000
   51       13.734233   0.000000
   52       14.186867   0.000000
 
  0.5000000E+00  0.0000000E+00  0.0000000E+00  0.4629630E-02
    1      -20.843609   1.000000
    2      -17.169813   1.000000
    3      -17.133622   1.000000
    4      -17.097227   1.000000
    5      -17.079963   1.000000
    6      -17.075552   1.000000
    7      -13.352403   1.000000
    8      -12.143146   1.000000
    9      -11.573922   1.000000
   10      -11.483424   1.000000
   11       -9.253507   1.000000
   12       -9.078078   1.000000
   13       -7.052182   1.000000
   14       -6.702517   1.000000
   15       -4.824220   1.000000
   16       -4.803927   1.000000
   17       -2.678963   1.000000
   18       -2.659344   1.000000
   19       -1.150985   1.000000
   20       -0.700431   1.000000
   21       -0.534663   1.000000
   22       -0.452366   1.000000
   23       -0.381696   1.000000
   24       -0.342989   1.000000
   25        0.428594   1.000000
   26        4.120641   0.000000
   27        5.811256   0.000000
   28        6.513614   0.000000
   29        7.028695   0.000000
   30        7.048440   0.000000
   31        7.647722   0.000000
   32        8.045905   0.000000
   33        8.077287   0.000000
   34        8.403438   0.000000
   35        8.544786   0.000000
   36        9.173608   0.000000
   37        9.564574   0.000000
   38       10.145903   0.000000
   39       10.643709   0.000000
   40       10.740066   0.000000
   41       10.941934   0.000000
   42       10.997785   0.000000
   43       11.562181   0.000000
   44       12.300878   0.000000
   45       12.396827   0.000000
   46       12.670248   0.000000
   47       12.952360   0.000000
   48       13.189141   0.000000
   49       13.336502   0.000000
   50       13.728627   0.000000
   51       14.062442   0.000000
   52       14.185774   0.000000
 
  0.0000000E+00  0.1666667E+00  0.0000000E+00  0.9259259E-02
    1      -20.844404   1.000000
    2      -17.167616   1.000000
    3      -17.144130   1.000000
    4      -17.097398   1.000000
    5      -17.079172   1.000000
    6      -17.075020   1.000000
    7      -13.299528   1.000000
    8      -12.327663   1.000000
    9      -11.621407   1.000000
   10      -11.301968   1.000000
   11       -9.237240   1.000000
   12       -9.090806   1.000000
   13       -7.054010   1.000000
   14       -6.240979   1.000000
   15       -4.757831   1.000000
   16       -4.729058   1.000000
   17       -2.804869   1.000000
   18       -2.674185   1.000000
   19       -2.279161   1.000000
   20       -0.729320   1.000000
   21       -0.600764   1.000000
   22       -0.530140   1.000000
   23       -0.407270   1.000000
   24       -0.127281   1.000000
   25       -0.089215   1.000000
   26        5.749808   0.000000
   27        6.287386   0.000000
   28        6.551919   0.000000
   29        6.908686   0.000000
   30        7.078502   0.000000
   31        7.246383   0.000000
   32        7.673733   0.000000
   33        7.942838   0.000000
   34        8.438274   0.000000
   35        8.959387   0.000000
   36        9.571875   0.000000
   37        9.704292   0.000000
   38       10.065408   0.000000
   39       10.339727   0.000000
   40       10.585580   0.000000
   41       10.858156   0.000000
   42       11.142290   0.000000
   43       11.709070   0.000000
   44       12.139360   0.000000
   45       12.280838   0.000000
   46       12.604864   0.000000
   47       13.006230   0.000000
   48       13.140792   0.000000
   49       13.472711   0.000000
   50       13.832301   0.000000
   51       14.437508   0.000000
   52       14.600668   0.000000
 
  0.1666667E+00  0.1666667E+00  0.0000000E+00  0.9259259E-02
    1      -20.844115   1.000000
    2      -17.167584   1.000000
    3      -17.141256   1.000000
    4      -17.097400   1.000000
    5      -17.079362   1.000000
    6      -17.075204   1.000000
    7      -13.311625   1.000000
    8      -12.282851   1.000000
    9      -11.620312   1.000000
   10      -11.338576   1.000000
   11       -9.236305   1.000000
   12       -9.088379   1.000000
   13       -7.056242   1.000000
   14       -6.441046   1.000000
   15       -4.772083   1.000000
   16       -4.742157   1.000000
   17       -2.785297   1.000000
   18       -2.408199   1.000000
   19       -2.047716   1.000000
   20       -0.726491   1.000000
   21       -0.642806   1.000000
   22       -0.544704   1.000000
   23       -0.366941   1.000000
   24       -0.164484   1.000000
   25       -0.095207   1.000000
   26        5.832501   0.000000
   27        6.193488   0.000000
   28        6.532745   0.000000
   29        6.898978   0.000000
   30        7.033195   0.000000
   31        7.123825   0.000000
   32        7.342740   0.000000
   33        7.977332   0.000000
   34        8.417074   0.000000
   35        9.005156   0.000000
   36        9.315923   0.000000
   37        9.541475   0.000000
   38       10.003657   0.000000
   39       10.516636   0.000000
   40       10.746057   0.000000
   41       11.006664   0.000000
   42       11.129209   0.000000
   43       11.707261   0.000000
   44       12.114322   0.000000
   45       12.471266   0.000000
   46       12.713974   0.000000
   47       12.843536   0.000000
   48       13.288965   0.000000
   49       13.545607   0.000000
   50       13.794874   0.000000
   51       14.156867   0.000000
   52       14.375086   0.000000
 
  0.3333333E+00  0.1666667E+00  0.0000000E+00  0.9259259E-02
    1      -20.843588   1.000000
    2      -17.167546   1.000000
    3      -17.135483   1.000000
    4      -17.097402   1.000000
    5      -17.079748   1.000000
    6      -17.075569   1.000000
    7      -13.334571   1.000000
    8      -12.180206   1.000000
    9      -11.618182   1.000000
   10      -11.427362   1.000000
   11       -9.234337   1.000000
   12       -9.083487   1.000000
   13       -7.061611   1.000000
   14       -6.757424   1.000000
   15       -4.799848   1.000000
   16       -4.770545   1.000000
   17       -2.713414   1.000000
   18       -2.253948   1.000000
   19       -1.381819   1.000000
   20       -0.785249   1.000000
   21       -0.643672   1.000000
   22       -0.515935   1.000000
   23       -0.341923   1.000000
   24       -0.144650   1.000000
   25        0.028895   1.000000
   26        4.959671   0.000000
   27        5.964121   0.000000
   28        6.290395   0.000000
   29        6.875886   0.000000
   30        6.930673   0.000000
   31        7.344689   0.000000
   32        7.727618   0.000000
   33        8.130744   0.000000
   34        8.291476   0.000000
   35        8.845707   0.000000
   36        9.432000   0.000000
   37        9.592770   0.000000
   38        9.830907   0.000000
   39       10.353746   0.000000
   40       10.750653   0.000000
   41       11.016639   0.000000
   42       11.415199   0.000000
   43       11.564983   0.000000
   44       12.094803   0.000000
   45       12.417265   0.000000
   46       12.552646   0.000000
   47       12.820041   0.000000
   48       13.153696   0.000000
   49       13.413270   0.000000
   50       13.510280   0.000000
   51       13.781165   0.000000
   52       14.631657   0.000000
 
  0.5000000E+00  0.1666667E+00  0.0000000E+00  0.9259259E-02
    1      -20.843336   1.000000
    2      -17.167535   1.000000
    3      -17.132582   1.000000
    4      -17.097404   1.000000
    5      -17.079950   1.000000
    6      -17.075754   1.000000
    7      -13.345466   1.000000
    8      -12.117933   1.000000
    9      -11.617174   1.000000
   10      -11.483883   1.000000
   11       -9.233297   1.000000
   12       -9.081002   1.000000
   13       -7.065710   1.000000
   14       -6.887376   1.000000
   15       -4.812051   1.000000
   16       -4.786521   1.000000
   17       -2.673795   1.000000
   18       -2.197408   1.000000
   19       -1.198546   1.000000
   20       -0.819466   1.000000
   21       -0.623809   1.000000
   22       -0.473585   1.000000
   23       -0.408116   1.000000
   24       -0.130921   1.000000
   25        0.466793   1.000000
   26        4.033642   0.000000
   27        5.943643   0.000000
   28        6.231389   0.000000
   29        6.947479   0.000000
   30        7.119644   0.000000
   31        7.508717   0.000000
   32        7.865850   0.000000
   33        8.179063   0.000000
   34        8.339210   0.000000
   35        8.743056   0.000000
   36        9.173094   0.000000
   37        9.604413   0.000000
   38       10.246173   0.000000
   39       10.370556   0.000000
   40       10.458818   0.000000
   41       10.944487   0.000000
   42       11.141739   0.000000
   43       11.623612   0.000000
   44       12.073968   0.000000
   45       12.397204   0.000000
   46       12.460876   0.000000
   47       12.852004   0.000000
   48       12.916776   0.000000
   49       13.305409   0.000000
   50       13.619270   0.000000
   51       13.961348   0.000000
   52       14.625295   0.000000
 
 -0.3333333E+00  0.1666667E+00  0.0000000E+00  0.9259259E-02
    1      -20.843575   1.000000
    2      -17.167534   1.000000
    3      -17.135471   1.000000
    4      -17.097390   1.000000
    5      -17.079736   1.000000
    6      -17.075558   1.000000
    7      -13.334574   1.000000
    8      -12.180170   1.000000
    9      -11.618192   1.000000
   10      -11.427330   1.000000
   11       -9.234314   1.000000
   12       -9.083439   1.000000
   13       -7.061621   1.000000
   14       -6.757471   1.000000
   15       -4.799760   1.000000
   16       -4.770758   1.000000
   17       -2.713443   1.000000
   18       -2.253685   1.000000
   19       -1.381924   1.000000
   20       -0.785119   1.000000
   21       -0.643538   1.000000
   22       -0.515730   1.000000
   23       -0.341885   1.000000
   24       -0.144404   1.000000
   25        0.028472   1.000000
   26        4.959964   0.000000
   27        5.963831   0.000000
   28        6.290034   0.000000
   29        6.876776   0.000000
   30        6.929710   0.000000
   31        7.345188   0.000000
   32        7.727515   0.000000
   33        8.129999   0.000000
   34        8.290845   0.000000
   35        8.844774   0.000000
   36        9.431795   0.000000
   37        9.592732   0.000000
   38        9.830622   0.000000
   39       10.354568   0.000000
   40       10.753104   0.000000
   41       11.017282   0.000000
   42       11.414724   0.000000
   43       11.565205   0.000000
   44       12.091852   0.000000
   45       12.416376   0.000000
   46       12.567522   0.000000
   47       12.811716   0.000000
   48       13.156988   0.000000
   49       13.351606   0.000000
   50       13.405865   0.000000
   51       13.770494   0.000000
   52       14.459880   0.000000
 
 -0.1666667E+00  0.1666667E+00  0.0000000E+00  0.9259259E-02
    1      -20.844109   1.000000
    2      -17.167578   1.000000
    3      -17.141250   1.000000
    4      -17.097394   1.000000
    5      -17.079356   1.000000
    6      -17.075198   1.000000
    7      -13.311636   1.000000
    8      -12.282822   1.000000
    9      -11.620323   1.000000
   10      -11.338553   1.000000
   11       -9.236290   1.000000
   12       -9.088336   1.000000
   13       -7.056270   1.000000
   14       -6.441097   1.000000
   15       -4.772021   1.000000
   16       -4.742361   1.000000
   17       -2.785314   1.000000
   18       -2.407579   1.000000
   19       -2.048232   1.000000
   20       -0.726271   1.000000
   21       -0.643022   1.000000
   22       -0.544225   1.000000
   23       -0.366833   1.000000
   24       -0.164519   1.000000
   25       -0.095398   1.000000
   26        5.832095   0.000000
   27        6.195122   0.000000
   28        6.531225   0.000000
   29        6.899234   0.000000
   30        7.033111   0.000000
   31        7.123441   0.000000
   32        7.342141   0.000000
   33        7.977767   0.000000
   34        8.417299   0.000000
   35        9.003805   0.000000
   36        9.314749   0.000000
   37        9.541213   0.000000
   38       10.004436   0.000000
   39       10.516826   0.000000
   40       10.747329   0.000000
   41       11.007181   0.000000
   42       11.130390   0.000000
   43       11.705776   0.000000
   44       12.113933   0.000000
   45       12.471822   0.000000
   46       12.710992   0.000000
   47       12.844923   0.000000
   48       13.339502   0.000000
   49       13.475041   0.000000
   50       13.786955   0.000000
   51       14.247420   0.000000
   52       14.860350   0.000000
 
  0.0000000E+00  0.3333333E+00  0.0000000E+00  0.9259259E-02
    1      -20.843850   1.000000
    2      -17.163796   1.000000
    3      -17.141407   1.000000
    4      -17.097792   1.000000
    5      -17.079177   1.000000
    6      -17.075454   1.000000
    7      -13.296038   1.000000
    8      -12.226396   1.000000
    9      -11.739428   1.000000
   10      -11.332967   1.000000
   11       -9.185296   1.000000
   12       -9.095918   1.000000
   13       -7.070074   1.000000
   14       -6.574996   1.000000
   15       -4.774520   1.000000
   16       -4.732448   1.000000
   17       -2.731069   1.000000
   18       -2.561799   1.000000
   19       -1.453896   1.000000
   20       -0.866372   1.000000
   21       -0.718672   1.000000
   22       -0.471624   1.000000
   23       -0.394296   1.000000
   24       -0.126081   1.000000
   25       -0.042116   1.000000
   26        4.988304   0.000000
   27        6.300305   0.000000
   28        6.537601   0.000000
   29        7.102428   0.000000
   30        7.340710   0.000000
   31        7.579880   0.000000
   32        7.734220   0.000000
   33        7.955466   0.000000
   34        8.401716   0.000000
   35        9.023956   0.000000
   36        9.303880   0.000000
   37        9.551982   0.000000
   38        9.813093   0.000000
   39        9.918448   0.000000
   40       10.324102   0.000000
   41       10.630050   0.000000
   42       11.059998   0.000000
   43       11.214032   0.000000
   44       11.822318   0.000000
   45       12.284003   0.000000
   46       12.400665   0.000000
   47       12.718587   0.000000
   48       13.016943   0.000000
   49       13.322417   0.000000
   50       13.439298   0.000000
   51       14.130667   0.000000
   52       14.807802   0.000000
 
  0.1666667E+00  0.3333333E+00  0.0000000E+00  0.9259259E-02
    1      -20.843566   1.000000
    2      -17.163661   1.000000
    3      -17.138613   1.000000
    4      -17.097796   1.000000
    5      -17.079358   1.000000
    6      -17.075639   1.000000
    7      -13.305111   1.000000
    8      -12.188946   1.000000
    9      -11.734927   1.000000
   10      -11.363236   1.000000
   11       -9.187630   1.000000
   12       -9.094204   1.000000
   13       -7.068704   1.000000
   14       -6.766815   1.000000
   15       -4.772726   1.000000
   16       -4.742016   1.000000
   17       -2.714903   1.000000
   18       -2.129241   1.000000
   19       -1.426928   1.000000
   20       -0.931639   1.000000
   21       -0.753022   1.000000
   22       -0.489869   1.000000
   23       -0.282947   1.000000
   24       -0.173662   1.000000
   25        0.002157   1.000000
   26        4.894835   0.000000
   27        6.214344   0.000000
   28        6.571634   0.000000
   29        6.919322   0.000000
   30        7.247153   0.000000
   31        7.265498   0.000000
   32        7.842097   0.000000
   33        7.976032   0.000000
   34        8.359593   0.000000
   35        8.889257   0.000000
   36        9.262415   0.000000
   37        9.498141   0.000000
   38        9.940709   0.000000
   39       10.189917   0.000000
   40       10.406140   0.000000
   41       10.687549   0.000000
   42       10.881716   0.000000
   43       11.386807   0.000000
   44       11.860840   0.000000
   45       12.153845   0.000000
   46       12.340908   0.000000
   47       12.660385   0.000000
   48       13.051239   0.000000
   49       13.347771   0.000000
   50       13.798326   0.000000
   51       14.102417   0.000000
   52       14.514082   0.000000
 
  0.3333333E+00  0.3333333E+00  0.0000000E+00  0.9259259E-02
    1      -20.843040   1.000000
    2      -17.163460   1.000000
    3      -17.132946   1.000000
    4      -17.097790   1.000000
    5      -17.079742   1.000000
    6      -17.076005   1.000000
    7      -13.322757   1.000000
    8      -12.102085   1.000000
    9      -11.725846   1.000000
   10      -11.437262   1.000000
   11       -9.191887   1.000000
   12       -9.090663   1.000000
   13       -7.131435   1.000000
   14       -7.014922   1.000000
   15       -4.784644   1.000000
   16       -4.748988   1.000000
   17       -2.646321   1.000000
   18       -1.513111   1.000000
   19       -1.331298   1.000000
   20       -0.974343   1.000000
   21       -0.725137   1.000000
   22       -0.540595   1.000000
   23       -0.337233   1.000000
   24        0.059691   1.000000
   25        0.176204   1.000000
   26        4.612850   0.000000
   27        4.976540   0.000000
   28        6.642298   0.000000
   29        6.762299   0.000000
   30        7.174004   0.000000
   31        7.648735   0.000000
   32        7.948497   0.000000
   33        8.103694   0.000000
   34        8.276067   0.000000
   35        8.955681   0.000000
   36        9.270264   0.000000
   37        9.607672   0.000000
   38        9.787219   0.000000
   39       10.050409   0.000000
   40       10.651138   0.000000
   41       10.909407   0.000000
   42       11.230888   0.000000
   43       11.291810   0.000000
   44       11.813353   0.000000
   45       12.014475   0.000000
   46       12.137965   0.000000
   47       12.623948   0.000000
   48       12.780316   0.000000
   49       12.938685   0.000000
   50       13.797978   0.000000
   51       14.139022   0.000000
   52       14.524956   0.000000
 
  0.5000000E+00  0.3333333E+00  0.0000000E+00  0.9259259E-02
    1      -20.842799   1.000000
    2      -17.163392   1.000000
    3      -17.130074   1.000000
    4      -17.097796   1.000000
    5      -17.079941   1.000000
    6      -17.076190   1.000000
    7      -13.331339   1.000000
    8      -12.049064   1.000000
    9      -11.721130   1.000000
   10      -11.484809   1.000000
   11       -9.193781   1.000000
   12       -9.088833   1.000000
   13       -7.248184   1.000000
   14       -7.030073   1.000000
   15       -4.794720   1.000000
   16       -4.749049   1.000000
   17       -2.607652   1.000000
   18       -1.403633   1.000000
   19       -1.317469   1.000000
   20       -0.880771   1.000000
   21       -0.721641   1.000000
   22       -0.521810   1.000000
   23       -0.414457   1.000000
   24        0.131102   1.000000
   25        0.645244   1.000000
   26        3.838919   0.000000
   27        4.707773   0.000000
   28        6.632398   0.000000
   29        6.768590   0.000000
   30        7.267116   0.000000
   31        7.854245   0.000000
   32        7.899302   0.000000
   33        8.191882   0.000000
   34        8.689443   0.000000
   35        8.912337   0.000000
   36        9.025513   0.000000
   37        9.514792   0.000000
   38        9.831912   0.000000
   39        9.959186   0.000000
   40       10.574501   0.000000
   41       10.948485   0.000000
   42       11.374477   0.000000
   43       11.416283   0.000000
   44       11.527672   0.000000
   45       12.087989   0.000000
   46       12.122442   0.000000
   47       12.745723   0.000000
   48       12.935527   0.000000
   49       13.210030   0.000000
   50       13.295202   0.000000
   51       13.712601   0.000000
   52       14.565149   0.000000
 
 -0.3333333E+00  0.3333333E+00  0.0000000E+00  0.9259259E-02
    1      -20.843029   1.000000
    2      -17.163448   1.000000
    3      -17.132934   1.000000
    4      -17.097778   1.000000
    5      -17.079730   1.000000
    6      -17.075993   1.000000
    7      -13.322761   1.000000
    8      -12.102040   1.000000
    9      -11.725863   1.000000
   10      -11.437233   1.000000
   11       -9.191873   1.000000
   12       -9.090605   1.000000
   13       -7.131396   1.000000
   14       -7.015012   1.000000
   15       -4.784514   1.000000
   16       -4.749242   1.000000
   17       -2.646369   1.000000
   18       -1.512451   1.000000
   19       -1.331607   1.000000
   20       -0.974449   1.000000
   21       -0.725041   1.000000
   22       -0.540116   1.000000
   23       -0.337252   1.000000
   24        0.060397   1.000000
   25        0.175123   1.000000
   26        4.614682   0.000000
   27        4.974518   0.000000
   28        6.642347   0.000000
   29        6.762352   0.000000
   30        7.174144   0.000000
   31        7.649732   0.000000
   32        7.947681   0.000000
   33        8.102241   0.000000
   34        8.275612   0.000000
   35        8.955523   0.000000
   36        9.269631   0.000000
   37        9.608189   0.000000
   38        9.786743   0.000000
   39       10.050011   0.000000
   40       10.651686   0.000000
   41       10.911326   0.000000
   42       11.231303   0.000000
   43       11.292400   0.000000
   44       11.812177   0.000000
   45       12.015368   0.000000
   46       12.137160   0.000000
   47       12.622574   0.000000
   48       12.782844   0.000000
   49       12.937900   0.000000
   50       13.758734   0.000000
   51       14.180042   0.000000
   52       14.486519   0.000000
 
 -0.1666667E+00  0.3333333E+00  0.0000000E+00  0.9259259E-02
    1      -20.843560   1.000000
    2      -17.163655   1.000000
    3      -17.138607   1.000000
    4      -17.097790   1.000000
    5      -17.079352   1.000000
    6      -17.075634   1.000000
    7      -13.305122   1.000000
    8      -12.188909   1.000000
    9      -11.734947   1.000000
   10      -11.363213   1.000000
   11       -9.187629   1.000000
   12       -9.094146   1.000000
   13       -7.068722   1.000000
   14       -6.766868   1.000000
   15       -4.772674   1.000000
   16       -4.742202   1.000000
   17       -2.714954   1.000000
   18       -2.128941   1.000000
   19       -1.427003   1.000000
   20       -0.931514   1.000000
   21       -0.753175   1.000000
   22       -0.489329   1.000000
   23       -0.282931   1.000000
   24       -0.173687   1.000000
   25        0.001884   1.000000
   26        4.895142   0.000000
   27        6.213519   0.000000
   28        6.571658   0.000000
   29        6.919307   0.000000
   30        7.247909   0.000000
   31        7.265328   0.000000
   32        7.840496   0.000000
   33        7.976876   0.000000
   34        8.359433   0.000000
   35        8.887757   0.000000
   36        9.261772   0.000000
   37        9.498932   0.000000
   38        9.942671   0.000000
   39       10.187533   0.000000
   40       10.406062   0.000000
   41       10.687583   0.000000
   42       10.882982   0.000000
   43       11.388317   0.000000
   44       11.862152   0.000000
   45       12.152018   0.000000
   46       12.341667   0.000000
   47       12.659240   0.000000
   48       13.054015   0.000000
   49       13.363032   0.000000
   50       13.921788   0.000000
   51       14.174055   0.000000
   52       14.470326   0.000000
 
  0.0000000E+00  0.5000000E+00  0.0000000E+00  0.4629630E-02
    1      -20.843610   1.000000
    2      -17.162245   1.000000
    3      -17.139691   1.000000
    4      -17.098015   1.000000
    5      -17.079189   1.000000
    6      -17.075696   1.000000
    7      -13.294317   1.000000
    8      -12.147407   1.000000
    9      -11.828651   1.000000
   10      -11.346182   1.000000
   11       -9.157341   1.000000
   12       -9.102081   1.000000
   13       -7.072501   1.000000
   14       -6.716224   1.000000
   15       -4.781671   1.000000
   16       -4.735345   1.000000
   17       -2.690482   1.000000
   18       -2.502792   1.000000
   19       -1.198015   1.000000
   20       -0.929531   1.000000
   21       -0.770298   1.000000
   22       -0.405906   1.000000
   23       -0.378011   1.000000
   24       -0.120031   1.000000
   25        0.202767   1.000000
   26        4.136788   0.000000
   27        6.529863   0.000000
   28        6.809036   0.000000
   29        7.072792   0.000000
   30        7.441250   0.000000
   31        7.515673   0.000000
   32        8.031169   0.000000
   33        8.195586   0.000000
   34        8.702382   0.000000
   35        8.749798   0.000000
   36        9.036100   0.000000
   37        9.358861   0.000000
   38        9.575430   0.000000