  96  96   0   0
  0.2080188E+02  0.1257760E-08  0.1245754E-08  0.1274818E-08  0.5000000E-15
  1.000000000000000E-004
  CAR 
 MAPbI3-Cubic                            
      8.79470103    -19.10793608  301      1.21448462      1.00000000
    -19.108  0.0000E+00  0.0000E+00
    -19.015  0.0000E+00  0.0000E+00
    -18.922  0.0000E+00  0.0000E+00
    -18.829  0.0000E+00  0.0000E+00
    -18.736  0.0000E+00  0.0000E+00
    -18.643  0.0000E+00  0.0000E+00
    -18.550  0.0000E+00  0.0000E+00
    -18.457  0.0000E+00  0.0000E+00
    -18.364  0.0000E+00  0.0000E+00
    -18.271  0.0000E+00  0.0000E+00
    -18.178  0.0000E+00  0.0000E+00
    -18.085  0.0000E+00  0.0000E+00
    -17.992  0.0000E+00  0.0000E+00
    -17.899  0.0000E+00  0.0000E+00
    -17.806  0.0000E+00  0.1600E+02
    -17.713  0.0000E+00  0.1600E+02
    -17.620  0.0000E+00  0.1600E+02
    -17.527  0.0000E+00  0.1600E+02
    -17.434  0.0000E+00  0.1600E+02
    -17.341  0.0000E+00  0.1600E+02
    -17.248  0.0000E+00  0.1600E+02
    -17.155  0.0000E+00  0.1600E+02
    -17.062  0.0000E+00  0.1600E+02
    -16.969  0.0000E+00  0.1600E+02
    -16.876  0.0000E+00  0.1600E+02
    -16.783  0.0000E+00  0.1600E+02
    -16.690  0.0000E+00  0.1600E+02
    -16.597  0.0000E+00  0.1600E+02
    -16.504  0.0000E+00  0.1600E+02
    -16.411  0.0000E+00  0.1600E+02
    -16.318  0.0000E+00  0.1600E+02
    -16.225  0.0000E+00  0.1600E+02
    -16.132  0.0000E+00  0.1600E+02
    -16.039  0.0000E+00  0.1600E+02
    -15.946  0.0000E+00  0.1600E+02
    -15.853  0.0000E+00  0.1600E+02
    -15.760  0.0000E+00  0.1600E+02
    -15.667  0.0000E+00  0.1600E+02
    -15.574  0.0000E+00  0.1600E+02
    -15.481  0.0000E+00  0.1600E+02
    -15.388  0.0000E+00  0.1600E+02
    -15.295  0.0000E+00  0.1600E+02
    -15.202  0.3335E-04  0.1600E+02
    -15.109  0.0000E+00  0.9600E+02
    -15.016  0.0000E+00  0.9600E+02
    -14.923  0.0000E+00  0.9600E+02
    -14.830  0.0000E+00  0.9600E+02
    -14.737  0.0000E+00  0.9600E+02
    -14.644  0.0000E+00  0.9600E+02
    -14.551  0.0000E+00  0.9600E+02
    -14.457  0.0000E+00  0.9600E+02
    -14.364  0.0000E+00  0.9600E+02
    -14.271  0.0000E+00  0.9600E+02
    -14.178  0.0000E+00  0.9600E+02
    -14.085  0.0000E+00  0.9600E+02
    -13.992  0.0000E+00  0.9600E+02
    -13.899  0.0000E+00  0.9600E+02
    -13.806  0.0000E+00  0.9600E+02
    -13.713  0.0000E+00  0.9600E+02
    -13.620  0.0000E+00  0.9600E+02
    -13.527  0.0000E+00  0.9600E+02
    -13.434  0.0000E+00  0.9600E+02
    -13.341  0.0000E+00  0.9600E+02
    -13.248  0.0000E+00  0.9600E+02
    -13.155  0.0000E+00  0.9600E+02
    -13.062  0.0000E+00  0.9600E+02
    -12.969  0.0000E+00  0.9600E+02
    -12.876  0.0000E+00  0.9600E+02
    -12.783  0.0000E+00  0.9600E+02
    -12.690  0.0000E+00  0.9600E+02
    -12.597  0.0000E+00  0.9600E+02
    -12.504  0.0000E+00  0.9600E+02
    -12.411  0.0000E+00  0.9600E+02
    -12.318  0.0000E+00  0.9600E+02
    -12.225  0.0000E+00  0.9600E+02
    -12.132  0.0000E+00  0.9600E+02
    -12.039  0.0000E+00  0.9600E+02
    -11.946  0.0000E+00  0.9600E+02
    -11.853  0.0000E+00  0.9600E+02
    -11.760  0.0000E+00  0.9600E+02
    -11.667  0.0000E+00  0.9600E+02
    -11.574  0.0000E+00  0.9600E+02
    -11.481  0.0000E+00  0.9600E+02
    -11.388  0.0000E+00  0.9600E+02
    -11.295  0.0000E+00  0.9600E+02
    -11.202  0.6639E+01  0.9669E+02
    -11.109  0.0000E+00  0.1040E+03
    -11.016  0.8996E+01  0.1119E+03
    -10.923  0.0000E+00  0.1120E+03
    -10.830  0.0000E+00  0.1120E+03
    -10.737  0.2121E+01  0.1130E+03
    -10.644  0.4804E+01  0.1166E+03
    -10.551  0.6481E+01  0.1239E+03
    -10.458  0.1593E+01  0.1281E+03
    -10.365  0.3982E+01  0.1327E+03
    -10.272  0.2970E-06  0.1373E+03
    -10.179  0.1584E+02  0.1415E+03
    -10.086  0.7964E+00  0.1441E+03
     -9.993  0.4775E+01  0.1541E+03
     -9.900  0.0000E+00  0.1600E+03
     -9.807  0.0000E+00  0.1600E+03
     -9.714  0.0000E+00  0.1600E+03
     -9.621  0.0000E+00  0.1600E+03
     -9.528  0.0000E+00  0.1600E+03
     -9.435  0.0000E+00  0.1600E+03
     -9.342  0.0000E+00  0.1600E+03
     -9.249  0.0000E+00  0.1600E+03
     -9.156  0.0000E+00  0.1600E+03
     -9.063  0.0000E+00  0.1600E+03
     -8.970  0.0000E+00  0.1600E+03
     -8.877  0.0000E+00  0.1600E+03
     -8.784  0.0000E+00  0.1600E+03
     -8.691  0.0000E+00  0.1600E+03
     -8.598  0.0000E+00  0.1600E+03
     -8.505  0.0000E+00  0.1600E+03
     -8.412  0.0000E+00  0.1600E+03
     -8.319  0.0000E+00  0.1600E+03
     -8.226  0.0000E+00  0.1600E+03
     -8.133  0.0000E+00  0.1600E+03
     -8.040  0.0000E+00  0.1600E+03
     -7.947  0.0000E+00  0.1600E+03
     -7.854  0.0000E+00  0.1600E+03
     -7.761  0.0000E+00  0.1600E+03
     -7.668  0.0000E+00  0.1600E+03
     -7.575  0.0000E+00  0.1600E+03
     -7.482  0.0000E+00  0.1600E+03
     -7.389  0.0000E+00  0.1680E+03
     -7.296  0.1593E+01  0.1880E+03
     -7.203  0.0000E+00  0.1907E+03
     -7.110  0.0000E+00  0.1920E+03
     -7.017  0.0000E+00  0.1920E+03
     -6.924  0.0000E+00  0.1921E+03
     -6.831  0.0000E+00  0.1925E+03
     -6.738  0.0000E+00  0.1934E+03
     -6.645  0.0000E+00  0.1941E+03
     -6.552  0.0000E+00  0.1951E+03
     -6.459  0.0000E+00  0.1970E+03
     -6.366  0.1593E+01  0.1991E+03
     -6.273  0.6371E+01  0.2009E+03
     -6.180  0.2118E-01  0.2024E+03
     -6.087  0.1593E+01  0.2046E+03
     -5.994  0.3186E+01  0.2058E+03
     -5.901  0.0000E+00  0.2066E+03
     -5.808  0.0000E+00  0.2075E+03
     -5.715  0.0000E+00  0.2079E+03
     -5.622  0.7964E+01  0.2134E+03
     -5.529  0.0000E+00  0.2160E+03
     -5.436  0.3186E+01  0.2239E+03
     -5.343  0.0000E+00  0.2240E+03
     -5.250  0.0000E+00  0.2240E+03
     -5.157  0.0000E+00  0.2240E+03
     -5.064  0.0000E+00  0.2240E+03
     -4.971  0.0000E+00  0.2240E+03
     -4.878  0.0000E+00  0.2240E+03
     -4.785  0.0000E+00  0.2240E+03
     -4.692  0.0000E+00  0.2240E+03
     -4.599  0.0000E+00  0.2240E+03
     -4.506  0.0000E+00  0.2240E+03
     -4.413  0.0000E+00  0.2240E+03
     -4.320  0.0000E+00  0.2240E+03
     -4.227  0.0000E+00  0.2240E+03
     -4.134  0.0000E+00  0.2240E+03
     -4.041  0.0000E+00  0.2240E+03
     -3.948  0.0000E+00  0.2240E+03
     -3.854  0.0000E+00  0.2240E+03
     -3.761  0.0000E+00  0.2240E+03
     -3.668  0.0000E+00  0.2240E+03
     -3.575  0.0000E+00  0.2240E+03
     -3.482  0.1538E+02  0.2312E+03
     -3.389  0.2371E+02  0.2492E+03
     -3.296  0.0000E+00  0.2560E+03
     -3.203  0.0000E+00  0.2560E+03
     -3.110  0.0000E+00  0.2560E+03
     -3.017  0.0000E+00  0.2560E+03
     -2.924  0.0000E+00  0.2560E+03
     -2.831  0.0000E+00  0.2560E+03
     -2.738  0.0000E+00  0.2560E+03
     -2.645  0.0000E+00  0.2560E+03
     -2.552  0.0000E+00  0.2560E+03
     -2.459  0.0000E+00  0.2560E+03
     -2.366  0.0000E+00  0.2560E+03
     -2.273  0.0000E+00  0.2560E+03
     -2.180  0.0000E+00  0.2560E+03
     -2.087  0.3981E-01  0.2561E+03
     -1.994  0.3962E+01  0.2585E+03
     -1.901  0.2389E+01  0.2595E+03
     -1.808  0.4156E-14  0.2620E+03
     -1.715  0.9861E-04  0.2644E+03
     -1.622  0.3157E+01  0.2677E+03
     -1.529  0.5791E-01  0.2713E+03
     -1.436  0.1969E+01  0.2743E+03
     -1.343  0.7486E-06  0.2769E+03
     -1.250  0.3982E-01  0.2793E+03
     -1.157  0.0000E+00  0.2800E+03
     -1.064  0.0000E+00  0.2801E+03
     -0.971  0.6704E+00  0.2820E+03
     -0.878  0.3186E+01  0.2879E+03
     -0.785  0.6602E+01  0.2908E+03
     -0.692  0.8477E+01  0.2965E+03
     -0.599  0.1256E-13  0.3019E+03
     -0.506  0.5341E-02  0.3041E+03
     -0.413  0.6371E+01  0.3097E+03
     -0.320  0.3399E-02  0.3143E+03
     -0.227  0.1298E+02  0.3203E+03
     -0.134  0.3186E+01  0.3271E+03
     -0.041  0.3956E+01  0.3326E+03
      0.052  0.5163E+01  0.3404E+03
      0.145  0.3194E+01  0.3486E+03
      0.238  0.1122E+02  0.3570E+03
      0.331  0.7955E+01  0.3636E+03
      0.424  0.2453E+01  0.3699E+03
      0.517  0.1208E+02  0.3799E+03
      0.610  0.2918E+01  0.3876E+03
      0.703  0.3186E+01  0.3947E+03
      0.796  0.1763E+01  0.3973E+03
      0.889  0.5766E-05  0.3990E+03
      0.982  0.1593E+01  0.3995E+03
      1.075  0.0000E+00  0.3999E+03
      1.168  0.0000E+00  0.3999E+03
      1.261  0.0000E+00  0.4000E+03
      1.354  0.0000E+00  0.4000E+03
      1.447  0.0000E+00  0.4000E+03
      1.540  0.0000E+00  0.4000E+03
      1.633  0.0000E+00  0.4000E+03
      1.726  0.0000E+00  0.4000E+03
      1.819  0.0000E+00  0.4000E+03
      1.912  0.0000E+00  0.4000E+03
      2.005  0.0000E+00  0.4000E+03
      2.098  0.0000E+00  0.4000E+03
      2.191  0.0000E+00  0.4000E+03
      2.284  0.0000E+00  0.4000E+03
      2.377  0.0000E+00  0.4000E+03
      2.470  0.0000E+00  0.4000E+03
      2.563  0.0000E+00  0.4000E+03
      2.656  0.0000E+00  0.4000E+03
      2.749  0.0000E+00  0.4000E+03
      2.842  0.0000E+00  0.4000E+03
      2.935  0.7964E+00  0.4001E+03
      3.028  0.0000E+00  0.4007E+03
      3.121  0.1031E+01  0.4011E+03
      3.214  0.1389E+00  0.4029E+03
      3.307  0.3182E+01  0.4039E+03
      3.400  0.3186E+01  0.4055E+03
      3.493  0.0000E+00  0.4063E+03
      3.586  0.4233E-04  0.4074E+03
      3.679  0.0000E+00  0.4081E+03
      3.772  0.3186E+01  0.4093E+03
      3.865  0.0000E+00  0.4101E+03
      3.958  0.0000E+00  0.4126E+03
      4.051  0.1161E+01  0.4140E+03
      4.144  0.3233E+01  0.4175E+03
      4.237  0.1200E+01  0.4207E+03
      4.330  0.3186E+01  0.4228E+03
      4.423  0.1680E+00  0.4236E+03
      4.516  0.0000E+00  0.4239E+03
      4.609  0.0000E+00  0.4240E+03
      4.702  0.0000E+00  0.4240E+03
      4.795  0.0000E+00  0.4240E+03
      4.888  0.0000E+00  0.4240E+03
      4.981  0.0000E+00  0.4240E+03
      5.074  0.6057E-01  0.4250E+03
      5.167  0.5318E+01  0.4289E+03
      5.260  0.3090E+01  0.4306E+03
      5.353  0.1593E+01  0.4330E+03
      5.446  0.0000E+00  0.4363E+03
      5.539  0.4779E+01  0.4391E+03
      5.632  0.1935E-05  0.4407E+03
      5.725  0.7964E+01  0.4433E+03
      5.818  0.6078E+00  0.4459E+03
      5.911  0.1600E+01  0.4483E+03
      6.004  0.1593E+01  0.4505E+03
      6.097  0.5868E-10  0.4538E+03
      6.190  0.0000E+00  0.4574E+03
      6.283  0.9958E-02  0.4601E+03
      6.376  0.0000E+00  0.4632E+03
      6.469  0.1751E-02  0.4656E+03
      6.562  0.6371E+01  0.4703E+03
      6.655  0.1581E+01  0.4727E+03
      6.749  0.6371E+01  0.4784E+03
      6.842  0.6331E+01  0.4826E+03
      6.935  0.2144E+01  0.4858E+03
      7.028  0.3171E+01  0.4897E+03
      7.121  0.1841E+00  0.4926E+03
      7.214  0.0000E+00  0.4986E+03
      7.307  0.4159E+01  0.5024E+03
      7.400  0.1860E+01  0.5074E+03
      7.493  0.6371E+01  0.5116E+03
      7.586  0.0000E+00  0.5120E+03
      7.679  0.0000E+00  0.5120E+03
      7.772  0.0000E+00  0.5120E+03
      7.865  0.0000E+00  0.5120E+03
      7.958  0.0000E+00  0.5120E+03
      8.051  0.0000E+00  0.5120E+03
      8.144  0.0000E+00  0.5120E+03
      8.237  0.0000E+00  0.5120E+03
      8.330  0.0000E+00  0.5120E+03
      8.423  0.0000E+00  0.5120E+03
      8.516  0.0000E+00  0.5120E+03
      8.609  0.0000E+00  0.5120E+03
      8.702  0.0000E+00  0.5120E+03
      8.795  0.0000E+00  0.5120E+03
