 vasp.5.4.1 24Jun15 (build Nov 25 2015 16:01:35) complex                        
  
 executed on         CrayXC-Intel date 2016.07.12  03:58:45
 running on   96 total cores
 distrk:  each k-point on   24 cores,    4 groups
 distr:  one band on NCORES_PER_BAND=   3 cores,    8 groups


--------------------------------------------------------------------------------------------------------


 INCAR:
 POTCAR:    PAW_PBE C 08Apr2002                   
 POTCAR:    PAW_PBE N 08Apr2002                   
 POTCAR:    PAW_PBE H 15Jun2001                   
 POTCAR:    PAW_PBE Pb_d 06Sep2000                
 POTCAR:    PAW_PBE I 08Apr2002                   

 ----------------------------------------------------------------------------- 
|                                                                             |
|           W    W    AA    RRRRR   N    N  II  N    N   GGGG   !!!           |
|           W    W   A  A   R    R  NN   N  II  NN   N  G    G  !!!           |
|           W    W  A    A  R    R  N N  N  II  N N  N  G       !!!           |
|           W WW W  AAAAAA  RRRRR   N  N N  II  N  N N  G  GGG   !            |
|           WW  WW  A    A  R   R   N   NN  II  N   NN  G    G                |
|           W    W  A    A  R    R  N    N  II  N    N   GGGG   !!!           |
|                                                                             |
|      For optimal performance we recommend to set                            |
|        NCORE= 4 - approx SQRT( number of cores)                             |
|      NCORE specifies how many cores store one orbital (NPAR=cpu/NCORE).     |
|      This setting can  greatly improve the performance of VASP for DFT.     |
|      The default, NPAR=number of cores might be grossly inefficient         |
|      on modern multi-core architectures or massively parallel machines.     |
|      Do your own testing !!!!                                               |
|      Unfortunately you need to use the default for GW and RPA calculations. |
|      (for HF NCORE is supported but not extensively tested yet)             |
|                                                                             |
 ----------------------------------------------------------------------------- 


 ----------------------------------------------------------------------------- 
|                                                                             |
|           W    W    AA    RRRRR   N    N  II  N    N   GGGG   !!!           |
|           W    W   A  A   R    R  NN   N  II  NN   N  G    G  !!!           |
|           W    W  A    A  R    R  N N  N  II  N N  N  G       !!!           |
|           W WW W  AAAAAA  RRRRR   N  N N  II  N  N N  G  GGG   !            |
|           WW  WW  A    A  R   R   N   NN  II  N   NN  G    G                |
|           W    W  A    A  R    R  N    N  II  N    N   GGGG   !!!           |
|                                                                             |
|      You have enabled k-point parallelism (KPAR>1).                         |
|      This developmental code was originally  written by Paul Kent at ORNL,  |
|      and carefully double checked in Vienna.                                |
|      GW as well as linear response parallelism added by Martijn Marsman     |
|      and Georg Kresse.                                                      |
|      Carefully verify results versus KPAR=1.                                |
|      Report problems to Paul Kent and Vienna.                               |
|                                                                             |
 ----------------------------------------------------------------------------- 

 POTCAR:    PAW_PBE C 08Apr2002                   
   VRHFIN =C: s2p2                                                              
   LEXCH  = PE                                                                  
   EATOM  =   147.1560 eV,   10.8157 Ry                                         
                                                                                
   TITEL  = PAW_PBE C 08Apr2002                                                 
   LULTRA =        F    use ultrasoft PP ?                                      
   IUNSCR =        1    unscreen: 0-lin 1-nonlin 2-no                           
   RPACOR =    1.200    partial core radius                                     
   POMASS =   12.011; ZVAL   =    4.000    mass and valenz                      
   RCORE  =    1.500    outmost cutoff radius                                   
   RWIGS  =    1.630; RWIGS  =    0.863    wigner-seitz radius (au A)           
   ENMAX  =  400.000; ENMIN  =  300.000 eV                                      
   ICORE  =        2    local potential                                         
   LCOR   =        T    correct aug charges                                     
   LPAW   =        T    paw PP                                                  
   EAUG   =  644.873                                                            
   DEXC   =    0.000                                                            
   RMAX   =    1.529    core radius for proj-oper                               
   RAUG   =    1.300    factor for augmentation sphere                          
   RDEP   =    1.501    radius for radial grids                                 
   RDEPT  =    1.300    core radius for aug-charge                              
                                                                                
   Atomic configuration                                                         
    4 entries                                                                   
     n  l   j            E        occ.                                          
     1  0  0.50      -273.3789   2.0000                                         
     2  0  0.50       -13.7508   2.0000                                         
     2  1  0.50        -5.2854   2.0000                                         
     3  2  1.50        -5.4423   0.0000                                         
   Description                                                                  
     l       E           TYP  RCUT    TYP  RCUT                                 
     0    -13.7508458     23  1.200                                             
     0     -8.2022199     23  1.200                                             
     1     -5.2854383     23  1.500                                             
     1     34.0145650     23  1.500                                             
     2     -5.4423304      7  1.500                                             
  local pseudopotential read in
  partial core-charges read in
  partial kinetic energy density read in
  atomic valenz-charges read in
  non local Contribution for L=           0  read in
    real space projection operators read in
  non local Contribution for L=           0  read in
    real space projection operators read in
  non local Contribution for L=           1  read in
    real space projection operators read in
  non local Contribution for L=           1  read in
    real space projection operators read in
    PAW grid and wavefunctions read in
 
   number of l-projection  operators is LMAX  =           4
   number of lm-projection operators is LMMAX =           8
 
 POTCAR:    PAW_PBE N 08Apr2002                   
   VRHFIN =N: s2p3                                                              
   LEXCH  = PE                                                                  
   EATOM  =   264.5486 eV,   19.4438 Ry                                         
                                                                                
   TITEL  = PAW_PBE N 08Apr2002                                                 
   LULTRA =        F    use ultrasoft PP ?                                      
   IUNSCR =        1    unscreen: 0-lin 1-nonlin 2-no                           
   RPACOR =    1.200    partial core radius                                     
   POMASS =   14.001; ZVAL   =    5.000    mass and valenz                      
   RCORE  =    1.500    outmost cutoff radius                                   
   RWIGS  =    1.400; RWIGS  =    0.741    wigner-seitz radius (au A)           
   ENMAX  =  400.000; ENMIN  =  300.000 eV                                      
   ICORE  =        2    local potential                                         
   LCOR   =        T    correct aug charges                                     
   LPAW   =        T    paw PP                                                  
   EAUG   =  627.112                                                            
   DEXC   =    0.000                                                            
   RMAX   =    1.529    core radius for proj-oper                               
   RAUG   =    1.300    factor for augmentation sphere                          
   RDEP   =    1.514    radius for radial grids                                 
   RDEPT  =    1.338    core radius for aug-charge                              
                                                                                
   Atomic configuration                                                         
    4 entries                                                                   
     n  l   j            E        occ.                                          
     1  0  0.50      -384.7179   2.0000                                         
     2  0  0.50       -18.5828   2.0000                                         
     2  1  0.50        -7.0898   3.0000                                         
     3  2  1.50        -6.8029   0.0000                                         
   Description                                                                  
     l       E           TYP  RCUT    TYP  RCUT                                 
     0    -18.5828119     23  1.200                                             
     0    -13.5018863     23  1.200                                             
     1     -7.0897853     23  1.500                                             
     1      9.5240782     23  1.500                                             
     2     -6.8029130      7  1.500                                             
  local pseudopotential read in
  partial core-charges read in
  partial kinetic energy density read in
  atomic valenz-charges read in
  non local Contribution for L=           0  read in
    real space projection operators read in
  non local Contribution for L=           0  read in
    real space projection operators read in
  non local Contribution for L=           1  read in
    real space projection operators read in
  non local Contribution for L=           1  read in
    real space projection operators read in
    PAW grid and wavefunctions read in
 
   number of l-projection  operators is LMAX  =           4
   number of lm-projection operators is LMMAX =           8
 
 POTCAR:    PAW_PBE H 15Jun2001                   
   VRHFIN =H: ultrasoft test                                                    
   LEXCH  = PE                                                                  
   EATOM  =    12.4884 eV,    0.9179 Ry                                         
                                                                                
   TITEL  = PAW_PBE H 15Jun2001                                                 
   LULTRA =        F    use ultrasoft PP ?                                      
   IUNSCR =        0    unscreen: 0-lin 1-nonlin 2-no                           
   RPACOR =    0.000    partial core radius                                     
   POMASS =    1.000; ZVAL   =    1.000    mass and valenz                      
   RCORE  =    1.100    outmost cutoff radius                                   
   RWIGS  =    0.700; RWIGS  =    0.370    wigner-seitz radius (au A)           
   ENMAX  =  250.000; ENMIN  =  200.000 eV                                      
   RCLOC  =    0.701    cutoff for local pot                                    
   LCOR   =        T    correct aug charges                                     
   LPAW   =        T    paw PP                                                  
   EAUG   =  400.000                                                            
   RMAX   =    1.123    core radius for proj-oper                               
   RAUG   =    1.200    factor for augmentation sphere                          
   RDEP   =    1.112    radius for radial grids                                 
   RDEPT  =    0.926    core radius for aug-charge                              
                                                                                
   Atomic configuration                                                         
    2 entries                                                                   
     n  l   j            E        occ.                                          
     1  0  0.50        -6.4927   1.0000                                         
     2  1  0.50        -3.4015   0.0000                                         
   Description                                                                  
     l       E           TYP  RCUT    TYP  RCUT                                 
     0     -6.4927494     23  1.100                                             
     0      6.8029130     23  1.100                                             
     1     -4.0817478     23  1.100                                             
  local pseudopotential read in
  atomic valenz-charges read in
  non local Contribution for L=           0  read in
    real space projection operators read in
  non local Contribution for L=           0  read in
    real space projection operators read in
  non local Contribution for L=           1  read in
    real space projection operators read in
    PAW grid and wavefunctions read in
 
   number of l-projection  operators is LMAX  =           3
   number of lm-projection operators is LMMAX =           5
 
 POTCAR:    PAW_PBE Pb_d 06Sep2000                
   VRHFIN =Pb:                                                                  
   LEXCH  = PE                                                                  
   EATOM  =  1661.6185 eV,  122.1255 Ry                                         
                                                                                
   TITEL  = PAW_PBE Pb_d 06Sep2000                                              
   LULTRA =        F    use ultrasoft PP ?                                      
   IUNSCR =        1    unscreen: 0-lin 1-nonlin 2-no                           
   RPACOR =    2.200    partial core radius                                     
   POMASS =  207.200; ZVAL   =   14.000    mass and valenz                      
   RCORE  =    2.500    outmost cutoff radius                                   
   RWIGS  =    3.260; RWIGS  =    1.725    wigner-seitz radius (au A)           
   ENMAX  =  237.835; ENMIN  =  178.376 eV                                      
   ICORE  =        3    local potential                                         
   LCOR   =        T    correct aug charges                                     
   LPAW   =        T    paw PP                                                  
   EAUG   =  391.914                                                            
   DEXC   =    0.000                                                            
   RMAX   =    2.565    core radius for proj-oper                               
   RAUG   =    1.300    factor for augmentation sphere                          
   RDEP   =    2.643    radius for radial grids                                 
   RDEPT  =    2.092    core radius for aug-charge                              
                                                                                
   Atomic configuration                                                         
   16 entries                                                                   
     n  l   j            E        occ.                                          
     1  0  0.50    -88091.8466   2.0000                                         
     2  0  0.50    -15753.4197   2.0000                                         
     2  1  1.50    -13508.1797   6.0000                                         
     3  0  0.50     -3781.7194   2.0000                                         
     3  1  1.50     -3138.2529   6.0000                                         
     3  2  2.50     -2483.2977  10.0000                                         
     4  0  0.50      -856.2895   2.0000                                         
     4  1  1.50      -645.4942   6.0000                                         
     4  2  2.50      -401.8768  10.0000                                         
     4  3  3.50      -132.9059  14.0000                                         
     5  0  0.50      -144.0950   2.0000                                         
     5  1  1.50       -85.7879   6.0000                                         
     5  2  2.50       -21.1769  10.0000                                         
     6  0  0.50       -12.0372   2.0000                                         
     6  1  1.50        -3.4971   2.0000                                         
     5  3  2.50        -2.7212   0.0000                                         
   Description                                                                  
     l       E           TYP  RCUT    TYP  RCUT                                 
     2    -21.1768523     23  2.500                                             
     2      1.3605826     23  2.500                                             
     0    -12.0371562     23  2.500                                             
     0     13.6058260     23  2.500                                             
     1     -3.4971339     23  2.500                                             
     1     13.6058260     23  2.500                                             
     3     -1.3605826      7  2.500                                             
  local pseudopotential read in
  partial core-charges read in
  partial kinetic energy density read in
  atomic valenz-charges read in
  non local Contribution for L=           2  read in
    real space projection operators read in
  non local Contribution for L=           2  read in
    real space projection operators read in
  non local Contribution for L=           0  read in
    real space projection operators read in
  non local Contribution for L=           0  read in
    real space projection operators read in
  non local Contribution for L=           1  read in
    real space projection operators read in
  non local Contribution for L=           1  read in
    real space projection operators read in
    PAW grid and wavefunctions read in
 
   number of l-projection  operators is LMAX  =           6
   number of lm-projection operators is LMMAX =          18
 
 POTCAR:    PAW_PBE I 08Apr2002                   
   VRHFIN =I : s2p5                                                             
   LEXCH  = PE                                                                  
   EATOM  =   315.8678 eV,   23.2156 Ry                                         
                                                                                
   TITEL  = PAW_PBE I 08Apr2002                                                 
   LULTRA =        F    use ultrasoft PP ?                                      
   IUNSCR =        1    unscreen: 0-lin 1-nonlin 2-no                           
   RPACOR =    2.200    partial core radius                                     
   POMASS =  126.904; ZVAL   =    7.000    mass and valenz                      
   RCORE  =    2.300    outmost cutoff radius                                   
   RWIGS  =    2.810; RWIGS  =    1.487    wigner-seitz radius (au A)           
   ENMAX  =  175.647; ENMIN  =  131.735 eV                                      
   ICORE  =        3    local potential                                         
   LCOR   =        T    correct aug charges                                     
   LPAW   =        T    paw PP                                                  
   EAUG   =  370.139                                                            
   DEXC   =    0.000                                                            
   RMAX   =    2.359    core radius for proj-oper                               
   RAUG   =    1.300    factor for augmentation sphere                          
   RDEP   =    2.392    radius for radial grids                                 
   RDEPT  =    2.170    core radius for aug-charge                              
                                                                                
   Atomic configuration                                                         
   13 entries                                                                   
     n  l   j            E        occ.                                          
     1  0  0.50    -32976.3739   2.0000                                         
     2  0  0.50     -5094.5933   2.0000                                         
     2  1  1.50     -4572.0131   6.0000                                         
     3  0  0.50     -1028.2813   2.0000                                         
     3  1  1.50      -859.0250   6.0000                                         
     3  2  2.50      -605.7620  10.0000                                         
     4  0  0.50      -180.5540   2.0000                                         
     4  1  1.50      -127.5306   6.0000                                         
     4  2  2.50       -50.2720  10.0000                                         
     5  0  0.50       -17.4058   2.0000                                         
     5  1  0.50        -7.0851   5.0000                                         
     5  2  1.50        -7.0750   0.0000                                         
     4  3  2.50        -7.0750   0.0000                                         
   Description                                                                  
     l       E           TYP  RCUT    TYP  RCUT                                 
     0    -17.4058016     23  2.300                                             
     0    -18.7663842     23  2.300                                             
     1     -7.0850686     23  2.300                                             
     1     -4.2150896     23  2.300                                             
     2     -7.0750295     23  2.300                                             
     3     -1.3605826     23  2.300                                             
  local pseudopotential read in
  partial core-charges read in
  partial kinetic energy density read in
  atomic valenz-charges read in
  non local Contribution for L=           0  read in
    real space projection operators read in
  non local Contribution for L=           0  read in
    real space projection operators read in
  non local Contribution for L=           1  read in
    real space projection operators read in
  non local Contribution for L=           1  read in
    real space projection operators read in
  non local Contribution for L=           2  read in
    real space projection operators read in
    PAW grid and wavefunctions read in
 
   number of l-projection  operators is LMAX  =           5
   number of lm-projection operators is LMMAX =          13
 

 ----------------------------------------------------------------------------- 
|                                                                             |
|  ADVICE TO THIS USER RUNNING 'VASP/VAMP'   (HEAR YOUR MASTER'S VOICE ...):  |
|                                                                             |
|      You have a (more or less) 'large supercell' and for larger cells       |
|      it might be more efficient to use real space projection opertators     |
|      So try LREAL= Auto  in the INCAR   file.                               |
|      Mind: At the moment your POTCAR file does not contain real space       |
|       projectors, and has to be modified,  BUT if you                       |
|      want to do an extremely  accurate calculation you might also keep the  |
|      reciprocal projection scheme          (i.e. LREAL=.FALSE.)             |
|                                                                             |
 ----------------------------------------------------------------------------- 


 ----------------------------------------------------------------------------- 
|                                                                             |
|  ADVICE TO THIS USER RUNNING 'VASP/VAMP'   (HEAR YOUR MASTER'S VOICE ...):  |
|                                                                             |
|      You enforced a specific xc-type in the INCAR file,                     |
|      a different type was found on the POTCAR file                          |
|          I HOPE YOU KNOW, WHAT YOU ARE  DOING                               |
|                                                                             |
 ----------------------------------------------------------------------------- 

  PAW_PBE C 08Apr2002                   :
 energy of atom  1       EATOM= -147.1560
 kinetic energy error for atom=    0.0032 (will be added to EATOM!!)
  PAW_PBE N 08Apr2002                   :
 energy of atom  2       EATOM= -264.5486
 kinetic energy error for atom=    0.0061 (will be added to EATOM!!)
  PAW_PBE H 15Jun2001                   :
 energy of atom  3       EATOM=  -12.4884
 kinetic energy error for atom=    0.0002 (will be added to EATOM!!)
  PAW_PBE Pb_d 06Sep2000                :
 energy of atom  4       EATOM=-1661.6185
 kinetic energy error for atom=    0.0012 (will be added to EATOM!!)
  PAW_PBE I 08Apr2002                   :
 energy of atom  5       EATOM= -315.8678
 kinetic energy error for atom=    0.0003 (will be added to EATOM!!)
 
 
 POSCAR: C N H Pb I                              
  positions in direct lattice
  No initial velocities read in
 exchange correlation table for  LEXCH =       14
   RHO(1)=    0.500       N(1)  =     2000
   RHO(2)=  100.500       N(2)  =     4000
 


--------------------------------------------------------------------------------------------------------


 ion  position               nearest neighbor table
   1  0.182  0.250  0.252-  33 1.11  25 1.11  17 1.13   9 1.52
   2  0.712  0.250  0.206-  34 1.11  26 1.11  18 1.13  10 1.52
   3  0.212  0.750  0.206-  35 1.11  27 1.11  19 1.13  11 1.52
   4  0.682  0.750  0.252-  36 1.11  28 1.11  20 1.13  12 1.52
   5  0.182  0.250  0.752-  37 1.11  29 1.11  21 1.13  13 1.52
   6  0.712  0.250  0.706-  38 1.11  30 1.11  22 1.13  14 1.52
   7  0.212  0.750  0.706-  39 1.11  31 1.11  23 1.13  15 1.52
   8  0.682  0.750  0.752-  40 1.11  32 1.11  24 1.13  16 1.52
   9  0.301  0.250  0.273-  41 1.05  49 1.05  57 1.08   1 1.52
  10  0.809  0.250  0.275-  42 1.06  50 1.06  58 1.06   2 1.52
  11  0.309  0.750  0.275-  43 1.06  51 1.06  59 1.06   3 1.52
  12  0.801  0.750  0.273-  44 1.05  52 1.05  60 1.08   4 1.52
  13  0.301  0.250  0.773-  45 1.05  53 1.05  61 1.08   5 1.52
  14  0.809  0.250  0.775-  46 1.06  54 1.06  62 1.06   6 1.52
  15  0.309  0.750  0.775-  47 1.06  55 1.06  63 1.06   7 1.52
  16  0.801  0.750  0.773-  48 1.05  56 1.05  64 1.08   8 1.52
  17  0.171  0.250  0.164-   1 1.13
  18  0.739  0.250  0.122-   2 1.13
  19  0.239  0.750  0.122-   3 1.13
  20  0.671  0.750  0.164-   4 1.13
  21  0.171  0.250  0.664-   5 1.13
  22  0.739  0.250  0.622-   6 1.13
  23  0.239  0.750  0.622-   7 1.13
  24  0.671  0.750  0.664-   8 1.13
  25  0.145  0.322  0.287-   1 1.11
  26  0.663  0.323  0.224-   2 1.11
  27  0.163  0.823  0.224-   3 1.11
  28  0.645  0.822  0.287-   4 1.11
  29  0.145  0.322  0.787-   5 1.11
  30  0.663  0.323  0.724-   6 1.11
  31  0.163  0.823  0.724-   7 1.11
  32  0.645  0.822  0.787-   8 1.11
  33  0.145  0.178  0.287-   1 1.11
  34  0.663  0.177  0.224-   2 1.11
  35  0.163  0.677  0.224-   3 1.11
  36  0.645  0.678  0.287-   4 1.11
  37  0.145  0.178  0.787-   5 1.11
  38  0.663  0.177  0.724-   6 1.11
  39  0.163  0.677  0.724-   7 1.11
  40  0.645  0.678  0.787-   8 1.11
  41  0.340  0.317  0.240-   9 1.05
  42  0.857  0.318  0.262-  10 1.06
  43  0.357  0.818  0.262-  11 1.06
  44  0.840  0.817  0.240-  12 1.05
  45  0.340  0.317  0.740-  13 1.05
  46  0.857  0.318  0.762-  14 1.06
  47  0.357  0.818  0.762-  15 1.06
  48  0.840  0.817  0.740-  16 1.05
  49  0.340  0.183  0.240-   9 1.05
  50  0.857  0.182  0.262-  10 1.06
  51  0.357  0.682  0.262-  11 1.06
  52  0.840  0.683  0.240-  12 1.05
  53  0.340  0.183  0.740-  13 1.05
  54  0.857  0.182  0.762-  14 1.06
  55  0.357  0.682  0.762-  15 1.06
  56  0.840  0.683  0.740-  16 1.05
  57  0.320  0.250  0.355-   9 1.08
  58  0.787  0.250  0.356-  10 1.06
  59  0.287  0.750  0.356-  11 1.06
  60  0.820  0.750  0.355-  12 1.08
  61  0.320  0.250  0.855-  13 1.08
  62  0.787  0.250  0.856-  14 1.06
  63  0.287  0.750  0.856-  15 1.06
  64  0.820  0.750  0.855-  16 1.08
  65  0.472  0.498  0.489-  90 3.15  87 3.16  77 3.17  73 3.22  85 3.23  89 3.33
  66  0.972  0.502  0.489-  89 3.15  86 3.16  78 3.17  74 3.22  88 3.23  90 3.33
  67  0.472  0.002  0.489-  92 3.15  87 3.16  79 3.17  75 3.22  85 3.23  91 3.33
  68  0.972  0.998  0.489-  91 3.15  86 3.16  80 3.17  76 3.22  88 3.23  92 3.33
  69  0.472  0.498  0.989-  94 3.15  83 3.16  73 3.17  77 3.22  81 3.23  93 3.33
  70  0.972  0.502  0.989-  93 3.15  82 3.16  74 3.17  78 3.22  84 3.23  94 3.33
  71  0.472  0.002  0.989-  96 3.15  83 3.16  75 3.17  79 3.22  81 3.23  95 3.33
  72  0.972  0.998  0.989-  95 3.15  82 3.16  76 3.17  80 3.22  84 3.23  96 3.33
  73  0.455  0.499  0.238-  69 3.17  65 3.22
  74  0.955  0.501  0.238-  70 3.17  66 3.22
  75  0.455  0.001  0.238-  71 3.17  67 3.22
  76  0.955  0.999  0.238-  72 3.17  68 3.22
  77  0.455  0.499  0.738-  65 3.17  69 3.22
  78  0.955  0.501  0.738-  66 3.17  70 3.22
  79  0.455  0.001  0.738-  67 3.17  71 3.22
  80  0.955  0.999  0.738-  68 3.17  72 3.22
  81  0.404  0.250  0.020-  71 3.23  69 3.23
  82  0.995  0.250  0.003-  72 3.16  70 3.16
  83  0.495  0.750  0.003-  69 3.16  71 3.16
  84  0.904  0.750  0.020-  70 3.23  72 3.23
  85  0.404  0.250  0.520-  67 3.23  65 3.23
  86  0.995  0.250  0.503-  68 3.16  66 3.16
  87  0.495  0.750  0.503-  65 3.16  67 3.16
  88  0.904  0.750  0.520-  66 3.23  68 3.23
  89  0.216  0.555  0.461-  66 3.15  65 3.33
  90  0.716  0.445  0.461-  65 3.15  66 3.33
  91  0.216  0.945  0.461-  68 3.15  67 3.33
  92  0.716  0.055  0.461-  67 3.15  68 3.33
  93  0.216  0.555  0.961-  70 3.15  69 3.33
  94  0.716  0.445  0.961-  69 3.15  70 3.33
  95  0.216  0.945  0.961-  72 3.15  71 3.33
  96  0.716  0.055  0.961-  71 3.15  72 3.33
 
  LATTYP: Found a triclinic cell.
 ALAT       =    17.8238589327
 B/A-ratio  =     0.6989248630
 C/A-ratio  =     1.0156975818
 COS(alpha) =     0.0001355172
 COS(beta)  =     0.5146378593
 COS(gamma) =     0.6988877578
  
  Lattice vectors:
  
 A1 = (  -0.1406063366, -12.4576271275, -12.7466742118)
 A2 = (  -0.0011956322, -12.4575380825,   0.0007464135)
 A3 = ( -12.7162481321,  -0.0020049566, -12.8856194186)


Analysis of symmetry for initial positions (statically):
=====================================================================
 Subroutine PRICEL returns following result:
 
  LATTYP: Found a triclinic cell.
 ALAT       =     8.8502626515
 B/A-ratio  =     1.4075896561
 C/A-ratio  =     0.7202149489
 COS(alpha) =     0.0000518785
 COS(beta)  =     0.0156138721
 COS(gamma) =     0.7036188608
  
  Lattice vectors:
  
 A1 = (  -6.2878208978,   6.2278110854,  -0.0694726034)
 A2 = (   0.0011956322,  12.4575380825,  -0.0007464135)
 A3 = (  -0.0697053522,  -0.0000445225,  -6.3737103126)
 
   4 primitive cells build up your supercell.
 

 Routine SETGRP: Setting up the symmetry group for a 
 triclinic supercell.


 Subroutine GETGRP returns: Found  1 space group operations
 (whereof  1 operations were pure point group operations)
 out of a pool of  2 trial point group operations.


The static configuration has the point symmetry C_1 .


Analysis of symmetry for dynamics (positions and initial velocities):
=====================================================================
 Subroutine PRICEL returns following result:
 
  LATTYP: Found a triclinic cell.
 ALAT       =     8.8502626515
 B/A-ratio  =     1.4075896561
 C/A-ratio  =     0.7202149489
 COS(alpha) =     0.0000518785
 COS(beta)  =     0.0156138721
 COS(gamma) =     0.7036188608
  
  Lattice vectors:
  
 A1 = (  -6.2878208978,   6.2278110854,  -0.0694726034)
 A2 = (   0.0011956322,  12.4575380825,  -0.0007464135)
 A3 = (  -0.0697053522,  -0.0000445225,  -6.3737103126)
 
   4 primitive cells build up your supercell.
 

 Routine SETGRP: Setting up the symmetry group for a 
 triclinic supercell.


 Subroutine GETGRP returns: Found  1 space group operations
 (whereof  1 operations were pure point group operations)
 out of a pool of  2 trial point group operations.


The dynamic configuration has the point symmetry C_1 .


 Subroutine INISYM returns: Found  1 space group operations
 (whereof  1 operations are pure point group operations),
 and found     4 'primitive' translations

 
 
 KPOINTS: Automatic 3x3x3                         

Automatic generation of k-mesh.
Space group operators:
 irot       det(A)        alpha          n_x          n_y          n_z        tau_x        tau_y        tau_z
    1     1.000000     0.000000     1.000000     0.000000     0.000000     0.000000     0.000000     0.000000
 
 Subroutine IBZKPT returns following result:
 ===========================================
 
 Found     14 irreducible k-points:
 
 Following reciprocal coordinates:
            Coordinates               Weight
  0.000000  0.000000  0.000000      1.000000
  0.333333 -0.000000 -0.000000      2.000000
  0.000000  0.333333 -0.000000      2.000000
  0.333333  0.333333  0.000000      2.000000
 -0.333333  0.333333  0.000000      2.000000
  0.000000  0.000000  0.333333      2.000000
  0.333333  0.000000  0.333333      2.000000
 -0.333333  0.000000  0.333333      2.000000
  0.000000  0.333333  0.333333      2.000000
  0.333333  0.333333  0.333333      2.000000
 -0.333333  0.333333  0.333333      2.000000
  0.000000 -0.333333  0.333333      2.000000
  0.333333 -0.333333  0.333333      2.000000
 -0.333333 -0.333333  0.333333      2.000000
 
 Following cartesian coordinates:
            Coordinates               Weight
  0.000000  0.000000  0.000000      1.000000
  0.026507 -0.000003 -0.000290      2.000000
 -0.000004  0.026758 -0.000000      2.000000
  0.026503  0.026755 -0.000290      2.000000
 -0.026511  0.026760  0.000290      2.000000
 -0.000287  0.000002  0.026152      2.000000
  0.026220 -0.000001  0.025862      2.000000
 -0.026794  0.000004  0.026442      2.000000
 -0.000291  0.026759  0.026152      2.000000
  0.026215  0.026757  0.025862      2.000000
 -0.026798  0.026762  0.026442      2.000000
 -0.000283 -0.026756  0.026152      2.000000
  0.026224 -0.026759  0.025862      2.000000
 -0.026790 -0.026753  0.026442      2.000000
 


--------------------------------------------------------------------------------------------------------




 Dimension of arrays:
   k-points           NKPTS =     14   k-points in BZ     NKDIM =     14   number of bands    NBANDS=    256
   number of dos      NEDOS =    301   number of ions     NIONS =     96
   non local maximal  LDIM  =      6   non local SUM 2l+1 LMDIM =     18
   total plane-waves  NPLWV = ******
   max r-space proj   IRMAX =      1   max aug-charges    IRDMAX= 314103
   dimension x,y,z NGX =   112 NGY =  108 NGZ =  112
   dimension x,y,z NGXF=   224 NGYF=  216 NGZF=  224
   support grid    NGXF=   448 NGYF=  432 NGZF=  448
   ions per type =               8   8  48   8  24
 NGX,Y,Z   is equivalent  to a cutoff of  14.80, 14.41, 14.61 a.u.
 NGXF,Y,Z  is equivalent  to a cutoff of  29.61, 28.83, 29.21 a.u.


 I would recommend the setting:
   dimension x,y,z NGX =   109 NGY =  107 NGZ =  110
 SYSTEM =  MAPbI3-Cubic                            
 POSCAR =  C N H Pb I                              

 Startparameter for this run:
   NWRITE =      2    write-flag & timer
   PREC   = accura    normal or accurate (medium, high low for compatibility)
   ISTART =      0    job   : 0-new  1-cont  2-samecut
   ICHARG =      2    charge: 1-file 2-atom 10-const
   ISPIN  =      1    spin polarized calculation?
   LNONCOLLINEAR =      F non collinear calculations
   LSORBIT =      F    spin-orbit coupling
   INIWAV =      1    electr: 0-lowe 1-rand  2-diag
   LASPH  =      F    aspherical Exc in radial PAW
   METAGGA=      F    non-selfconsistent MetaGGA calc.

 Electronic Relaxation 1
   ENCUT  =  700.0 eV  51.45 Ry    7.17 a.u.  27.13 26.87 27.50*2*pi/ulx,y,z
   ENINI  =  700.0     initial cutoff
   ENAUG  =  644.9 eV  augmentation charge cutoff
   NELM   =     60;   NELMIN=  2; NELMDL= -5     # of ELM steps 
   EDIFF  = 0.1E-09   stopping-criterion for ELM
   LREAL  =      F    real-space projection
   NLSPLINE    = F    spline interpolate recip. space projectors
   LCOMPAT=      F    compatible to vasp.4.4
   GGA_COMPAT  = T    GGA compatible to vasp.4.4-vasp.4.6
   LMAXPAW     = -100 max onsite density
   LMAXMIX     =    2 max onsite mixed and CHGCAR
   VOSKOWN=      0    Vosko Wilk Nusair interpolation
   ROPT   =    0.00000   0.00000   0.00000   0.00000
   ROPT   =    0.00000
 Ionic relaxation
   EDIFFG = 0.1E-08   stopping-criterion for IOM
   NSW    =      0    number of steps for IOM
   NBLOCK =      1;   KBLOCK =      1    inner block; outer block 
   IBRION =     -1    ionic relax: 0-MD 1-quasi-New 2-CG
   NFREE  =      0    steps in history (QN), initial steepest desc. (CG)
   ISIF   =      2    stress and relaxation
   IWAVPR =     10    prediction:  0-non 1-charg 2-wave 3-comb
   ISYM   =      2    0-nonsym 1-usesym 2-fastsym
   LCORR  =      T    Harris-Foulkes like correction to forces

   POTIM  = 0.5000    time-step for ionic-motion
   TEIN   =    0.0    initial temperature
   TEBEG  =    0.0;   TEEND  =   0.0 temperature during run
   SMASS  =  -3.00    Nose mass-parameter (am)
   estimated Nose-frequenzy (Omega)   =  0.10E-29 period in steps =****** mass=  -0.362E-26a.u.
   SCALEE = 1.0000    scale energy and forces
   NPACO  =    256;   APACO  = 16.0  distance and # of slots for P.C.
   PSTRESS=    0.0 pullay stress

  Mass of Ions in am
   POMASS =  12.01 14.00  1.00207.20126.90
  Ionic Valenz
   ZVAL   =   4.00  5.00  1.00 14.00  7.00
  Atomic Wigner-Seitz radii
   RWIGS  =  -1.00 -1.00 -1.00 -1.00 -1.00
  virtual crystal weights 
   VCA    =   1.00  1.00  1.00  1.00  1.00
   NELECT =     400.0000    total number of electrons
   NUPDOWN=      -1.0000    fix difference up-down

 DOS related values:
   EMIN   =  10.00;   EMAX   =-10.00  energy-range for DOS
   EFERMI =   0.00
   ISMEAR =     0;   SIGMA  =   0.00  broadening in eV -4-tet -1-fermi 0-gaus

 Electronic relaxation 2 (details)
   IALGO  =     38    algorithm
   LDIAG  =      T    sub-space diagonalisation (order eigenvalues)
   LSUBROT=      F    optimize rotation matrix (better conditioning)
   TURBO    =      0    0=normal 1=particle mesh
   IRESTART =      0    0=no restart 2=restart with 2 vectors
   NREBOOT  =      0    no. of reboots
   NMIN     =      0    reboot dimension
   EREF     =   0.00    reference energy to select bands
   IMIX   =      4    mixing-type and parameters
     AMIX     =   0.40;   BMIX     =  1.00
     AMIX_MAG =   1.60;   BMIX_MAG =  1.00
     AMIN     =   0.10
     WC   =   100.;   INIMIX=   1;  MIXPRE=   1;  MAXMIX= -45

 Intra band minimization:
   WEIMIN = 0.0000     energy-eigenvalue tresh-hold
   EBREAK =  0.98E-13  absolut break condition
   DEPER  =   0.30     relativ break condition  

   TIME   =   0.40     timestep for ELM

  volume/ion in A,a.u.               =      20.80       140.38
  Fermi-wavevector in a.u.,A,eV,Ry     =   0.957863  1.810099 12.483376  0.917502
  Thomas-Fermi vector in A             =   2.086919
 
 Write flags
   LWAVE  =      F    write WAVECAR
   LCHARG =      F    write CHGCAR
   LVTOT  =      F    write LOCPOT, total local potential
   LVHAR  =      F    write LOCPOT, Hartree potential only
   LELF   =      F    write electronic localiz. function (ELF)
   LORBIT =      0    0 simple, 1 ext, 2 COOP (PROOUT)


 Dipole corrections
   LMONO  =      F    monopole corrections only (constant potential shift)
   LDIPOL =      F    correct potential (dipole corrections)
   IDIPOL =      0    1-x, 2-y, 3-z, 4-all directions 
   EPSILON=  1.0000000 bulk dielectric constant

 Core level calculations are selected ICORELEVEL =  1
 Exchange correlation treatment:
   GGA     =    PS    GGA type
   LEXCH   =    14    internal setting for exchange type
   VOSKOWN=      0    Vosko Wilk Nusair interpolation
   LHFCALC =     F    Hartree Fock is set to
   LHFONE  =     F    Hartree Fock one center treatment
   AEXX    =    0.0000 exact exchange contribution

 Linear response parameters
   LEPSILON=     F    determine dielectric tensor
   LRPA    =     F    only Hartree local field effects (RPA)
   LNABLA  =     F    use nabla operator in PAW spheres
   LVEL    =     F    velocity operator in full k-point grid
   LINTERFAST=   F  fast interpolation
   KINTER  =     0    interpolate to denser k-point grid
   CSHIFT  =0.1000    complex shift for real part using Kramers Kronig
   OMEGAMAX=  -1.0    maximum frequency
   DEG_THRESHOLD= 0.2000000E-02 threshold for treating states as degnerate
   RTIME   =    0.100 relaxation time in fs

 Orbital magnetization related:
   ORBITALMAG=     F  switch on orbital magnetization
   LCHIMAG   =     F  perturbation theory with respect to B field
   DQ        =  0.001000  dq finite difference perturbation B field



--------------------------------------------------------------------------------------------------------


 Static calculation
 charge density and potential will be updated during run
 non-spin polarized calculation
 Variant of blocked Davidson
 Davidson routine will perform the subspace rotation
 perform sub-space diagonalisation
    after iterative eigenvector-optimisation
 modified Broyden-mixing scheme, WC =      100.0
 initial mixing is a Kerker type mixing with AMIX =  0.4000 and BMIX =      1.0000
 Hartree-type preconditioning will be used
 using additional bands           56
 reciprocal scheme for non local part
 use partial core corrections
 calculate Harris-corrections to forces 
   (improved forces if not selfconsistent)
 use gradient corrections 
 use of overlap-Matrix (Vanderbilt PP)
 Gauss-broadening in eV      SIGMA  =   0.00


--------------------------------------------------------------------------------------------------------


  energy-cutoff  :      700.00
  volume of cell :     1996.98
      direct lattice vectors                 reciprocal lattice vectors
    12.576837428  0.001915912  0.138198793     0.079520802 -0.000007684 -0.000869670
     0.001195632 12.457538083 -0.000746413    -0.000012224  0.080272684 -0.000000427
     0.139410704  0.000089045 12.747420625    -0.000862111  0.000004784  0.078456671

  length of vectors
    12.577596840 12.457538162 12.748182927     0.079525558  0.080272685  0.078461408


 
 k-points in units of 2pi/SCALE and weight: Automatic 3x3x3                         
   0.00000000  0.00000000  0.00000000       0.037
   0.02650693 -0.00000256 -0.00028989       0.074
  -0.00000407  0.02675756 -0.00000014       0.074
   0.02650286  0.02675500 -0.00029003       0.074
  -0.02651101  0.02676012  0.00028975       0.074
  -0.00028737  0.00000159  0.02615222       0.074
   0.02621956 -0.00000097  0.02586233       0.074
  -0.02679430  0.00000416  0.02644211       0.074
  -0.00029144  0.02675916  0.02615208       0.074
   0.02621549  0.02675659  0.02586219       0.074
  -0.02679838  0.02676172  0.02644197       0.074
  -0.00028330 -0.02675597  0.02615237       0.074
   0.02622364 -0.02675853  0.02586248       0.074
  -0.02679023 -0.02675341  0.02644226       0.074
 
 k-points in reciprocal lattice and weights: Automatic 3x3x3                         
   0.00000000  0.00000000  0.00000000       0.037
   0.33333333 -0.00000000 -0.00000000       0.074
   0.00000000  0.33333333 -0.00000000       0.074
   0.33333333  0.33333333  0.00000000       0.074
  -0.33333333  0.33333333  0.00000000       0.074
   0.00000000  0.00000000  0.33333333       0.074
   0.33333333  0.00000000  0.33333333       0.074
  -0.33333333  0.00000000  0.33333333       0.074
   0.00000000  0.33333333  0.33333333       0.074
   0.33333333  0.33333333  0.33333333       0.074
  -0.33333333  0.33333333  0.33333333       0.074
   0.00000000 -0.33333333  0.33333333       0.074
   0.33333333 -0.33333333  0.33333333       0.074
  -0.33333333 -0.33333333  0.33333333       0.074
 
 position of ions in fractional coordinates (direct lattice) 
   0.18243642  0.24984757  0.25158864
   0.71155185  0.24996898  0.20624206
   0.21155185  0.74996898  0.20624206
   0.68243642  0.74984757  0.25158864
   0.18243642  0.24984757  0.75158864
   0.71155185  0.24996898  0.70624206
   0.21155185  0.74996898  0.70624206
   0.68243642  0.74984757  0.75158864
   0.30053107  0.24995759  0.27260182
   0.80854337  0.25004969  0.27516677
   0.30854337  0.75004969  0.27516677
   0.80053107  0.74995759  0.27260182
   0.30053107  0.24995759  0.77260182
   0.80854337  0.25004969  0.77516677
   0.30854337  0.75004969  0.77516677
   0.80053107  0.74995759  0.77260182
   0.17082090  0.24982303  0.16418445
   0.73932943  0.24981917  0.12159280
   0.23932943  0.74981917  0.12159280
   0.67082090  0.74982303  0.16418445
   0.17082090  0.24982303  0.66418445
   0.73932943  0.24981917  0.62159280
   0.23932943  0.74981917  0.62159280
   0.67082090  0.74982303  0.66418445
   0.14523874  0.32212572  0.28728309
   0.66343687  0.32257865  0.22374754
   0.16343687  0.82257865  0.22374754
   0.64523874  0.82212572  0.28728309
   0.14523874  0.32212572  0.78728309
   0.66343687  0.32257865  0.72374754
   0.16343687  0.82257865  0.72374754
   0.64523874  0.82212572  0.78728309
   0.14543618  0.17751084  0.28731114
   0.66344948  0.17744130  0.22399027
   0.16344948  0.67744130  0.22399027
   0.64543618  0.67751084  0.28731114
   0.14543618  0.17751084  0.78731114
   0.66344948  0.17744130  0.72399027
   0.16344948  0.67744130  0.72399027
   0.64543618  0.67751084  0.78731114
   0.33951897  0.31738878  0.23993244
   0.85675019  0.31835979  0.26158055
   0.35675019  0.81835979  0.26158055
   0.83951897  0.81738878  0.23993244
   0.33951897  0.31738878  0.73993244
   0.85675019  0.31835979  0.76158055
   0.35675019  0.81835979  0.76158055
   0.83951897  0.81738878  0.73993244
   0.33967945  0.18256952  0.23995489
   0.85673115  0.18164026  0.26182691
   0.35673115  0.68164026  0.26182691
   0.83967945  0.68256952  0.23995489
   0.33967945  0.18256952  0.73995489
   0.85673115  0.18164026  0.76182691
   0.35673115  0.68164026  0.76182691
   0.83967945  0.68256952  0.73995489
   0.31951828  0.24996768  0.35496066
   0.78682187  0.25021937  0.35625783
   0.28682187  0.75021937  0.35625783
   0.81951828  0.74996768  0.35496066
   0.31951828  0.24996768  0.85496066
   0.78682187  0.25021937  0.85625783
   0.28682187  0.75021937  0.85625783
   0.81951828  0.74996768  0.85496066
   0.47242901  0.49761592  0.48881461
   0.97245454  0.50236367  0.48880828
   0.47245454  0.00236367  0.48880828
   0.97242901  0.99761592  0.48881461
   0.47242901  0.49761592  0.98881461
   0.97245454  0.50236367  0.98880828
   0.47245454  0.00236367  0.98880828
   0.97242901  0.99761592  0.98881461
   0.45470830  0.49872704  0.23758026
   0.95477905  0.50125505  0.23756522
   0.45477905  0.00125505  0.23756522
   0.95470830  0.99872704  0.23758026
   0.45470830  0.49872704  0.73758026
   0.95477905  0.50125505  0.73756522
   0.45477905  0.00125505  0.73756522
   0.95470830  0.99872704  0.73758026
   0.40390692  0.24998804  0.02042566
   0.99536396  0.24996998  0.00323877
   0.49536396  0.74996998  0.00323877
   0.90390692  0.74998804  0.02042566
   0.40390692  0.24998804  0.52042566
   0.99536396  0.24996998  0.50323877
   0.49536396  0.74996998  0.50323877
   0.90390692  0.74998804  0.52042566
   0.21616040  0.55457747  0.46123971
   0.71618248  0.44541740  0.46123969
   0.21618248  0.94541740  0.46123969
   0.71616040  0.05457747  0.46123971
   0.21616040  0.55457747  0.96123971
   0.71618248  0.44541740  0.96123969
   0.21618248  0.94541740  0.96123969
   0.71616040  0.05457747  0.96123971
 
 position of ions in cartesian coordinates  (Angst):
   2.32984604  3.11285758  3.23213228
   8.97812313  3.11537970  2.72720337
   2.69030223  9.34319079  2.65773076
   8.61886257  9.34258457  3.30085847
   2.39955139  3.11290210  9.60584259
   9.04782848  3.11542422  9.10091368
   2.76000758  9.34323531  9.03144108
   8.68856792  9.34262910  9.67456878
   3.81803288  3.11445622  3.51631652
  10.20757865  3.11657719  3.61921968
   3.91975775  9.34438828  3.54974707
  10.10704941  9.34418322  3.58504271
   3.88773823  3.11450074  9.89002683
  10.27728400  3.11662171  9.99292999
   3.98946310  9.34443280  9.92345739
  10.17675476  9.34422774  9.95875302
   2.17157450  3.11252176  2.11634900
   9.31567609  3.11355910  1.65198258
   3.02785519  9.34137018  1.58250997
   8.46059103  9.34224876  2.18507519
   2.24127985  3.11256628  8.49005931
   9.38538144  3.11360362  8.02569289
   3.09756055  9.34141471  7.95622029
   8.53029638  9.34229328  8.55878550
   1.86707949  4.01319726  3.68194982
   8.37551621  4.01982688  2.94364946
   2.08769531 10.24763797  2.87417685
   8.15609602 10.24292426  3.75067601
   1.93678484  4.01324178 10.05566013
   8.44522156  4.01987140  9.31735977
   2.15740066 10.24768249  9.24788717
   8.22580137 10.24296878 10.12438632
   1.86939372  2.21165231  3.68244261
   8.37553509  2.21177286  2.94685365
   2.08771420  8.43958394  2.87738105
   8.15841025  8.44137931  3.75116880
   1.93909908  2.21169684 10.05615293
   8.44524045  2.21181738  9.32056397
   2.15741955  8.43962846  9.25109136
   8.22811561  8.44142383 10.12487912
   4.30390350  3.95455462  3.10520388
  10.81205558  3.96764396  3.45264147
   4.52423468 10.19545504  3.38316887
  10.59292003 10.18428161  3.17393007
   4.37360885  3.95459914  9.47891420
  10.88176093  3.96768848  9.82635178
   4.59394004 10.19549957  9.75687918
  10.66262538 10.18432613  9.54764039
   4.30576377  2.27503891  3.10561294
  10.81168706  2.26445513  3.45588137
   4.52386616  8.49226622  3.38640877
  10.59478030  8.50476591  3.17433913
   4.37546912  2.27508343  9.47932325
  10.88139241  2.26449965  9.82959168
   4.59357152  8.49231074  9.76011908
  10.66448565  8.50481043  9.54804944
   4.06831359  3.11462563  4.56880332
   9.94569608  3.11865649  4.64991945
   3.65787518  9.34646758  4.58044685
  10.35733012  9.34435263  4.63752951
   4.13801894  3.11467015 10.94251363
  10.01540143  3.11870101 11.02362976
   3.72758053  9.34651210 10.95415716
  10.42703547  9.34439715 11.01123982
   6.01040386  6.20001787  6.29604315
  12.29914838  6.26012127  6.36506186
   6.01013185  0.03039427  6.29633567
  12.29942039 12.42974487  6.36476934
   6.08010921  6.20006240 12.66975346
  12.36885373  6.26016579 12.73877217
   6.07983720  0.03043879 12.67004598
  12.36912574 12.42978939 12.73847965
   5.75250989  6.21380348  3.09100345
  12.04181933  6.24625436  3.15991894
   5.75280280  0.01652736  3.09119275
  12.04152642 12.44353048  3.15972964
   5.82221524  6.21384801  9.46471376
  12.11152468  6.24629888  9.53362925
   5.82250815  0.01657188  9.46490306
  12.11123177 12.44357500  9.53343995
   5.08301816  3.11501124  0.31600739
  12.51928104  3.11591783  0.17865749
   6.23146014  9.34372892  0.10918489
  11.37203469  9.34473824  0.38473358
   5.15272352  3.11505577  6.68971771
  12.58898639  3.11596235  6.55236780
   6.30116550  9.34377344  6.48289520
  11.44174005  9.34478276  6.75844390
   2.78357903  6.90912523  5.90907575
   9.07214489  5.55021741  5.97825947
   2.78432399 11.77802850  5.90878687
   9.07139993  0.68131414  5.97854836
   2.85328439  6.90916975 12.28278607
   9.14185024  5.55026193 12.35196979
   2.85402934 11.77807302 12.28249718
   9.14110528  0.68135866 12.35225867
 


--------------------------------------------------------------------------------------------------------


 k-point  1 :   0.0000 0.0000 0.0000  plane waves:   84007
 k-point  2 :   0.3333-0.0000-0.0000  plane waves:   84003
 k-point  3 :   0.0000 0.3333-0.0000  plane waves:   83995
 k-point  4 :   0.3333 0.3333 0.0000  plane waves:   84018
 k-point  5 :  -0.3333 0.3333 0.0000  plane waves:   84019
 k-point  6 :   0.0000 0.0000 0.3333  plane waves:   83960
 k-point  7 :   0.3333 0.0000 0.3333  plane waves:   83937
 k-point  8 :  -0.3333 0.0000 0.3333  plane waves:   83982
 k-point  9 :   0.0000 0.3333 0.3333  plane waves:   83984
 k-point 10 :   0.3333 0.3333 0.3333  plane waves:   84012
 k-point 11 :  -0.3333 0.3333 0.3333  plane waves:   83970
 k-point 12 :   0.0000-0.3333 0.3333  plane waves:   83977
 k-point 13 :   0.3333-0.3333 0.3333  plane waves:   84013
 k-point 14 :  -0.3333-0.3333 0.3333  plane waves:   83973

 maximum and minimum number of plane-waves per node :     28039    27934

 maximum number of plane-waves:     84019
 maximum index in each direction: 
   IXMAX=   27   IYMAX=   27   IZMAX=   27
   IXMIN=  -27   IYMIN=  -27   IZMIN=  -27

 NGX is ok and might be reduce to 110
 WARNING: aliasing errors must be expected set NGY to 110 to avoid them
 NGZ is ok and might be reduce to 110
 aliasing errors are usually negligible using standard VASP settings
 and one can safely disregard these warnings

 parallel 3D FFT for wavefunctions:
    minimum data exchange during FFTs selected (reduces bandwidth)
 parallel 3D FFT for charge:
    minimum data exchange during FFTs selected (reduces bandwidth)


 total amount of memory used by VASP on root node   697522. kBytes
========================================================================

   base      :      30000. kBytes
   nonl-proj :     325712. kBytes
   fftplans  :      80881. kBytes
   grid      :      57435. kBytes
   one-center:        497. kBytes
   wavefun   :     202997. kBytes
 
     INWAV:  cpu time    0.0000: real time    0.0000
 Broyden mixing: mesh for mixing (old mesh)
   NGX = 55   NGY = 53   NGZ = 55
  (NGX  =224   NGY  =216   NGZ  =224)
  gives a total of 160325 points

 initial charge density was supplied:
 charge density of overlapping atoms calculated
 number of electron     400.0000000 magnetization 
 keeping initial charge density in first step


--------------------------------------------------------------------------------------------------------


 Maximum index for augmentation-charges        14619 (set IRDMAX)


--------------------------------------------------------------------------------------------------------


 First call to EWALD:  gamma=   0.141
 Maximum number of real-space cells 3x 3x 3
 Maximum number of reciprocal cells 3x 3x 3

 FEWALD executed in parallel
    FEWALD:  cpu time    0.0360: real time    0.0364


----------------------------------------- Iteration    1(   1)  ---------------------------------------


    POTLOK:  cpu time    0.4560: real time    0.4564
    SETDIJ:  cpu time    0.7920: real time    0.7933
     EDDAV:  cpu time   72.2365: real time   72.2821
       DOS:  cpu time    0.0040: real time    0.0017
    --------------------------------------------
      LOOP:  cpu time   73.4926: real time   73.5500

 eigenvalue-minimisations  :  7176
 total energy-change (2. order) : 0.3584542E+04  (-0.1892731E+05)
 number of electron     400.0000000 magnetization 
 augmentation part      400.0000000 magnetization 

 Free energy of the ion-electron system (eV)
  ---------------------------------------------------
  alpha Z        PSCENC =       370.05370877
  Ewald energy   TEWEN  =    -15672.23028294
  -Hartree energ DENC   =     -8011.55045822
  -exchange      EXHF   =         0.00000000
  -V(xc)+E(xc)   XCENC  =       388.11168726
  PAW double counting   =     20601.23165652   -19855.90553853
  entropy T*S    EENTRO =        -0.00004180
  eigenvalues    EBANDS =      1015.82503340
  atomic energy  EATOM  =     24749.00668030
  Solvation  Ediel_sol  =         0.00000000
  ---------------------------------------------------
  free energy    TOTEN  =      3584.54244476 eV

  energy without entropy =     3584.54248656  energy(sigma->0) =     3584.54246566


--------------------------------------------------------------------------------------------------------




----------------------------------------- Iteration    1(   2)  ---------------------------------------


     EDDAV:  cpu time   78.7729: real time   78.8195
       DOS:  cpu time    0.0000: real time    0.0019
    --------------------------------------------
      LOOP:  cpu time   78.7729: real time   78.8508

 eigenvalue-minimisations  :  8040
 total energy-change (2. order) :-0.3388863E+04  (-0.3178140E+04)
 number of electron     400.0000000 magnetization 
 augmentation part      400.0000000 magnetization 

 Free energy of the ion-electron system (eV)
  ---------------------------------------------------
  alpha Z        PSCENC =       370.05370877
  Ewald energy   TEWEN  =    -15672.23028294
  -Hartree energ DENC   =     -8011.55045822
  -exchange      EXHF   =         0.00000000
  -V(xc)+E(xc)   XCENC  =       388.11168726
  PAW double counting   =     20601.23165652   -19855.90553853
  entropy T*S    EENTRO =        -0.00004179
  eigenvalues    EBANDS =     -2373.03796238
  atomic energy  EATOM  =     24749.00668030
  Solvation  Ediel_sol  =         0.00000000
  ---------------------------------------------------
  free energy    TOTEN  =       195.67944899 eV

  energy without entropy =      195.67949078  energy(sigma->0) =      195.67946988


--------------------------------------------------------------------------------------------------------




----------------------------------------- Iteration    1(   3)  ---------------------------------------


     EDDAV:  cpu time   89.3656: real time   89.4213
       DOS:  cpu time    0.0000: real time    0.0010
    --------------------------------------------
      LOOP:  cpu time   89.3696: real time   89.4479

 eigenvalue-minimisations  :  9456
 total energy-change (2. order) :-0.5922561E+03  (-0.5836952E+03)
 number of electron     400.0000000 magnetization 
 augmentation part      400.0000000 magnetization 

 Free energy of the ion-electron system (eV)
  ---------------------------------------------------
  alpha Z        PSCENC =       370.05370877
  Ewald energy   TEWEN  =    -15672.23028294
  -Hartree energ DENC   =     -8011.55045822
  -exchange      EXHF   =         0.00000000
  -V(xc)+E(xc)   XCENC  =       388.11168726
  PAW double counting   =     20601.23165652   -19855.90553853
  entropy T*S    EENTRO =         0.00000000
  eigenvalues    EBANDS =     -2965.29409528
  atomic energy  EATOM  =     24749.00668030
  Solvation  Ediel_sol  =         0.00000000
  ---------------------------------------------------
  free energy    TOTEN  =      -396.57664212 eV

  energy without entropy =     -396.57664212  energy(sigma->0) =     -396.57664212


--------------------------------------------------------------------------------------------------------




----------------------------------------- Iteration    1(   4)  ---------------------------------------


     EDDAV:  cpu time   91.0297: real time   91.0876
       DOS:  cpu time    0.0040: real time    0.0016
    --------------------------------------------
      LOOP:  cpu time   91.0377: real time   91.1350

 eigenvalue-minimisations  :  9680
 total energy-change (2. order) :-0.4040382E+02  (-0.4022564E+02)
 number of electron     400.0000000 magnetization 
 augmentation part      400.0000000 magnetization 

 Free energy of the ion-electron system (eV)
  ---------------------------------------------------
  alpha Z        PSCENC =       370.05370877
  Ewald energy   TEWEN  =    -15672.23028294
  -Hartree energ DENC   =     -8011.55045822
  -exchange      EXHF   =         0.00000000
  -V(xc)+E(xc)   XCENC  =       388.11168726
  PAW double counting   =     20601.23165652   -19855.90553853
  entropy T*S    EENTRO =         0.00000000
  eigenvalues    EBANDS =     -3005.69791180
  atomic energy  EATOM  =     24749.00668030
  Solvation  Ediel_sol  =         0.00000000
  ---------------------------------------------------
  free energy    TOTEN  =      -436.98045864 eV

  energy without entropy =     -436.98045864  energy(sigma->0) =     -436.98045864


--------------------------------------------------------------------------------------------------------




----------------------------------------- Iteration    1(   5)  ---------------------------------------


     EDDAV:  cpu time   92.6298: real time   92.6857
       DOS:  cpu time    0.0000: real time    0.0010
    CHARGE:  cpu time    3.3522: real time    3.3544
    MIXING:  cpu time    0.0160: real time    0.0132
    --------------------------------------------
      LOOP:  cpu time   95.9980: real time   96.3110

 eigenvalue-minimisations  :  9808
 total energy-change (2. order) :-0.1503244E+01  (-0.1500534E+01)
 number of electron     400.0000000 magnetization 
 augmentation part        7.5395206 magnetization 

 Broyden mixing:
  rms(total) = 0.28635E+01    rms(broyden)= 0.28635E+01
  rms(prec ) = 0.34096E+01
  weight for this iteration     100.00

 Free energy of the ion-electron system (eV)
  ---------------------------------------------------
  alpha Z        PSCENC =       370.05370877
  Ewald energy   TEWEN  =    -15672.23028294
  -Hartree energ DENC   =     -8011.55045822
  -exchange      EXHF   =         0.00000000
  -V(xc)+E(xc)   XCENC  =       388.11168726
  PAW double counting   =     20601.23165652   -19855.90553853
  entropy T*S    EENTRO =        -0.00000000
  eigenvalues    EBANDS =     -3007.20115534
  atomic energy  EATOM  =     24749.00668030
  Solvation  Ediel_sol  =         0.00000000
  ---------------------------------------------------
  free energy    TOTEN  =      -438.48370218 eV

  energy without entropy =     -438.48370218  energy(sigma->0) =     -438.48370218


--------------------------------------------------------------------------------------------------------




----------------------------------------- Iteration    1(   6)  ---------------------------------------


    POTLOK:  cpu time    0.4440: real time    0.4443
    SETDIJ:  cpu time    0.7800: real time    0.7807
     EDDAV:  cpu time   95.5460: real time   95.6018
       DOS:  cpu time    0.0000: real time    0.0010
    CHARGE:  cpu time    3.3522: real time    3.3556
    MIXING:  cpu time    0.0160: real time    0.0133
    --------------------------------------------
      LOOP:  cpu time  100.1383: real time  100.2191

 eigenvalue-minimisations  : 10296
 total energy-change (2. order) : 0.1974830E+02  (-0.3821911E+01)
 number of electron     400.0000000 magnetization 
 augmentation part        7.8586212 magnetization 

 Broyden mixing:
  rms(total) = 0.15147E+01    rms(broyden)= 0.15147E+01
  rms(prec ) = 0.16988E+01
  weight for this iteration     100.00

 eigenvalues of (default mixing * dielectric matrix)
  average eigenvalue GAMMA=   1.5626
  1.5626

 Free energy of the ion-electron system (eV)
  ---------------------------------------------------
  alpha Z        PSCENC =       370.05370877
  Ewald energy   TEWEN  =    -15672.23028294
  -Hartree energ DENC   =     -8173.34460813
  -exchange      EXHF   =         0.00000000
  -V(xc)+E(xc)   XCENC  =       401.82041560
  PAW double counting   =     22892.39978209   -22144.19561296
  entropy T*S    EENTRO =        -0.00000000
  eigenvalues    EBANDS =     -2842.24548775
  atomic energy  EATOM  =     24749.00668030
  Solvation  Ediel_sol  =         0.00000000
  ---------------------------------------------------
  free energy    TOTEN  =      -418.73540502 eV

  energy without entropy =     -418.73540502  energy(sigma->0) =     -418.73540502


--------------------------------------------------------------------------------------------------------




----------------------------------------- Iteration    1(   7)  ---------------------------------------


    POTLOK:  cpu time    0.4440: real time    0.4433
    SETDIJ:  cpu time    0.7680: real time    0.7685
     EDDAV:  cpu time   93.8819: real time   93.9468
       DOS:  cpu time    0.0040: real time    0.0010
    CHARGE:  cpu time    3.3482: real time    3.3519
    MIXING:  cpu time    0.0160: real time    0.0134
    --------------------------------------------
      LOOP:  cpu time   98.4622: real time   98.5713

 eigenvalue-minimisations  :  9992
 total energy-change (2. order) : 0.2256938E+01  (-0.1812400E+01)
 number of electron     400.0000000 magnetization 
 augmentation part        7.9806788 magnetization 

 Broyden mixing:
  rms(total) = 0.76952E+00    rms(broyden)= 0.76950E+00
  rms(prec ) = 0.82309E+00
  weight for this iteration     100.00

 eigenvalues of (default mixing * dielectric matrix)
  average eigenvalue GAMMA=   1.8826
  1.5203  2.2449

 Free energy of the ion-electron system (eV)
  ---------------------------------------------------
  alpha Z        PSCENC =       370.05370877
  Ewald energy   TEWEN  =    -15672.23028294
  -Hartree energ DENC   =     -8258.00492231
  -exchange      EXHF   =         0.00000000
  -V(xc)+E(xc)   XCENC  =       411.20337995
  PAW double counting   =     25811.21994040   -25061.28166745
  entropy T*S    EENTRO =         0.00000000
  eigenvalues    EBANDS =     -2766.44530416
  atomic energy  EATOM  =     24749.00668030
  Solvation  Ediel_sol  =         0.00000000
  ---------------------------------------------------
  free energy    TOTEN  =      -416.47846744 eV

  energy without entropy =     -416.47846744  energy(sigma->0) =     -416.47846744


--------------------------------------------------------------------------------------------------------




----------------------------------------- Iteration    1(   8)  ---------------------------------------


    POTLOK:  cpu time    0.4440: real time    0.4457
    SETDIJ:  cpu time    0.8000: real time    0.7998
     EDDAV:  cpu time   84.0853: real time   84.1360
       DOS:  cpu time    0.0000: real time    0.0009
    CHARGE:  cpu time    3.3482: real time    3.3517
    MIXING:  cpu time    0.0160: real time    0.0136
    --------------------------------------------
      LOOP:  cpu time   88.6935: real time   88.7578

 eigenvalue-minimisations  :  8792
 total energy-change (2. order) : 0.1641344E+00  (-0.3716319E+00)
 number of electron     400.0000000 magnetization 
 augmentation part        7.8767501 magnetization 

 Broyden mixing:
  rms(total) = 0.20189E+00    rms(broyden)= 0.20189E+00
  rms(prec ) = 0.24840E+00
  weight for this iteration     100.00

 eigenvalues of (default mixing * dielectric matrix)
  average eigenvalue GAMMA=   1.6168
  2.4129  1.2188  1.2188

 Free energy of the ion-electron system (eV)
  ---------------------------------------------------
  alpha Z        PSCENC =       370.05370877
  Ewald energy   TEWEN  =    -15672.23028294
  -Hartree energ DENC   =     -8257.92538732
  -exchange      EXHF   =         0.00000000
  -V(xc)+E(xc)   XCENC  =       413.53824909
  PAW double counting   =     27934.09553226   -27185.07651490
  entropy T*S    EENTRO =         0.00000000
  eigenvalues    EBANDS =     -2767.77631826
  atomic energy  EATOM  =     24749.00668030
  Solvation  Ediel_sol  =         0.00000000
  ---------------------------------------------------
  free energy    TOTEN  =      -416.31433300 eV

  energy without entropy =     -416.31433300  energy(sigma->0) =     -416.31433300


--------------------------------------------------------------------------------------------------------




----------------------------------------- Iteration    1(   9)  ---------------------------------------


    POTLOK:  cpu time    0.4480: real time    0.4462
    SETDIJ:  cpu time    0.7640: real time    0.7665
     EDDAV:  cpu time   87.7015: real time   87.7557
       DOS:  cpu time    0.0040: real time    0.0023
    CHARGE:  cpu time    3.3482: real time    3.3505
    MIXING:  cpu time    0.0160: real time    0.0138
    --------------------------------------------
      LOOP:  cpu time   92.2818: real time   92.3806

 eigenvalue-minimisations  :  9216
 total energy-change (2. order) : 0.9913034E-01  (-0.8835541E-01)
 number of electron     400.0000000 magnetization 
 augmentation part        7.8977642 magnetization 

 Broyden mixing:
  rms(total) = 0.71726E-01    rms(broyden)= 0.71719E-01
  rms(prec ) = 0.81319E-01
  weight for this iteration     100.00

 eigenvalues of (default mixing * dielectric matrix)
  average eigenvalue GAMMA=   1.5257
  2.2947  1.0199  1.3941  1.3941

 Free energy of the ion-electron system (eV)
  ---------------------------------------------------
  alpha Z        PSCENC =       370.05370877
  Ewald energy   TEWEN  =    -15672.23028294
  -Hartree energ DENC   =     -8280.36483880
  -exchange      EXHF   =         0.00000000
  -V(xc)+E(xc)   XCENC  =       415.12183315
  PAW double counting   =     28130.02774034   -27381.08509872
  entropy T*S    EENTRO =         0.00000000
  eigenvalues    EBANDS =     -2746.74494476
  atomic energy  EATOM  =     24749.00668030
  Solvation  Ediel_sol  =         0.00000000
  ---------------------------------------------------
  free energy    TOTEN  =      -416.21520266 eV

  energy without entropy =     -416.21520266  energy(sigma->0) =     -416.21520266


--------------------------------------------------------------------------------------------------------




----------------------------------------- Iteration    1(  10)  ---------------------------------------


    POTLOK:  cpu time    0.4440: real time    0.4444
    SETDIJ:  cpu time    0.7880: real time    0.7873
     EDDAV:  cpu time   85.7934: real time   85.8460
       DOS:  cpu time    0.0000: real time    0.0009
    CHARGE:  cpu time    3.3482: real time    3.3518
    MIXING:  cpu time    0.0160: real time    0.0142
    --------------------------------------------
      LOOP:  cpu time   90.3896: real time   90.4695

 eigenvalue-minimisations  :  8984
 total energy-change (2. order) :-0.1444787E-01  (-0.1426535E-01)
 number of electron     400.0000000 magnetization 
 augmentation part        7.8693648 magnetization 

 Broyden mixing:
  rms(total) = 0.56389E-01    rms(broyden)= 0.56386E-01
  rms(prec ) = 0.65014E-01
  weight for this iteration     100.00

 eigenvalues of (default mixing * dielectric matrix)
  average eigenvalue GAMMA=   1.4463
  2.3322  1.9692  1.0447  1.0447  0.8406

 Free energy of the ion-electron system (eV)
  ---------------------------------------------------
  alpha Z        PSCENC =       370.05370877
  Ewald energy   TEWEN  =    -15672.23028294
  -Hartree energ DENC   =     -8281.72200685
  -exchange      EXHF   =         0.00000000
  -V(xc)+E(xc)   XCENC  =       415.18431594
  PAW double counting   =     28128.25358991   -27379.61185958
  entropy T*S    EENTRO =        -0.00000000
  eigenvalues    EBANDS =     -2745.16379608
  atomic energy  EATOM  =     24749.00668030
  Solvation  Ediel_sol  =         0.00000000
  ---------------------------------------------------
  free energy    TOTEN  =      -416.22965054 eV

  energy without entropy =     -416.22965054  energy(sigma->0) =     -416.22965054


--------------------------------------------------------------------------------------------------------




----------------------------------------- Iteration    1(  11)  ---------------------------------------


    POTLOK:  cpu time    0.4480: real time    0.4457
    SETDIJ:  cpu time    0.7640: real time    0.7665
     EDDAV:  cpu time   91.3617: real time   91.4162
       DOS:  cpu time    0.0000: real time    0.0008
    CHARGE:  cpu time    3.3562: real time    3.3581
    MIXING:  cpu time    0.0160: real time    0.0144
    --------------------------------------------
      LOOP:  cpu time   95.9460: real time   96.0476

 eigenvalue-minimisations  :  9568
 total energy-change (2. order) : 0.1285143E-02  (-0.2059403E-02)
 number of electron     400.0000000 magnetization 
 augmentation part        7.8689905 magnetization 

 Broyden mixing:
  rms(total) = 0.23596E-01    rms(broyden)= 0.23595E-01
  rms(prec ) = 0.28082E-01
  weight for this iteration     100.00

 eigenvalues of (default mixing * dielectric matrix)
  average eigenvalue GAMMA=   1.5114
  2.3754  1.9455  1.5645  1.1006  1.0412  1.0412

 Free energy of the ion-electron system (eV)
  ---------------------------------------------------
  alpha Z        PSCENC =       370.05370877
  Ewald energy   TEWEN  =    -15672.23028294
  -Hartree energ DENC   =     -8280.80621821
  -exchange      EXHF   =         0.00000000
  -V(xc)+E(xc)   XCENC  =       415.19335339
  PAW double counting   =     28171.78471785   -27423.25484792
  entropy T*S    EENTRO =         0.00000000
  eigenvalues    EBANDS =     -2745.97547663
  atomic energy  EATOM  =     24749.00668030
  Solvation  Ediel_sol  =         0.00000000
  ---------------------------------------------------
  free energy    TOTEN  =      -416.22836539 eV

  energy without entropy =     -416.22836539  energy(sigma->0) =     -416.22836539


--------------------------------------------------------------------------------------------------------




----------------------------------------- Iteration    1(  12)  ---------------------------------------


    POTLOK:  cpu time    0.4480: real time    0.4451
    SETDIJ:  cpu time    0.7640: real time    0.7671
     EDDAV:  cpu time   93.0298: real time   93.0859
       DOS:  cpu time    0.0040: real time    0.0034
    CHARGE:  cpu time    3.3522: real time    3.3535
    MIXING:  cpu time    0.0120: real time    0.0147
    --------------------------------------------
      LOOP:  cpu time   97.6101: real time   97.7070

 eigenvalue-minimisations  :  9952
 total energy-change (2. order) :-0.1406806E-02  (-0.1258065E-02)
 number of electron     400.0000000 magnetization 
 augmentation part        7.8814259 magnetization 

 Broyden mixing:
  rms(total) = 0.11364E-01    rms(broyden)= 0.11364E-01
  rms(prec ) = 0.13757E-01
  weight for this iteration     100.00

 eigenvalues of (default mixing * dielectric matrix)
  average eigenvalue GAMMA=   1.4578
  2.5840  2.3474  1.2738  1.2738  0.8819  0.9217  0.9217

 Free energy of the ion-electron system (eV)
  ---------------------------------------------------
  alpha Z        PSCENC =       370.05370877
  Ewald energy   TEWEN  =    -15672.23028294
  -Hartree energ DENC   =     -8281.10293212
  -exchange      EXHF   =         0.00000000
  -V(xc)+E(xc)   XCENC  =       415.24649381
  PAW double counting   =     28163.89761758   -27415.40333517
  entropy T*S    EENTRO =         0.00000000
  eigenvalues    EBANDS =     -2745.69772241
  atomic energy  EATOM  =     24749.00668030
  Solvation  Ediel_sol  =         0.00000000
  ---------------------------------------------------
  free energy    TOTEN  =      -416.22977220 eV

  energy without entropy =     -416.22977220  energy(sigma->0) =     -416.22977220


--------------------------------------------------------------------------------------------------------




----------------------------------------- Iteration    1(  13)  ---------------------------------------


    POTLOK:  cpu time    0.4440: real time    0.4430
    SETDIJ:  cpu time    0.7680: real time    0.7695
     EDDAV:  cpu time   80.9371: real time   80.9891
       DOS:  cpu time    0.0040: real time    0.0008
    CHARGE:  cpu time    3.3482: real time    3.3517
    MIXING:  cpu time    0.0160: real time    0.0150
    --------------------------------------------
      LOOP:  cpu time   85.5213: real time   85.6032

 eigenvalue-minimisations  :  8312
 total energy-change (2. order) :-0.2731652E-03  (-0.1894249E-03)
 number of electron     400.0000000 magnetization 
 augmentation part        7.8794932 magnetization 

 Broyden mixing:
  rms(total) = 0.88354E-02    rms(broyden)= 0.88350E-02
  rms(prec ) = 0.10117E-01
  weight for this iteration     100.00

 eigenvalues of (default mixing * dielectric matrix)
  average eigenvalue GAMMA=   1.4199
  2.6129  2.3309  1.3335  1.3335  0.9499  0.9499  0.9242  0.9242

 Free energy of the ion-electron system (eV)
  ---------------------------------------------------
  alpha Z        PSCENC =       370.05370877
  Ewald energy   TEWEN  =    -15672.23028294
  -Hartree energ DENC   =     -8281.34657183
  -exchange      EXHF   =         0.00000000
  -V(xc)+E(xc)   XCENC  =       415.27133324
  PAW double counting   =     28165.47206106   -27417.00407525
  entropy T*S    EENTRO =         0.00000000
  eigenvalues    EBANDS =     -2745.45289871
  atomic energy  EATOM  =     24749.00668030
  Solvation  Ediel_sol  =         0.00000000
  ---------------------------------------------------
  free energy    TOTEN  =      -416.23004537 eV

  energy without entropy =     -416.23004537  energy(sigma->0) =     -416.23004537


--------------------------------------------------------------------------------------------------------




----------------------------------------- Iteration    1(  14)  ---------------------------------------


    POTLOK:  cpu time    0.4440: real time    0.4436
    SETDIJ:  cpu time    0.7680: real time    0.7667
     EDDAV:  cpu time   85.7454: real time   85.8024
       DOS:  cpu time    0.0040: real time    0.0011
    CHARGE:  cpu time    3.3522: real time    3.3542
    MIXING:  cpu time    0.0160: real time    0.0153
    --------------------------------------------
      LOOP:  cpu time   90.3296: real time   90.4229

 eigenvalue-minimisations  :  8928
 total energy-change (2. order) :-0.3923506E-04  (-0.2776931E-04)
 number of electron     400.0000000 magnetization 
 augmentation part        7.8798880 magnetization 

 Broyden mixing:
  rms(total) = 0.51872E-02    rms(broyden)= 0.51871E-02
  rms(prec ) = 0.59582E-02
  weight for this iteration     100.00

 eigenvalues of (default mixing * dielectric matrix)
  average eigenvalue GAMMA=   1.5350
  2.7803  2.7803  1.8401  1.3634  1.0442  1.0442  0.9498  1.0065  1.0065

 Free energy of the ion-electron system (eV)
  ---------------------------------------------------
  alpha Z        PSCENC =       370.05370877
  Ewald energy   TEWEN  =    -15672.23028294
  -Hartree energ DENC   =     -8281.64325536
  -exchange      EXHF   =         0.00000000
  -V(xc)+E(xc)   XCENC  =       415.29224864
  PAW double counting   =     28161.32071822   -27412.83997006
  entropy T*S    EENTRO =         0.00000000
  eigenvalues    EBANDS =     -2745.18993216
  atomic energy  EATOM  =     24749.00668030
  Solvation  Ediel_sol  =         0.00000000
  ---------------------------------------------------
  free energy    TOTEN  =      -416.23008460 eV

  energy without entropy =     -416.23008460  energy(sigma->0) =     -416.23008460


--------------------------------------------------------------------------------------------------------




----------------------------------------- Iteration    1(  15)  ---------------------------------------


    POTLOK:  cpu time    0.4440: real time    0.4431
    SETDIJ:  cpu time    0.7720: real time    0.7752
     EDDAV:  cpu time   78.9129: real time   78.9662
       DOS:  cpu time    0.0040: real time    0.0008
    CHARGE:  cpu time    3.3482: real time    3.3528
    MIXING:  cpu time    0.0160: real time    0.0157
    --------------------------------------------
[...]
   -.401E+01 0.716E-01 0.464E+02   0.523E+01 -.793E-01 -.507E+02   -.146E+01 0.865E-02 0.514E+01   0.545E-07 0.211E-07 -.989E-07
   0.122E+02 0.163E-01 0.475E+02   -.129E+02 -.182E-01 -.519E+02   0.887E+00 0.161E-02 0.525E+01   0.118E-06 0.168E-07 -.846E-07
   0.237E+02 -.389E+02 -.152E+02   -.260E+02 0.432E+02 0.174E+02   0.247E+01 -.449E+01 -.223E+01   0.600E-07 0.458E-07 0.905E-07
   0.343E+02 -.387E+02 -.448E+01   -.371E+02 0.430E+02 0.545E+01   0.312E+01 -.452E+01 -.992E+00   0.112E-08 0.451E-07 0.643E-07
   0.343E+02 -.387E+02 -.448E+01   -.371E+02 0.430E+02 0.545E+01   0.312E+01 -.452E+01 -.992E+00   -.347E-07 0.831E-07 0.647E-07
   0.237E+02 -.389E+02 -.152E+02   -.260E+02 0.432E+02 0.174E+02   0.247E+01 -.449E+01 -.223E+01   0.958E-07 0.733E-07 0.905E-07
   0.237E+02 -.389E+02 -.152E+02   -.260E+02 0.432E+02 0.174E+02   0.247E+01 -.449E+01 -.223E+01   0.597E-07 0.457E-07 0.798E-07
   0.343E+02 -.387E+02 -.448E+01   -.371E+02 0.430E+02 0.545E+01   0.312E+01 -.452E+01 -.992E+00   -.118E-08 0.458E-07 0.473E-07
   0.343E+02 -.387E+02 -.448E+01   -.371E+02 0.430E+02 0.545E+01   0.312E+01 -.452E+01 -.992E+00   -.353E-07 0.831E-07 0.499E-07
   0.237E+02 -.389E+02 -.152E+02   -.260E+02 0.432E+02 0.174E+02   0.247E+01 -.449E+01 -.223E+01   0.952E-07 0.713E-07 0.686E-07
   0.236E+02 0.390E+02 -.153E+02   -.259E+02 -.433E+02 0.174E+02   0.246E+01 0.449E+01 -.223E+01   0.565E-07 -.805E-07 0.917E-07
   0.343E+02 0.387E+02 -.461E+01   -.371E+02 -.430E+02 0.559E+01   0.312E+01 0.451E+01 -.101E+01   -.687E-09 -.796E-07 0.685E-07
   0.343E+02 0.387E+02 -.461E+01   -.371E+02 -.430E+02 0.559E+01   0.312E+01 0.451E+01 -.101E+01   -.317E-07 -.478E-07 0.622E-07
   0.236E+02 0.390E+02 -.153E+02   -.259E+02 -.433E+02 0.174E+02   0.246E+01 0.449E+01 -.223E+01   0.992E-07 -.386E-07 0.880E-07
   0.236E+02 0.390E+02 -.153E+02   -.259E+02 -.433E+02 0.174E+02   0.246E+01 0.449E+01 -.223E+01   0.574E-07 -.768E-07 0.791E-07
   0.343E+02 0.387E+02 -.461E+01   -.371E+02 -.430E+02 0.559E+01   0.312E+01 0.451E+01 -.101E+01   -.457E-08 -.803E-07 0.450E-07
   0.343E+02 0.387E+02 -.461E+01   -.371E+02 -.430E+02 0.559E+01   0.312E+01 0.451E+01 -.101E+01   -.336E-07 -.487E-07 0.515E-07
   0.236E+02 0.390E+02 -.153E+02   -.259E+02 -.433E+02 0.174E+02   0.246E+01 0.449E+01 -.223E+01   0.995E-07 -.398E-07 0.704E-07
   -.288E+02 -.483E+02 0.234E+02   0.316E+02 0.534E+02 -.259E+02   -.312E+01 -.532E+01 0.262E+01   -.314E-06 -.535E-06 0.280E-06
   -.363E+02 -.465E+02 0.103E+02   0.397E+02 0.516E+02 -.113E+02   -.378E+01 -.531E+01 0.102E+01   -.936E-07 -.199E-06 0.648E-07
   -.363E+02 -.465E+02 0.103E+02   0.397E+02 0.516E+02 -.113E+02   -.378E+01 -.531E+01 0.102E+01   -.120E-06 -.160E-06 0.706E-07
   -.288E+02 -.483E+02 0.234E+02   0.316E+02 0.534E+02 -.259E+02   -.312E+01 -.532E+01 0.262E+01   -.275E-06 -.493E-06 0.277E-06
   -.288E+02 -.483E+02 0.234E+02   0.316E+02 0.534E+02 -.259E+02   -.312E+01 -.532E+01 0.262E+01   -.314E-06 -.539E-06 0.263E-06
   -.363E+02 -.465E+02 0.103E+02   0.397E+02 0.516E+02 -.113E+02   -.378E+01 -.531E+01 0.102E+01   -.888E-07 -.194E-06 0.511E-07
   -.363E+02 -.465E+02 0.103E+02   0.397E+02 0.516E+02 -.113E+02   -.378E+01 -.531E+01 0.102E+01   -.116E-06 -.156E-06 0.535E-07
   -.288E+02 -.483E+02 0.234E+02   0.316E+02 0.534E+02 -.259E+02   -.312E+01 -.532E+01 0.262E+01   -.277E-06 -.500E-06 0.258E-06
   -.289E+02 0.482E+02 0.234E+02   0.317E+02 -.533E+02 -.258E+02   -.312E+01 0.531E+01 0.261E+01   -.309E-06 0.496E-06 0.282E-06
   -.362E+02 0.465E+02 0.101E+02   0.397E+02 -.516E+02 -.111E+02   -.378E+01 0.531E+01 0.996E+00   -.883E-07 0.154E-06 0.659E-07
   -.362E+02 0.465E+02 0.101E+02   0.397E+02 -.516E+02 -.111E+02   -.378E+01 0.531E+01 0.996E+00   -.123E-06 0.203E-06 0.668E-07
   -.289E+02 0.482E+02 0.234E+02   0.317E+02 -.533E+02 -.258E+02   -.312E+01 0.531E+01 0.261E+01   -.283E-06 0.534E-06 0.276E-06
   -.289E+02 0.482E+02 0.234E+02   0.317E+02 -.533E+02 -.258E+02   -.312E+01 0.531E+01 0.261E+01   -.307E-06 0.497E-06 0.262E-06
   -.362E+02 0.465E+02 0.101E+02   0.397E+02 -.516E+02 -.111E+02   -.378E+01 0.531E+01 0.996E+00   -.846E-07 0.155E-06 0.498E-07
   -.362E+02 0.465E+02 0.101E+02   0.397E+02 -.516E+02 -.111E+02   -.378E+01 0.531E+01 0.996E+00   -.121E-06 0.199E-06 0.551E-07
   -.289E+02 0.482E+02 0.234E+02   0.317E+02 -.533E+02 -.258E+02   -.312E+01 0.531E+01 0.261E+01   -.284E-06 0.537E-06 0.257E-06
   -.111E+02 -.248E-01 -.535E+02   0.121E+02 0.267E-01 0.585E+02   -.139E+01 -.708E-03 -.577E+01   -.156E-06 -.198E-07 -.577E-06
   0.167E+02 -.970E-01 -.604E+02   -.182E+02 0.109E+00 0.660E+02   0.160E+01 -.126E-01 -.637E+01   0.820E-07 -.244E-07 -.150E-06
   0.167E+02 -.970E-01 -.604E+02   -.182E+02 0.109E+00 0.660E+02   0.160E+01 -.126E-01 -.637E+01   0.481E-07 0.237E-07 -.146E-06
   -.111E+02 -.248E-01 -.535E+02   0.121E+02 0.267E-01 0.585E+02   -.139E+01 -.708E-03 -.577E+01   -.121E-06 0.193E-07 -.567E-06
   -.111E+02 -.248E-01 -.535E+02   0.121E+02 0.267E-01 0.585E+02   -.139E+01 -.708E-03 -.577E+01   -.163E-06 -.174E-07 -.602E-06
   0.167E+02 -.970E-01 -.604E+02   -.182E+02 0.109E+00 0.660E+02   0.160E+01 -.126E-01 -.637E+01   0.880E-07 -.181E-07 -.165E-06
   0.167E+02 -.970E-01 -.604E+02   -.182E+02 0.109E+00 0.660E+02   0.160E+01 -.126E-01 -.637E+01   0.468E-07 0.184E-07 -.157E-06
   -.111E+02 -.248E-01 -.535E+02   0.121E+02 0.267E-01 0.585E+02   -.139E+01 -.708E-03 -.577E+01   -.124E-06 0.169E-07 -.594E-06
   -.286E+02 0.184E+02 -.116E+02   0.276E+02 -.186E+02 0.113E+02   0.101E+01 0.151E+00 0.268E+00   -.222E-06 0.134E-06 -.259E-06
   -.287E+02 -.183E+02 -.116E+02   0.277E+02 0.184E+02 0.113E+02   0.101E+01 -.143E+00 0.270E+00   -.187E-06 -.165E-06 -.255E-06
   -.287E+02 -.183E+02 -.116E+02   0.277E+02 0.184E+02 0.113E+02   0.101E+01 -.143E+00 0.270E+00   -.173E-06 -.162E-06 -.258E-06
   -.286E+02 0.184E+02 -.116E+02   0.276E+02 -.186E+02 0.113E+02   0.101E+01 0.151E+00 0.268E+00   -.219E-06 0.114E-06 -.304E-06
   -.286E+02 0.184E+02 -.116E+02   0.276E+02 -.186E+02 0.113E+02   0.101E+01 0.151E+00 0.268E+00   -.246E-06 0.158E-06 -.299E-06
   -.287E+02 -.183E+02 -.116E+02   0.277E+02 0.184E+02 0.113E+02   0.101E+01 -.143E+00 0.270E+00   -.873E-07 -.223E-06 -.291E-06
   -.287E+02 -.183E+02 -.116E+02   0.277E+02 0.184E+02 0.113E+02   0.101E+01 -.143E+00 0.270E+00   -.278E-06 -.134E-06 -.331E-06
   -.286E+02 0.184E+02 -.116E+02   0.276E+02 -.186E+02 0.113E+02   0.101E+01 0.151E+00 0.268E+00   -.131E-06 0.198E-06 -.238E-06
   -.169E+02 0.979E+01 0.554E+01   0.170E+02 -.982E+01 -.547E+01   -.109E+00 0.243E-01 -.714E-01   -.201E-06 0.376E-07 0.150E-06
   -.170E+02 -.971E+01 0.552E+01   0.172E+02 0.974E+01 -.545E+01   -.111E+00 -.232E-01 -.720E-01   -.158E-06 -.220E-07 0.162E-06
   -.170E+02 -.971E+01 0.552E+01   0.172E+02 0.974E+01 -.545E+01   -.111E+00 -.232E-01 -.720E-01   -.194E-06 -.372E-07 0.204E-06
   -.169E+02 0.979E+01 0.554E+01   0.170E+02 -.982E+01 -.547E+01   -.109E+00 0.243E-01 -.714E-01   -.150E-06 0.249E-07 0.176E-06
   -.169E+02 0.979E+01 0.554E+01   0.170E+02 -.982E+01 -.547E+01   -.109E+00 0.243E-01 -.714E-01   -.192E-06 0.351E-07 0.120E-06
   -.170E+02 -.971E+01 0.552E+01   0.172E+02 0.974E+01 -.545E+01   -.111E+00 -.232E-01 -.720E-01   -.151E-06 -.171E-07 0.836E-07
   -.170E+02 -.971E+01 0.552E+01   0.172E+02 0.974E+01 -.545E+01   -.111E+00 -.232E-01 -.720E-01   -.189E-06 -.320E-07 0.774E-07
   -.169E+02 0.979E+01 0.554E+01   0.170E+02 -.982E+01 -.547E+01   -.109E+00 0.243E-01 -.714E-01   -.140E-06 0.157E-07 0.780E-07
   0.133E+02 -.693E-01 -.153E+02   -.138E+02 0.706E-01 0.162E+02   0.563E+00 -.122E-02 -.955E+00   -.245E-06 -.117E-06 -.200E-06
   -.400E+02 -.390E-01 -.172E+02   0.404E+02 0.400E-01 0.176E+02   -.438E+00 -.844E-03 -.462E+00   -.110E-06 -.138E-06 -.999E-07
   -.400E+02 -.390E-01 -.172E+02   0.404E+02 0.400E-01 0.176E+02   -.438E+00 -.844E-03 -.462E+00   -.121E-06 0.117E-06 -.105E-06
   0.133E+02 -.693E-01 -.153E+02   -.138E+02 0.706E-01 0.162E+02   0.563E+00 -.122E-02 -.955E+00   -.132E-06 0.140E-06 -.192E-06
   0.133E+02 -.693E-01 -.153E+02   -.138E+02 0.706E-01 0.162E+02   0.563E+00 -.122E-02 -.955E+00   -.224E-06 -.163E-06 -.197E-06
   -.400E+02 -.390E-01 -.172E+02   0.404E+02 0.400E-01 0.176E+02   -.438E+00 -.844E-03 -.462E+00   -.130E-06 -.151E-06 -.100E-06
   -.400E+02 -.390E-01 -.172E+02   0.404E+02 0.400E-01 0.176E+02   -.438E+00 -.844E-03 -.462E+00   -.100E-06 0.166E-06 -.101E-06
   0.133E+02 -.693E-01 -.153E+02   -.138E+02 0.706E-01 0.162E+02   0.563E+00 -.122E-02 -.955E+00   -.151E-06 0.151E-06 -.198E-06
   0.886E+01 -.445E+01 -.359E+01   -.837E+01 0.499E+01 0.329E+01   -.556E+00 -.653E+00 0.364E+00   -.178E-07 0.159E-06 -.122E-06
   0.887E+01 0.444E+01 -.364E+01   -.838E+01 -.498E+01 0.335E+01   -.556E+00 0.651E+00 0.362E+00   0.236E-06 -.141E-06 -.120E-06
   0.887E+01 0.444E+01 -.364E+01   -.838E+01 -.498E+01 0.335E+01   -.556E+00 0.651E+00 0.362E+00   -.128E-07 -.686E-07 -.118E-06
   0.886E+01 -.445E+01 -.359E+01   -.837E+01 0.499E+01 0.329E+01   -.556E+00 -.653E+00 0.364E+00   0.211E-06 0.494E-07 -.119E-06
   0.886E+01 -.445E+01 -.359E+01   -.837E+01 0.499E+01 0.329E+01   -.556E+00 -.653E+00 0.364E+00   0.485E-09 0.142E-06 -.140E-06
   0.887E+01 0.444E+01 -.364E+01   -.838E+01 -.498E+01 0.335E+01   -.556E+00 0.651E+00 0.362E+00   0.214E-06 -.130E-06 -.149E-06
   0.887E+01 0.444E+01 -.364E+01   -.838E+01 -.498E+01 0.335E+01   -.556E+00 0.651E+00 0.362E+00   -.707E-08 -.721E-07 -.148E-06
   0.886E+01 -.445E+01 -.359E+01   -.837E+01 0.499E+01 0.329E+01   -.556E+00 -.653E+00 0.364E+00   0.226E-06 0.566E-07 -.148E-06
 -----------------------------------------------------------------------------------------------
   -.564E+02 -.103E+00 -.176E+02   0.606E-12 0.122E-12 0.257E-12   0.564E+02 0.103E+00 0.176E+02   0.455E-05 -.771E-07 0.182E-05
 
 
 POSITION                                       TOTAL-FORCE (eV/Angst)
 -----------------------------------------------------------------------------------
      2.32985      3.11286      3.23213         0.517338      0.000456     -0.358653
      8.97812      3.11538      2.72720         0.637276     -0.000363     -0.068805
      2.69030      9.34319      2.65773         0.637276     -0.000363     -0.068805
      8.61886      9.34258      3.30086         0.517338      0.000456     -0.358653
      2.39955      3.11290      9.60584         0.517338      0.000456     -0.358653
      9.04783      3.11542      9.10091         0.637276     -0.000363     -0.068805
      2.76001      9.34324      9.03144         0.637276     -0.000363     -0.068805
      8.68857      9.34263      9.67457         0.517338      0.000456     -0.358653
      3.81803      3.11446      3.51632        -0.234783     -0.002464      0.278566
     10.20758      3.11658      3.61922        -0.362855     -0.001855      0.051740
      3.91976      9.34439      3.54975        -0.362855     -0.001855      0.051740
     10.10705      9.34418      3.58504        -0.234783     -0.002464      0.278566
      3.88774      3.11450      9.89003        -0.234783     -0.002464      0.278566
     10.27728      3.11662      9.99293        -0.362855     -0.001855      0.051740
      3.98946      9.34443      9.92346        -0.362855     -0.001855      0.051740
     10.17675      9.34423      9.95875        -0.234783     -0.002464      0.278566
      2.17157      3.11252      2.11635         0.161521     -0.000298      0.791214
      9.31568      3.11356      1.65198        -0.245618      0.000988      0.819290
      3.02786      9.34137      1.58251        -0.245618      0.000988      0.819290
      8.46059      9.34225      2.18508         0.161521     -0.000298      0.791214
      2.24128      3.11257      8.49006         0.161521     -0.000298      0.791214
      9.38538      3.11360      8.02569        -0.245618      0.000988      0.819290
      3.09756      9.34141      7.95622        -0.245618      0.000988      0.819290
      8.53030      9.34229      8.55879         0.161521     -0.000298      0.791214
      1.86708      4.01320      3.68195         0.236105     -0.166554     -0.123537
      8.37552      4.01983      2.94365         0.264384     -0.155038     -0.028535
      2.08770     10.24764      2.87418         0.264384     -0.155038     -0.028535
      8.15610     10.24292      3.75068         0.236105     -0.166554     -0.123537
      1.93678      4.01324     10.05566         0.236105     -0.166554     -0.123537
      8.44522      4.01987      9.31736         0.264384     -0.155038     -0.028535
      2.15740     10.24768      9.24789         0.264384     -0.155038     -0.028535
      8.22580     10.24297     10.12439         0.236105     -0.166554     -0.123537
      1.86939      2.21165      3.68244         0.233052      0.165772     -0.124101
      8.37554      2.21177      2.94685         0.262111      0.153517     -0.030377
      2.08771      8.43958      2.87738         0.262111      0.153517     -0.030377
      8.15841      8.44138      3.75117         0.233052      0.165772     -0.124101
      1.93910      2.21170     10.05615         0.233052      0.165772     -0.124101
      8.44524      2.21182      9.32056         0.262111      0.153517     -0.030377
      2.15742      8.43963      9.25109         0.262111      0.153517     -0.030377
      8.22812      8.44142     10.12488         0.233052      0.165772     -0.124101
      4.30390      3.95455      3.10520        -0.288688     -0.211427      0.160476
     10.81206      3.96764      3.45264        -0.330709     -0.230494      0.018378
      4.52423     10.19546      3.38317        -0.330709     -0.230494      0.018378
     10.59292     10.18428      3.17393        -0.288688     -0.211427      0.160476
      4.37361      3.95460      9.47891        -0.288688     -0.211427      0.160476
     10.88176      3.96769      9.82635        -0.330709     -0.230494      0.018378
      4.59394     10.19550      9.75688        -0.330709     -0.230494      0.018378
     10.66263     10.18433      9.54764        -0.288688     -0.211427      0.160476
      4.30576      2.27504      3.10561        -0.292501      0.213582      0.159930
     10.81169      2.26446      3.45588        -0.333457      0.233470      0.015659
      4.52387      8.49227      3.38641        -0.333457      0.233470      0.015659
     10.59478      8.50477      3.17434        -0.292501      0.213582      0.159930
      4.37547      2.27508      9.47932        -0.292501      0.213582      0.159930
     10.88139      2.26450      9.82959        -0.333457      0.233470      0.015659
      4.59357      8.49231      9.76012        -0.333457      0.233470      0.015659
     10.66449      8.50481      9.54805        -0.292501      0.213582      0.159930
      4.06831      3.11463      4.56880        -0.361209      0.001212     -0.763069
      9.94570      3.11866      4.64992         0.124398     -0.000360     -0.790736
      3.65788      9.34647      4.58045         0.124398     -0.000360     -0.790736
     10.35733      9.34435      4.63753        -0.361209      0.001212     -0.763069
      4.13802      3.11467     10.94251        -0.361209      0.001212     -0.763069
     10.01540      3.11870     11.02363         0.124398     -0.000360     -0.790736
      3.72758      9.34651     10.95416         0.124398     -0.000360     -0.790736
     10.42704      9.34440     11.01124        -0.361209      0.001212     -0.763069
      6.01040      6.20002      6.29604         0.012051     -0.002599     -0.009983
     12.29915      6.26012      6.36506         0.012463      0.002516     -0.009955
      6.01013      0.03039      6.29634         0.012463      0.002516     -0.009955
     12.29942     12.42974      6.36477         0.012051     -0.002599     -0.009983
      6.08011      6.20006     12.66975         0.012051     -0.002599     -0.009983
     12.36885      6.26017     12.73877         0.012463      0.002516     -0.009955
      6.07984      0.03044     12.67005         0.012463      0.002516     -0.009955
     12.36913     12.42979     12.73848         0.012051     -0.002599     -0.009983
      5.75251      6.21380      3.09100         0.015558     -0.005753     -0.001780
     12.04182      6.24625      3.15992         0.015666      0.005471     -0.001829
      5.75280      0.01653      3.09119         0.015666      0.005471     -0.001829
     12.04153     12.44353      3.15973         0.015558     -0.005753     -0.001780
      5.82222      6.21385      9.46471         0.015558     -0.005753     -0.001780
     12.11152      6.24630      9.53363         0.015666      0.005471     -0.001829
      5.82251      0.01657      9.46490         0.015666      0.005471     -0.001829
     12.11123     12.44358      9.53344         0.015558     -0.005753     -0.001780
      5.08302      3.11501      0.31601         0.099016      0.000050     -0.088832
     12.51928      3.11592      0.17866        -0.014227      0.000095     -0.027217
      6.23146      9.34373      0.10918        -0.014227      0.000095     -0.027217
     11.37203      9.34474      0.38473         0.099016      0.000050     -0.088832
      5.15272      3.11506      6.68972         0.099016      0.000050     -0.088832
     12.58899      3.11596      6.55237        -0.014227      0.000095     -0.027217
      6.30117      9.34377      6.48290        -0.014227      0.000095     -0.027217
     11.44174      9.34478      6.75844         0.099016      0.000050     -0.088832
      2.78358      6.90913      5.90908        -0.063379     -0.118536      0.065758
      9.07214      5.55022      5.97826        -0.063512      0.118610      0.066396
      2.78432     11.77803      5.90879        -0.063512      0.118610      0.066396
      9.07140      0.68131      5.97855        -0.063379     -0.118536      0.065758
      2.85328      6.90917     12.28279        -0.063379     -0.118536      0.065758
      9.14185      5.55026     12.35197        -0.063512      0.118610      0.066396
      2.85403     11.77807     12.28250        -0.063512      0.118610      0.066396
      9.14111      0.68136     12.35226        -0.063379     -0.118536      0.065758
 -----------------------------------------------------------------------------------
    total drift:                                0.000453     -0.000006     -0.001138


--------------------------------------------------------------------------------------------------------



  FREE ENERGIE OF THE ION-ELECTRON SYSTEM (eV)
  ---------------------------------------------------
  free  energy   TOTEN  =      -416.23014718 eV

  energy  without entropy=     -416.23014718  energy(sigma->0) =     -416.23014718
 


--------------------------------------------------------------------------------------------------------


    POTLOK:  cpu time    1.2401: real time    1.2408


--------------------------------------------------------------------------------------------------------


     LOOP+:  cpu time 2934.7434: real time 2937.9146
    4ORBIT:  cpu time    0.0000: real time    0.0000

 total amount of memory used by VASP on root node   697522. kBytes
========================================================================

   base      :      30000. kBytes
   nonl-proj :     325712. kBytes
   fftplans  :      80881. kBytes
   grid      :      57435. kBytes
   one-center:        497. kBytes
   wavefun   :     202997. kBytes
 
  
  
 General timing and accounting informations for this job:
 ========================================================
  
                  Total CPU time used (sec):     2964.277
                            User time (sec):     2963.109
                          System time (sec):        1.168
                         Elapsed time (sec):     2969.147
  
                   Maximum memory used (kb):      646808.
                   Average memory used (kb):           0.
  
                          Minor page faults:       268439
                          Major page faults:            0
                 Voluntary context switches:         1689
