 running on   96 total cores
 distrk:  each k-point on   24 cores,    4 groups
 distr:  one band on    3 cores,    8 groups
 using from now: INCAR     
 vasp.5.4.1 24Jun15 (build Nov 25 2015 16:01:35) complex                        
  
 POSCAR found :  5 types and      96 ions
 scaLAPACK will be used

 ----------------------------------------------------------------------------- 
|                                                                             |
|           W    W    AA    RRRRR   N    N  II  N    N   GGGG   !!!           |
|           W    W   A  A   R    R  NN   N  II  NN   N  G    G  !!!           |
|           W    W  A    A  R    R  N N  N  II  N N  N  G       !!!           |
|           W WW W  AAAAAA  RRRRR   N  N N  II  N  N N  G  GGG   !            |
|           WW  WW  A    A  R   R   N   NN  II  N   NN  G    G                |
|           W    W  A    A  R    R  N    N  II  N    N   GGGG   !!!           |
|                                                                             |
|      For optimal performance we recommend to set                            |
|        NCORE= 4 - approx SQRT( number of cores)                             |
|      NCORE specifies how many cores store one orbital (NPAR=cpu/NCORE).     |
|      This setting can  greatly improve the performance of VASP for DFT.     |
|      The default, NPAR=number of cores might be grossly inefficient         |
|      on modern multi-core architectures or massively parallel machines.     |
|      Do your own testing !!!!                                               |
|      Unfortunately you need to use the default for GW and RPA calculations. |
|      (for HF NCORE is supported but not extensively tested yet)             |
|                                                                             |
 ----------------------------------------------------------------------------- 


 ----------------------------------------------------------------------------- 
|                                                                             |
|           W    W    AA    RRRRR   N    N  II  N    N   GGGG   !!!           |
|           W    W   A  A   R    R  NN   N  II  NN   N  G    G  !!!           |
|           W    W  A    A  R    R  N N  N  II  N N  N  G       !!!           |
|           W WW W  AAAAAA  RRRRR   N  N N  II  N  N N  G  GGG   !            |
|           WW  WW  A    A  R   R   N   NN  II  N   NN  G    G                |
|           W    W  A    A  R    R  N    N  II  N    N   GGGG   !!!           |
|                                                                             |
|      You have enabled k-point parallelism (KPAR>1).                         |
|      This developmental code was originally  written by Paul Kent at ORNL,  |
|      and carefully double checked in Vienna.                                |
|      GW as well as linear response parallelism added by Martijn Marsman     |
|      and Georg Kresse.                                                      |
|      Carefully verify results versus KPAR=1.                                |
|      Report problems to Paul Kent and Vienna.                               |
|                                                                             |
 ----------------------------------------------------------------------------- 


 ----------------------------------------------------------------------------- 
|                                                                             |
|  ADVICE TO THIS USER RUNNING 'VASP/VAMP'   (HEAR YOUR MASTER'S VOICE ...):  |
|                                                                             |
|      You have a (more or less) 'large supercell' and for larger cells       |
|      it might be more efficient to use real space projection opertators     |
|      So try LREAL= Auto  in the INCAR   file.                               |
|      Mind: At the moment your POTCAR file does not contain real space       |
|       projectors, and has to be modified,  BUT if you                       |
|      want to do an extremely  accurate calculation you might also keep the  |
|      reciprocal projection scheme          (i.e. LREAL=.FALSE.)             |
|                                                                             |
 ----------------------------------------------------------------------------- 


 ----------------------------------------------------------------------------- 
|                                                                             |
|  ADVICE TO THIS USER RUNNING 'VASP/VAMP'   (HEAR YOUR MASTER'S VOICE ...):  |
|                                                                             |
|      You enforced a specific xc-type in the INCAR file,                     |
|      a different type was found on the POTCAR file                          |
|          I HOPE YOU KNOW, WHAT YOU ARE  DOING                               |
|                                                                             |
 ----------------------------------------------------------------------------- 

 LDA part: xc-table for Pade appr. of Perdew
 POSCAR, INCAR and KPOINTS ok, starting setup
 WARNING: small aliasing (wrap around) errors must be expected
 FFT: planning ...
 WAVECAR not read
 entering main loop
       N       E                     dE             d eps       ncg     rms          rms(c)
DAV:   1     0.358454244476E+04    0.35845E+04   -0.18927E+05  7176   0.170E+03
DAV:   2     0.195679448988E+03   -0.33889E+04   -0.31781E+04  8040   0.354E+02
DAV:   3    -0.396576642117E+03   -0.59226E+03   -0.58370E+03  9456   0.171E+02
DAV:   4    -0.436980458640E+03   -0.40404E+02   -0.40226E+02  9680   0.491E+01
DAV:   5    -0.438483702181E+03   -0.15032E+01   -0.15005E+01  9808   0.909E+00    0.286E+01
DAV:   6    -0.418735405020E+03    0.19748E+02   -0.38219E+01 10296   0.135E+01    0.151E+01
DAV:   7    -0.416478467438E+03    0.22569E+01   -0.18124E+01  9992   0.716E+00    0.770E+00
DAV:   8    -0.416314333004E+03    0.16413E+00   -0.37163E+00  8792   0.349E+00    0.202E+00
DAV:   9    -0.416215202663E+03    0.99130E-01   -0.88355E-01  9216   0.191E+00    0.717E-01
DAV:  10    -0.416229650538E+03   -0.14448E-01   -0.14265E-01  8984   0.671E-01    0.564E-01
DAV:  11    -0.416228365394E+03    0.12851E-02   -0.20594E-02  9568   0.325E-01    0.236E-01
DAV:  12    -0.416229772201E+03   -0.14068E-02   -0.12581E-02  9952   0.181E-01    0.114E-01
DAV:  13    -0.416230045366E+03   -0.27317E-03   -0.18942E-03  8312   0.915E-02    0.884E-02
DAV:  14    -0.416230084601E+03   -0.39235E-04   -0.27769E-04  8928   0.317E-02    0.519E-02
DAV:  15    -0.416230139998E+03   -0.55397E-04   -0.34747E-04  8056   0.307E-02    0.157E-02
DAV:  16    -0.416230149213E+03   -0.92145E-05   -0.42308E-05 10736   0.127E-02    0.211E-02
DAV:  17    -0.416230148218E+03    0.99497E-06   -0.17356E-06  9024   0.272E-03    0.154E-02
DAV:  18    -0.416230146535E+03    0.16823E-05   -0.23903E-05  9664   0.796E-03    0.318E-03
DAV:  19    -0.416230147156E+03   -0.62097E-06   -0.39603E-06  9560   0.411E-03    0.481E-03
DAV:  20    -0.416230147117E+03    0.39527E-07   -0.19997E-07  9872   0.103E-03    0.324E-03
DAV:  21    -0.416230147211E+03   -0.94635E-07   -0.83353E-07  9520   0.154E-03    0.109E-03
DAV:  22    -0.416230147200E+03    0.10990E-07   -0.11346E-07  8304   0.768E-04    0.618E-04
DAV:  23    -0.416230147185E+03    0.15483E-07   -0.18446E-08  9664   0.254E-04    0.343E-04
DAV:  24    -0.416230147180E+03    0.50350E-08   -0.18343E-09  8048   0.141E-04    0.282E-04
DAV:  25    -0.416230147169E+03    0.10707E-07    0.45401E-10  6992   0.115E-04    0.265E-04
DAV:  26    -0.416230147170E+03   -0.95315E-09    0.11326E-09  7736   0.507E-05    0.289E-04
DAV:  27    -0.416230147174E+03   -0.39399E-08    0.18648E-09  5208   0.413E-05    0.237E-04
DAV:  28    -0.416230147178E+03   -0.34343E-08    0.15747E-09  6216   0.482E-05    0.206E-04
DAV:  29    -0.416230147177E+03    0.32378E-09    0.13222E-09  4272   0.252E-05    0.206E-04
DAV:  30    -0.416230147178E+03   -0.77853E-09    0.14560E-09  4256   0.150E-05    0.205E-04
DAV:  31    -0.416230147178E+03   -0.20373E-09    0.14388E-09  4256   0.151E-05    0.205E-04
DAV:  32    -0.416230147178E+03    0.16735E-09    0.12766E-09  4256   0.145E-05    0.205E-04
DAV:  33    -0.416230147178E+03   -0.17099E-09    0.11340E-09  4256   0.786E-06    0.205E-04
DAV:  34    -0.416230147178E+03    0.25466E-10    0.94654E-10  4256   0.474E-06
   1 F= -.41623015E+03 E0= -.41623015E+03  d E =0.000000E+00
Application 22454138 resources: utime ~284471s, stime ~258s, Rss ~646808, inblocks ~888777, outblocks ~776309
