  96  96   0   0
  0.2080188E+02  0.1257760E-08  0.1245754E-08  0.1274818E-08  0.5000000E-15
  1.000000000000000E-004
  CAR 
 MAPbI3-Cubic                            
      8.80107476    -18.86492075  301      1.10070601      1.00000000
    -18.865  0.0000E+00  0.0000E+00
    -18.773  0.0000E+00  0.0000E+00
    -18.680  0.0000E+00  0.0000E+00
    -18.588  0.0000E+00  0.0000E+00
    -18.496  0.0000E+00  0.0000E+00
    -18.404  0.0000E+00  0.0000E+00
    -18.312  0.0000E+00  0.0000E+00
    -18.219  0.0000E+00  0.0000E+00
    -18.127  0.0000E+00  0.0000E+00
    -18.035  0.0000E+00  0.0000E+00
    -17.943  0.0000E+00  0.0000E+00
    -17.851  0.0000E+00  0.0000E+00
    -17.758  0.0000E+00  0.0000E+00
    -17.666  0.0000E+00  0.0000E+00
    -17.574  0.0000E+00  0.8000E+01
    -17.482  0.0000E+00  0.1600E+02
    -17.389  0.0000E+00  0.1600E+02
    -17.297  0.0000E+00  0.1600E+02
    -17.205  0.0000E+00  0.1600E+02
    -17.113  0.0000E+00  0.1600E+02
    -17.021  0.0000E+00  0.1600E+02
    -16.928  0.0000E+00  0.1600E+02
    -16.836  0.0000E+00  0.1600E+02
    -16.744  0.0000E+00  0.1600E+02
    -16.652  0.0000E+00  0.1600E+02
    -16.559  0.0000E+00  0.1600E+02
    -16.467  0.0000E+00  0.1600E+02
    -16.375  0.0000E+00  0.1600E+02
    -16.283  0.0000E+00  0.1600E+02
    -16.191  0.0000E+00  0.1600E+02
    -16.098  0.0000E+00  0.1600E+02
    -16.006  0.0000E+00  0.1600E+02
    -15.914  0.0000E+00  0.1600E+02
    -15.822  0.0000E+00  0.1600E+02
    -15.729  0.0000E+00  0.1600E+02
    -15.637  0.0000E+00  0.1600E+02
    -15.545  0.0000E+00  0.1600E+02
    -15.453  0.0000E+00  0.1600E+02
    -15.361  0.0000E+00  0.1600E+02
    -15.268  0.0000E+00  0.1600E+02
    -15.176  0.0000E+00  0.9600E+02
    -15.084  0.0000E+00  0.9600E+02
    -14.992  0.0000E+00  0.9600E+02
    -14.899  0.0000E+00  0.9600E+02
    -14.807  0.0000E+00  0.9600E+02
    -14.715  0.0000E+00  0.9600E+02
    -14.623  0.0000E+00  0.9600E+02
    -14.531  0.0000E+00  0.9600E+02
    -14.438  0.0000E+00  0.9600E+02
    -14.346  0.0000E+00  0.9600E+02
    -14.254  0.0000E+00  0.9600E+02
    -14.162  0.0000E+00  0.9600E+02
    -14.069  0.0000E+00  0.9600E+02
    -13.977  0.0000E+00  0.9600E+02
    -13.885  0.0000E+00  0.9600E+02
    -13.793  0.0000E+00  0.9600E+02
    -13.701  0.0000E+00  0.9600E+02
    -13.608  0.0000E+00  0.9600E+02
    -13.516  0.0000E+00  0.9600E+02
    -13.424  0.0000E+00  0.9600E+02
    -13.332  0.0000E+00  0.9600E+02
    -13.240  0.0000E+00  0.9600E+02
    -13.147  0.0000E+00  0.9600E+02
    -13.055  0.0000E+00  0.9600E+02
    -12.963  0.0000E+00  0.9600E+02
    -12.871  0.0000E+00  0.9600E+02
    -12.778  0.0000E+00  0.9600E+02
    -12.686  0.0000E+00  0.9600E+02
    -12.594  0.0000E+00  0.9600E+02
    -12.502  0.0000E+00  0.9600E+02
    -12.410  0.0000E+00  0.9600E+02
    -12.317  0.0000E+00  0.9600E+02
    -12.225  0.0000E+00  0.9600E+02
    -12.133  0.0000E+00  0.9600E+02
    -12.041  0.0000E+00  0.9600E+02
    -11.948  0.0000E+00  0.9600E+02
    -11.856  0.0000E+00  0.9600E+02
    -11.764  0.0000E+00  0.9600E+02
    -11.672  0.0000E+00  0.9600E+02
    -11.580  0.0000E+00  0.9600E+02
    -11.487  0.0000E+00  0.9600E+02
    -11.395  0.0000E+00  0.9600E+02
    -11.303  0.0000E+00  0.9600E+02
    -11.211  0.0000E+00  0.9600E+02
    -11.118  0.4744E+01  0.9681E+02
    -11.026  0.8032E+00  0.1040E+03
    -10.934  0.0000E+00  0.1040E+03
    -10.842  0.0000E+00  0.1120E+03
    -10.750  0.1606E+01  0.1124E+03
    -10.657  0.3204E+01  0.1153E+03
    -10.565  0.6528E+01  0.1227E+03
    -10.473  0.0000E+00  0.1280E+03
    -10.381  0.2378E+01  0.1325E+03
    -10.288  0.3213E+01  0.1370E+03
    -10.196  0.0000E+00  0.1400E+03
    -10.104  0.0000E+00  0.1440E+03
    -10.012  0.2614E+02  0.1499E+03
     -9.920  0.0000E+00  0.1600E+03
     -9.827  0.0000E+00  0.1600E+03
     -9.735  0.0000E+00  0.1600E+03
     -9.643  0.0000E+00  0.1600E+03
     -9.551  0.0000E+00  0.1600E+03
     -9.458  0.0000E+00  0.1600E+03
     -9.366  0.0000E+00  0.1600E+03
     -9.274  0.0000E+00  0.1600E+03
     -9.182  0.0000E+00  0.1600E+03
     -9.090  0.0000E+00  0.1600E+03
     -8.997  0.0000E+00  0.1600E+03
     -8.905  0.0000E+00  0.1600E+03
     -8.813  0.0000E+00  0.1600E+03
     -8.721  0.0000E+00  0.1600E+03
     -8.629  0.0000E+00  0.1600E+03
     -8.536  0.0000E+00  0.1600E+03
     -8.444  0.0000E+00  0.1600E+03
     -8.352  0.0000E+00  0.1600E+03
     -8.260  0.0000E+00  0.1600E+03
     -8.167  0.0000E+00  0.1600E+03
     -8.075  0.0000E+00  0.1600E+03
     -7.983  0.0000E+00  0.1600E+03
     -7.891  0.0000E+00  0.1600E+03
     -7.799  0.0000E+00  0.1600E+03
     -7.706  0.0000E+00  0.1600E+03
     -7.614  0.0000E+00  0.1600E+03
     -7.522  0.0000E+00  0.1600E+03
     -7.430  0.0000E+00  0.1600E+03
     -7.337  0.0000E+00  0.1600E+03
     -7.245  0.4472E+00  0.1600E+03
     -7.153  0.4010E+01  0.1754E+03
     -7.061  0.0000E+00  0.1880E+03
     -6.969  0.8025E+00  0.1921E+03
     -6.876  0.0000E+00  0.1922E+03
     -6.784  0.0000E+00  0.1925E+03
     -6.692  0.0000E+00  0.1936E+03
     -6.600  0.1281E+00  0.1943E+03
     -6.507  0.3205E+01  0.1960E+03
     -6.415  0.7738E+01  0.1986E+03
     -6.323  0.4819E+01  0.2001E+03
     -6.231  0.1606E+01  0.2024E+03
     -6.139  0.2945E+00  0.2039E+03
     -6.046  0.8975E+00  0.2053E+03
     -5.954  0.0000E+00  0.2064E+03
     -5.862  0.0000E+00  0.2075E+03
     -5.770  0.0000E+00  0.2079E+03
     -5.677  0.0000E+00  0.2080E+03
     -5.585  0.0000E+00  0.2080E+03
     -5.493  0.9638E+01  0.2152E+03
     -5.401  0.0000E+00  0.2160E+03
     -5.309  0.2755E+00  0.2160E+03
     -5.216  0.0000E+00  0.2240E+03
     -5.124  0.0000E+00  0.2240E+03
     -5.032  0.0000E+00  0.2240E+03
     -4.940  0.0000E+00  0.2240E+03
     -4.847  0.0000E+00  0.2240E+03
     -4.755  0.0000E+00  0.2240E+03
     -4.663  0.0000E+00  0.2240E+03
     -4.571  0.0000E+00  0.2240E+03
     -4.479  0.0000E+00  0.2240E+03
     -4.386  0.0000E+00  0.2240E+03
     -4.294  0.0000E+00  0.2240E+03
     -4.202  0.0000E+00  0.2240E+03
     -4.110  0.0000E+00  0.2240E+03
     -4.018  0.0000E+00  0.2240E+03
     -3.925  0.0000E+00  0.2240E+03
     -3.833  0.0000E+00  0.2240E+03
     -3.741  0.0000E+00  0.2240E+03
     -3.649  0.0000E+00  0.2240E+03
     -3.556  0.0000E+00  0.2240E+03
     -3.464  0.4819E+01  0.2282E+03
     -3.372  0.1168E+02  0.2406E+03
     -3.280  0.6426E+01  0.2547E+03
     -3.188  0.0000E+00  0.2560E+03
     -3.095  0.0000E+00  0.2560E+03
     -3.003  0.0000E+00  0.2560E+03
     -2.911  0.0000E+00  0.2560E+03
     -2.819  0.0000E+00  0.2560E+03
     -2.726  0.0000E+00  0.2560E+03
     -2.634  0.0000E+00  0.2560E+03
     -2.542  0.0000E+00  0.2560E+03
     -2.450  0.0000E+00  0.2560E+03
     -2.358  0.0000E+00  0.2560E+03
     -2.265  0.0000E+00  0.2560E+03
     -2.173  0.0000E+00  0.2560E+03
     -2.081  0.2635E-04  0.2561E+03
     -1.989  0.5623E+01  0.2585E+03
     -1.896  0.0000E+00  0.2588E+03
     -1.804  0.5265E+01  0.2603E+03
     -1.712  0.1034E+01  0.2633E+03
     -1.620  0.8033E+01  0.2666E+03
     -1.528  0.0000E+00  0.2702E+03
     -1.435  0.1809E+01  0.2730E+03
     -1.343  0.1922E+01  0.2750E+03
     -1.251  0.1495E-01  0.2776E+03
     -1.159  0.0000E+00  0.2797E+03
     -1.066  0.1537E+01  0.2802E+03
     -0.974  0.3640E+01  0.2821E+03
     -0.882  0.0000E+00  0.2879E+03
     -0.790  0.1735E+01  0.2902E+03
     -0.698  0.4845E+01  0.2954E+03
     -0.605  0.2412E+01  0.3012E+03
     -0.513  0.4819E+01  0.3039E+03
     -0.421  0.5947E+01  0.3089E+03
     -0.329  0.1456E+02  0.3142E+03
     -0.236  0.1039E+02  0.3200E+03
     -0.144  0.5796E+01  0.3258E+03
     -0.052  0.4820E+01  0.3324E+03
      0.040  0.6426E+01  0.3410E+03
      0.132  0.4817E+01  0.3493E+03
      0.225  0.4275E+01  0.3551E+03
      0.317  0.8254E+01  0.3612E+03
      0.409  0.3500E+01  0.3695E+03
      0.501  0.6442E+01  0.3777E+03
      0.593  0.6855E+01  0.3871E+03
      0.686  0.9370E+01  0.3945E+03
      0.778  0.2896E+01  0.3978E+03
      0.870  0.2984E+00  0.3993E+03
      0.962  0.0000E+00  0.3999E+03
      1.055  0.0000E+00  0.3999E+03
      1.147  0.0000E+00  0.4000E+03
      1.239  0.0000E+00  0.4000E+03
      1.331  0.0000E+00  0.4000E+03
      1.423  0.0000E+00  0.4000E+03
      1.516  0.0000E+00  0.4000E+03
      1.608  0.0000E+00  0.4000E+03
      1.700  0.0000E+00  0.4000E+03
      1.792  0.0000E+00  0.4000E+03
      1.885  0.0000E+00  0.4000E+03
      1.977  0.0000E+00  0.4000E+03
      2.069  0.0000E+00  0.4000E+03
      2.161  0.0000E+00  0.4000E+03
      2.253  0.0000E+00  0.4000E+03
      2.346  0.0000E+00  0.4000E+03
      2.438  0.0000E+00  0.4000E+03
      2.530  0.0000E+00  0.4000E+03
      2.622  0.0000E+00  0.4000E+03
      2.715  0.0000E+00  0.4000E+03
      2.807  0.0000E+00  0.4000E+03
      2.899  0.0000E+00  0.4000E+03
      2.991  0.7772E+00  0.4007E+03
      3.083  0.1951E+00  0.4009E+03
      3.176  0.7858E+00  0.4026E+03
      3.268  0.0000E+00  0.4041E+03
      3.360  0.0000E+00  0.4052E+03
      3.452  0.0000E+00  0.4066E+03
      3.545  0.0000E+00  0.4076E+03
      3.637  0.0000E+00  0.4084E+03
      3.729  0.1602E-10  0.4093E+03
      3.821  0.6309E+01  0.4110E+03
      3.913  0.7982E+01  0.4133E+03
      4.006  0.3213E+01  0.4153E+03
      4.098  0.4819E+01  0.4182E+03
      4.190  0.1651E+01  0.4218E+03
      4.282  0.0000E+00  0.4231E+03
      4.375  0.0000E+00  0.4239E+03
      4.467  0.0000E+00  0.4240E+03
      4.559  0.0000E+00  0.4240E+03
      4.651  0.0000E+00  0.4240E+03
      4.743  0.0000E+00  0.4240E+03
      4.836  0.0000E+00  0.4240E+03
      4.928  0.4819E+01  0.4265E+03
      5.020  0.9583E+01  0.4292E+03
      5.112  0.1606E+01  0.4302E+03
      5.204  0.3213E+01  0.4328E+03
      5.297  0.0000E+00  0.4344E+03
      5.389  0.1606E+01  0.4369E+03
      5.481  0.1606E+01  0.4393E+03
      5.573  0.1112E+02  0.4415E+03
      5.666  0.7807E+01  0.4455E+03
      5.758  0.0000E+00  0.4470E+03
      5.850  0.4673E-11  0.4482E+03
      5.942  0.0000E+00  0.4501E+03
      6.034  0.5900E+01  0.4522E+03
      6.127  0.6425E+01  0.4562E+03
      6.219  0.3213E+01  0.4586E+03
      6.311  0.8032E+00  0.4614E+03
      6.403  0.0000E+00  0.4633E+03
      6.496  0.1655E+02  0.4672E+03
      6.588  0.4669E+01  0.4707E+03
      6.680  0.5891E-01  0.4736E+03
      6.772  0.3272E+01  0.4793E+03
      6.864  0.8774E+00  0.4826E+03
      6.957  0.4687E+01  0.4868E+03
      7.049  0.1712E-03  0.4903E+03
      7.141  0.5939E+00  0.4943E+03
      7.233  0.7107E+01  0.4998E+03
      7.326  0.7784E+01  0.5042E+03
      7.418  0.8203E+01  0.5084E+03
      7.510  0.1649E-07  0.5116E+03
      7.602  0.0000E+00  0.5120E+03
      7.694  0.0000E+00  0.5120E+03
      7.787  0.0000E+00  0.5120E+03
      7.879  0.0000E+00  0.5120E+03
      7.971  0.0000E+00  0.5120E+03
      8.063  0.0000E+00  0.5120E+03
      8.156  0.0000E+00  0.5120E+03
      8.248  0.0000E+00  0.5120E+03
      8.340  0.0000E+00  0.5120E+03
      8.432  0.0000E+00  0.5120E+03
      8.524  0.0000E+00  0.5120E+03
      8.617  0.0000E+00  0.5120E+03
      8.709  0.0000E+00  0.5120E+03
      8.801  0.0000E+00  0.5120E+03
