  96  96   0   0
  0.2080188E+02  0.1257760E-08  0.1245754E-08  0.1274818E-08  0.5000000E-15
  1.000000000000000E-004
  CAR 
 MAPbI3-Cubic                            
     10.08697818    -22.36263210  301      1.24445938      1.00000000
    -22.363  0.0000E+00  0.0000E+00
    -22.254  0.0000E+00  0.0000E+00
    -22.146  0.0000E+00  0.0000E+00
    -22.038  0.0000E+00  0.0000E+00
    -21.930  0.0000E+00  0.0000E+00
    -21.822  0.0000E+00  0.0000E+00
    -21.714  0.0000E+00  0.0000E+00
    -21.605  0.0000E+00  0.0000E+00
    -21.497  0.0000E+00  0.0000E+00
    -21.389  0.0000E+00  0.0000E+00
    -21.281  0.0000E+00  0.0000E+00
    -21.173  0.0000E+00  0.0000E+00
    -21.065  0.0000E+00  0.0000E+00
    -20.956  0.0000E+00  0.0000E+00
    -20.848  0.0000E+00  0.1600E+02
    -20.740  0.0000E+00  0.1600E+02
    -20.632  0.0000E+00  0.1600E+02
    -20.524  0.0000E+00  0.1600E+02
    -20.416  0.0000E+00  0.1600E+02
    -20.307  0.0000E+00  0.1600E+02
    -20.199  0.0000E+00  0.1600E+02
    -20.091  0.0000E+00  0.1600E+02
    -19.983  0.0000E+00  0.1600E+02
    -19.875  0.0000E+00  0.1600E+02
    -19.767  0.0000E+00  0.1600E+02
    -19.658  0.0000E+00  0.1600E+02
    -19.550  0.0000E+00  0.1600E+02
    -19.442  0.0000E+00  0.1600E+02
    -19.334  0.0000E+00  0.1600E+02
    -19.226  0.0000E+00  0.1600E+02
    -19.118  0.0000E+00  0.1600E+02
    -19.010  0.0000E+00  0.1600E+02
    -18.901  0.0000E+00  0.1600E+02
    -18.793  0.0000E+00  0.1600E+02
    -18.685  0.0000E+00  0.1600E+02
    -18.577  0.0000E+00  0.1600E+02
    -18.469  0.0000E+00  0.1600E+02
    -18.361  0.0000E+00  0.1600E+02
    -18.252  0.0000E+00  0.1600E+02
    -18.144  0.0000E+00  0.1600E+02
    -18.036  0.0000E+00  0.1600E+02
    -17.928  0.0000E+00  0.1600E+02
    -17.820  0.0000E+00  0.1600E+02
    -17.712  0.0000E+00  0.1600E+02
    -17.603  0.0000E+00  0.1600E+02
    -17.495  0.0000E+00  0.1600E+02
    -17.387  0.0000E+00  0.1600E+02
    -17.279  0.0000E+00  0.1600E+02
    -17.171  0.8161E+02  0.4572E+02
    -17.063  0.0000E+00  0.9600E+02
    -16.954  0.0000E+00  0.9600E+02
    -16.846  0.0000E+00  0.9600E+02
    -16.738  0.0000E+00  0.9600E+02
    -16.630  0.0000E+00  0.9600E+02
    -16.522  0.0000E+00  0.9600E+02
    -16.414  0.0000E+00  0.9600E+02
    -16.305  0.0000E+00  0.9600E+02
    -16.197  0.0000E+00  0.9600E+02
    -16.089  0.0000E+00  0.9600E+02
    -15.981  0.0000E+00  0.9600E+02
    -15.873  0.0000E+00  0.9600E+02
    -15.765  0.0000E+00  0.9600E+02
    -15.656  0.0000E+00  0.9600E+02
    -15.548  0.0000E+00  0.9600E+02
    -15.440  0.0000E+00  0.9600E+02
    -15.332  0.0000E+00  0.9600E+02
    -15.224  0.0000E+00  0.9600E+02
    -15.116  0.0000E+00  0.9600E+02
    -15.007  0.0000E+00  0.9600E+02
    -14.899  0.0000E+00  0.9600E+02
    -14.791  0.0000E+00  0.9600E+02
    -14.683  0.0000E+00  0.9600E+02
    -14.575  0.0000E+00  0.9600E+02
    -14.467  0.0000E+00  0.9600E+02
    -14.358  0.0000E+00  0.9600E+02
    -14.250  0.0000E+00  0.9600E+02
    -14.142  0.0000E+00  0.9600E+02
    -14.034  0.0000E+00  0.9600E+02
    -13.926  0.0000E+00  0.9600E+02
    -13.818  0.0000E+00  0.9600E+02
    -13.709  0.0000E+00  0.9600E+02
    -13.601  0.0000E+00  0.9600E+02
    -13.493  0.0000E+00  0.9600E+02
    -13.385  0.0000E+00  0.9600E+02
    -13.277  0.0000E+00  0.1120E+03
    -13.169  0.0000E+00  0.1120E+03
    -13.060  0.0000E+00  0.1120E+03
    -12.952  0.0000E+00  0.1120E+03
    -12.844  0.0000E+00  0.1120E+03
    -12.736  0.0000E+00  0.1120E+03
    -12.628  0.0000E+00  0.1120E+03
    -12.520  0.0000E+00  0.1120E+03
    -12.411  0.0000E+00  0.1120E+03
    -12.303  0.0000E+00  0.1125E+03
    -12.195  0.4272E+01  0.1148E+03
    -12.087  0.4131E+01  0.1201E+03
    -11.979  0.1996E+01  0.1261E+03
    -11.871  0.0000E+00  0.1291E+03
    -11.762  0.2033E+01  0.1362E+03
    -11.654  0.8113E+01  0.1412E+03
    -11.546  0.0000E+00  0.1442E+03
    -11.438  0.1391E+01  0.1543E+03
    -11.330  0.7127E+00  0.1596E+03
    -11.222  0.0000E+00  0.1600E+03
    -11.113  0.0000E+00  0.1600E+03
    -11.005  0.0000E+00  0.1600E+03
    -10.897  0.0000E+00  0.1600E+03
    -10.789  0.0000E+00  0.1600E+03
    -10.681  0.0000E+00  0.1600E+03
    -10.573  0.0000E+00  0.1600E+03
    -10.464  0.0000E+00  0.1600E+03
    -10.356  0.0000E+00  0.1600E+03
    -10.248  0.0000E+00  0.1600E+03
    -10.140  0.0000E+00  0.1600E+03
    -10.032  0.0000E+00  0.1600E+03
     -9.924  0.0000E+00  0.1600E+03
     -9.815  0.0000E+00  0.1600E+03
     -9.707  0.0000E+00  0.1600E+03
     -9.599  0.0000E+00  0.1600E+03
     -9.491  0.0000E+00  0.1600E+03
     -9.383  0.0000E+00  0.1600E+03
     -9.275  0.1148E+02  0.1612E+03
     -9.166  0.1479E+02  0.1770E+03
     -9.058  0.0000E+00  0.1920E+03
     -8.950  0.0000E+00  0.1920E+03
     -8.842  0.0000E+00  0.1920E+03
     -8.734  0.0000E+00  0.1920E+03
     -8.626  0.0000E+00  0.1920E+03
     -8.517  0.0000E+00  0.1920E+03
     -8.409  0.0000E+00  0.1920E+03
     -8.301  0.0000E+00  0.1920E+03
     -8.193  0.0000E+00  0.1920E+03
     -8.085  0.0000E+00  0.1920E+03
     -7.977  0.0000E+00  0.1921E+03
     -7.868  0.0000E+00  0.1925E+03
     -7.760  0.2732E+00  0.1925E+03
     -7.652  0.0000E+00  0.1934E+03
     -7.544  0.0000E+00  0.1943E+03
     -7.436  0.1369E+01  0.1952E+03
     -7.328  0.2843E+01  0.1967E+03
     -7.219  0.0000E+00  0.1988E+03
     -7.111  0.5493E+01  0.2017E+03
     -7.003  0.0000E+00  0.2169E+03
     -6.895  0.1370E+01  0.2193E+03
     -6.787  0.0000E+00  0.2205E+03
     -6.679  0.6848E+00  0.2216E+03
     -6.570  0.0000E+00  0.2224E+03
     -6.462  0.1370E+01  0.2233E+03
     -6.354  0.0000E+00  0.2235E+03
     -6.246  0.0000E+00  0.2239E+03
     -6.138  0.0000E+00  0.2239E+03
     -6.030  0.0000E+00  0.2240E+03
     -5.921  0.0000E+00  0.2240E+03
     -5.813  0.0000E+00  0.2240E+03
     -5.705  0.0000E+00  0.2240E+03
     -5.597  0.0000E+00  0.2240E+03
     -5.489  0.0000E+00  0.2240E+03
     -5.381  0.0000E+00  0.2240E+03
     -5.273  0.0000E+00  0.2240E+03
     -5.164  0.0000E+00  0.2240E+03
     -5.056  0.0000E+00  0.2240E+03
     -4.948  0.0000E+00  0.2240E+03
     -4.840  0.8236E+01  0.2253E+03
     -4.732  0.0000E+00  0.2560E+03
     -4.624  0.0000E+00  0.2560E+03
     -4.515  0.0000E+00  0.2560E+03
     -4.407  0.0000E+00  0.2560E+03
     -4.299  0.0000E+00  0.2560E+03
     -4.191  0.0000E+00  0.2560E+03
     -4.083  0.0000E+00  0.2560E+03
     -3.975  0.0000E+00  0.2560E+03
     -3.866  0.0000E+00  0.2560E+03
     -3.758  0.0000E+00  0.2560E+03
     -3.650  0.0000E+00  0.2560E+03
     -3.542  0.0000E+00  0.2560E+03
     -3.434  0.0000E+00  0.2560E+03
     -3.326  0.0000E+00  0.2560E+03
     -3.217  0.0000E+00  0.2560E+03
     -3.109  0.0000E+00  0.2560E+03
     -3.001  0.0000E+00  0.2560E+03
     -2.893  0.0000E+00  0.2560E+03
     -2.785  0.1622E+01  0.2568E+03
     -2.677  0.2306E+01  0.2594E+03
     -2.568  0.4074E+01  0.2622E+03
     -2.460  0.0000E+00  0.2644E+03
     -2.352  0.1370E+01  0.2668E+03
     -2.244  0.8157E+01  0.2701E+03
     -2.136  0.2895E+01  0.2735E+03
     -2.028  0.1814E+01  0.2772E+03
     -1.919  0.0000E+00  0.2796E+03
     -1.811  0.0000E+00  0.2800E+03
     -1.703  0.1370E+01  0.2802E+03
     -1.595  0.4350E+00  0.2818E+03
     -1.487  0.5210E+01  0.2857E+03
     -1.379  0.4050E+01  0.2943E+03
     -1.270  0.2622E+01  0.3006E+03
     -1.162  0.3877E+00  0.3049E+03
     -1.054  0.7185E+00  0.3089E+03
     -0.946  0.5229E+01  0.3145E+03
     -0.838  0.2054E+01  0.3197E+03
     -0.730  0.1382E+01  0.3284E+03
     -0.621  0.2530E+01  0.3342E+03
     -0.513  0.1105E+02  0.3420E+03
     -0.405  0.6160E+01  0.3500E+03
     -0.297  0.2739E+01  0.3590E+03
     -0.189  0.1475E+02  0.3677E+03
     -0.081  0.2739E+01  0.3771E+03
      0.028  0.5479E+01  0.3829E+03
      0.136  0.0000E+00  0.3891E+03
      0.244  0.0000E+00  0.3924E+03
      0.352  0.0000E+00  0.3941E+03
      0.460  0.0000E+00  0.3961E+03
      0.568  0.0000E+00  0.3973E+03
      0.677  0.1357E+01  0.3987E+03
      0.785  0.0000E+00  0.3993E+03
      0.893  0.0000E+00  0.3996E+03
      1.001  0.6174E-12  0.3998E+03
      1.109  0.0000E+00  0.3999E+03
      1.217  0.0000E+00  0.4000E+03
      1.326  0.0000E+00  0.4000E+03
      1.434  0.0000E+00  0.4000E+03
      1.542  0.0000E+00  0.4000E+03
      1.650  0.0000E+00  0.4000E+03
      1.758  0.0000E+00  0.4000E+03
      1.866  0.0000E+00  0.4000E+03
      1.975  0.0000E+00  0.4000E+03
      2.083  0.0000E+00  0.4000E+03
      2.191  0.0000E+00  0.4000E+03
      2.299  0.0000E+00  0.4000E+03
      2.407  0.0000E+00  0.4000E+03
      2.515  0.0000E+00  0.4000E+03
      2.624  0.0000E+00  0.4000E+03
      2.732  0.0000E+00  0.4000E+03
      2.840  0.0000E+00  0.4000E+03
      2.948  0.0000E+00  0.4000E+03
      3.056  0.0000E+00  0.4000E+03
      3.164  0.0000E+00  0.4000E+03
      3.273  0.2264E-06  0.4000E+03
      3.381  0.0000E+00  0.4007E+03
      3.489  0.0000E+00  0.4012E+03
      3.597  0.0000E+00  0.4029E+03
      3.705  0.0000E+00  0.4036E+03
      3.813  0.0000E+00  0.4056E+03
      3.922  0.6133E+00  0.4067E+03
      4.030  0.0000E+00  0.4077E+03
      4.138  0.0000E+00  0.4083E+03
      4.246  0.0000E+00  0.4093E+03
      4.354  0.0000E+00  0.4107E+03
      4.462  0.0000E+00  0.4116E+03
      4.571  0.0000E+00  0.4141E+03
      4.679  0.5818E+00  0.4162E+03
      4.787  0.0000E+00  0.4184E+03
      4.895  0.0000E+00  0.4210E+03
      5.003  0.2739E+01  0.4233E+03
      5.111  0.0000E+00  0.4239E+03
      5.220  0.0000E+00  0.4240E+03
      5.328  0.0000E+00  0.4240E+03
      5.436  0.0000E+00  0.4240E+03
      5.544  0.0000E+00  0.4241E+03
      5.652  0.5911E+00  0.4243E+03
      5.760  0.0000E+00  0.4257E+03
      5.869  0.1495E+01  0.4279E+03
      5.977  0.1414E-05  0.4308E+03
      6.085  0.4050E+01  0.4358E+03
      6.193  0.1370E+01  0.4382E+03
      6.301  0.0000E+00  0.4410E+03
      6.409  0.2054E+01  0.4431E+03
      6.518  0.3353E+00  0.4467E+03
      6.626  0.6358E+00  0.4494E+03
      6.734  0.3424E+01  0.4544E+03
      6.842  0.3494E+01  0.4596E+03
      6.950  0.1374E+01  0.4630E+03
      7.058  0.6002E+01  0.4692E+03
      7.167  0.2739E+01  0.4744E+03
      7.275  0.1450E+01  0.4780E+03
      7.383  0.4109E+01  0.4811E+03
      7.491  0.5370E+01  0.4853E+03
      7.599  0.3277E-03  0.4887E+03
      7.707  0.2739E+01  0.4924E+03
      7.816  0.2716E-08  0.4961E+03
      7.924  0.1117E+01  0.4993E+03
      8.032  0.2395E+01  0.5020E+03
      8.140  0.2647E+01  0.5055E+03
      8.248  0.2496E+01  0.5077E+03
      8.356  0.1606E+01  0.5094E+03
      8.464  0.2624E+01  0.5117E+03
      8.573  0.0000E+00  0.5119E+03
      8.681  0.0000E+00  0.5120E+03
      8.789  0.0000E+00  0.5120E+03
      8.897  0.0000E+00  0.5120E+03
      9.005  0.0000E+00  0.5120E+03
      9.113  0.0000E+00  0.5120E+03
      9.222  0.0000E+00  0.5120E+03
      9.330  0.0000E+00  0.5120E+03
      9.438  0.0000E+00  0.5120E+03
      9.546  0.0000E+00  0.5120E+03
      9.654  0.0000E+00  0.5120E+03
      9.762  0.0000E+00  0.5120E+03
      9.871  0.0000E+00  0.5120E+03
      9.979  0.0000E+00  0.5120E+03
     10.087  0.0000E+00  0.5120E+03
