 running on 1344 total cores
 distrk:  each k-point on  192 cores,    7 groups
 distr:  one band on   12 cores,   16 groups
 using from now: INCAR     
 vasp.5.4.1 24Jun15 (build Nov 25 2015 16:01:35) complex                        
  
 POSCAR found type information on POSCAR  C  N  H  Pb I 
 POSCAR found :  5 types and      96 ions
 scaLAPACK will be used

 ----------------------------------------------------------------------------- 
|                                                                             |
|           W    W    AA    RRRRR   N    N  II  N    N   GGGG   !!!           |
|           W    W   A  A   R    R  NN   N  II  NN   N  G    G  !!!           |
|           W    W  A    A  R    R  N N  N  II  N N  N  G       !!!           |
|           W WW W  AAAAAA  RRRRR   N  N N  II  N  N N  G  GGG   !            |
|           WW  WW  A    A  R   R   N   NN  II  N   NN  G    G                |
|           W    W  A    A  R    R  N    N  II  N    N   GGGG   !!!           |
|                                                                             |
|      For optimal performance we recommend to set                            |
|        NCORE= 4 - approx SQRT( number of cores)                             |
|      NCORE specifies how many cores store one orbital (NPAR=cpu/NCORE).     |
|      This setting can  greatly improve the performance of VASP for DFT.     |
|      The default, NPAR=number of cores might be grossly inefficient         |
|      on modern multi-core architectures or massively parallel machines.     |
|      Do your own testing !!!!                                               |
|      Unfortunately you need to use the default for GW and RPA calculations. |
|      (for HF NCORE is supported but not extensively tested yet)             |
|                                                                             |
 ----------------------------------------------------------------------------- 


 ----------------------------------------------------------------------------- 
|                                                                             |
|           W    W    AA    RRRRR   N    N  II  N    N   GGGG   !!!           |
|           W    W   A  A   R    R  NN   N  II  NN   N  G    G  !!!           |
|           W    W  A    A  R    R  N N  N  II  N N  N  G       !!!           |
|           W WW W  AAAAAA  RRRRR   N  N N  II  N  N N  G  GGG   !            |
|           WW  WW  A    A  R   R   N   NN  II  N   NN  G    G                |
|           W    W  A    A  R    R  N    N  II  N    N   GGGG   !!!           |
|                                                                             |
|      You have enabled k-point parallelism (KPAR>1).                         |
|      This developmental code was originally  written by Paul Kent at ORNL,  |
|      and carefully double checked in Vienna.                                |
|      GW as well as linear response parallelism added by Martijn Marsman     |
|      and Georg Kresse.                                                      |
|      Carefully verify results versus KPAR=1.                                |
|      Report problems to Paul Kent and Vienna.                               |
|                                                                             |
 ----------------------------------------------------------------------------- 


 ----------------------------------------------------------------------------- 
|                                                                             |
|  ADVICE TO THIS USER RUNNING 'VASP/VAMP'   (HEAR YOUR MASTER'S VOICE ...):  |
|                                                                             |
|      You have a (more or less) 'large supercell' and for larger cells       |
|      it might be more efficient to use real space projection opertators     |
|      So try LREAL= Auto  in the INCAR   file.                               |
|      Mind: At the moment your POTCAR file does not contain real space       |
|       projectors, and has to be modified,  BUT if you                       |
|      want to do an extremely  accurate calculation you might also keep the  |
|      reciprocal projection scheme          (i.e. LREAL=.FALSE.)             |
|                                                                             |
 ----------------------------------------------------------------------------- 

 LDA part: xc-table for Pade appr. of Perdew
 POSCAR, INCAR and KPOINTS ok, starting setup
 WARNING: small aliasing (wrap around) errors must be expected
 FFT: planning ...
 WAVECAR not read
  WARNING: DENMP: can't reach specified precision
  Number of Electrons is NELECT =   399.999999999859     
 entering main loop
       N       E                     dE             d eps       ncg     rms          ort
DAV:   1     0.347042609861E+05    0.34704E+05   -0.11412E+06  3584   0.486E+03
DAV:   2     0.862574911742E+04   -0.26079E+05   -0.25351E+05  3584   0.168E+03
DAV:   3     0.180040925090E+04   -0.68253E+04   -0.67238E+04  3584   0.499E+02
DAV:   4     0.441230798938E+03   -0.13592E+04   -0.13034E+04  3584   0.208E+02
DAV:   5     0.275198917300E+03   -0.16603E+03   -0.16316E+03  3584   0.777E+01
 gam= 0.000 g(H,U,f)=  0.107E+03 0.528E+01 0.000E+00 ort(H,U,f) = 0.000E+00 0.000E+00 0.000E+00
SDA:   6    -0.448193307738E+03   -0.72339E+03   -0.16316E+03  3584   0.112E+03 0.000E+00
 gam= 0.000 trial= 0.400  step= 0.342 mean= 0.400
 gam= 0.355 g(H,U,f)=  0.382E+02 0.168E+01 0.000E+00 ort(H,U,f) =-0.196E+01 0.263E+01 0.000E+00
CGA:   7    -0.467365303909E+03   -0.19172E+02   -0.19233E+02  3584   0.399E+02 0.666E+00
 gam= 0.355 trial= 0.397  step= 0.390 mean= 0.397
 gam= 0.214 g(H,U,f)=  0.815E+01 0.403E+00 0.000E+00 ort(H,U,f) =-0.986E+00 0.985E+00 0.000E+00
CGA:   8    -0.475189273417E+03   -0.78240E+01   -0.78243E+01  3584   0.855E+01-0.921E-03
 gam= 0.214 trial= 0.397  step= 0.668 mean= 0.397
 gam= 0.333 g(H,U,f)=  0.270E+01 0.151E+00 0.000E+00 ort(H,U,f) =-0.353E+00 0.338E+00 0.000E+00
CGA:   9    -0.478044387174E+03   -0.28551E+01   -0.28555E+01  3584   0.285E+01-0.149E-01
 gam= 0.333 trial= 0.410  step= 0.637 mean= 0.410
 gam= 0.363 g(H,U,f)=  0.988E+00 0.453E-01 0.328-311 ort(H,U,f) =-0.142E+00 0.131E+00 0.100-310
CGA:  10    -0.478949036496E+03   -0.90465E+00   -0.90583E+00  3584   0.103E+01-0.106E-01
 gam= 0.363 trial= 0.422  step= 0.442 mean= 0.422
 gam= 0.408 g(H,U,f)=  0.402E+00 0.191E-01 0.000E+00 ort(H,U,f) =-0.549E-01 0.530E-01 0.000E+00
CGA:  11    -0.479176443377E+03   -0.22741E+00   -0.22743E+00  3584   0.421E+00-0.191E-02
 gam= 0.408 trial= 0.423  step= 0.545 mean= 0.423
 gam= 0.251 g(H,U,f)=  0.102E+00 0.428E-02 0.000E+00 ort(H,U,f) =-0.189E-01 0.171E-01 0.000E+00
CGA:  12    -0.479290978070E+03   -0.11453E+00   -0.11465E+00  3584   0.106E+00-0.185E-02
 gam= 0.251 trial= 0.429  step= 0.686 mean= 0.429
 gam= 0.305 g(H,U,f)=  0.312E-01 0.103E-02 0.000E+00 ort(H,U,f) =-0.433E-02 0.386E-02 0.000E+00
CGA:  13    -0.479327033983E+03   -0.36056E-01   -0.36121E-01  3584   0.323E-01-0.471E-03
 gam= 0.305 trial= 0.442  step= 0.656 mean= 0.442
 gam= 0.380 g(H,U,f)=  0.120E-01 0.286E-03 0.346E-39 ort(H,U,f) =-0.106E-02 0.100E-02 0.328E-38
CGA:  14    -0.479337557048E+03   -0.10523E-01   -0.10530E-01  3584   0.123E-01-0.542E-04
 gam= 0.380 trial= 0.452  step= 0.478 mean= 0.452
 gam= 0.519 g(H,U,f)=  0.628E-02 0.865E-04 0.000E+00 ort(H,U,f) =-0.478E-03 0.237E-03 0.000E+00
CGA:  15    -0.479340478670E+03   -0.29216E-02   -0.29247E-02  3584   0.637E-02-0.241E-03
 gam= 0.519 trial= 0.454  step= 0.479 mean= 0.454
 gam= 0.299 g(H,U,f)=  0.187E-02 0.308E-04 0.000E+00 ort(H,U,f) =-0.223E-04 0.704E-04 0.000E+00
CGA:  16    -0.479341973195E+03   -0.14945E-02   -0.14940E-02  3584   0.190E-02 0.481E-04
 gam= 0.299 trial= 0.455  step= 0.738 mean= 0.455
 gam= 0.377 g(H,U,f)=  0.704E-03 0.126E-04 0.000E+00 ort(H,U,f) =-0.587E-04 0.526E-05 0.000E+00
CGA:  17    -0.479342671959E+03   -0.69876E-03   -0.70638E-03  3584   0.717E-03-0.534E-04
 gam= 0.377 trial= 0.469  step= 0.684 mean= 0.469
 gam= 0.366 g(H,U,f)=  0.256E-03 0.686E-05 0.517-122 ort(H,U,f) = 0.515E-07 0.440E-05 0.588-122
CGA:  18    -0.479342910740E+03   -0.23878E-03   -0.23832E-03  3584   0.262E-03 0.445E-05
 gam= 0.366 trial= 0.480  step= 0.651 mean= 0.480
 gam= 0.352 g(H,U,f)=  0.886E-04 0.358E-05 0.000E+00 ort(H,U,f) =-0.195E-05 0.457E-05 0.000E+00
CGA:  19    -0.479342996912E+03   -0.86172E-04   -0.85951E-04  3584   0.922E-04 0.262E-05
 gam= 0.352 trial= 0.488  step= 0.616 mean= 0.488
 gam= 0.400 g(H,U,f)=  0.354E-04 0.150E-05 0.000E+00 ort(H,U,f) = 0.355E-05 0.284E-05 0.000E+00
CGA:  20    -0.479343026030E+03   -0.29118E-04   -0.28709E-04  3584   0.369E-04 0.639E-05
 gam= 0.400 trial= 0.495  step= 0.661 mean= 0.495
 gam= 0.836 g(H,U,f)=  0.303E-04 0.601E-06 0.000E+00 ort(H,U,f) =-0.770E-05 0.135E-05 0.000E+00
CGA:  21    -0.479343038549E+03   -0.12519E-04   -0.13047E-04  3584   0.309E-04-0.635E-05
 gam= 0.836 trial= 0.503  step= 0.371 mean= 0.503
 gam= 0.297 g(H,U,f)=  0.901E-05 0.149E-06 0.000E+00 ort(H,U,f) = 0.208E-05 0.671E-06 0.000E+00
CGA:  22    -0.479343043111E+03   -0.45623E-05   -0.47435E-05  3584   0.916E-05 0.275E-05
 gam= 0.297 trial= 0.497  step= 0.432 mean= 0.497
 gam= 0.553 g(H,U,f)=  0.499E-05 0.690E-07 0.000E+00 ort(H,U,f) = 0.105E-05 0.135E-06 0.000E+00
CGA:  23    -0.479343045229E+03   -0.21183E-05   -0.21562E-05  3584   0.506E-05 0.119E-05
 gam= 0.553 trial= 0.493  step= 0.542 mean= 0.493
 gam= 0.789 g(H,U,f)=  0.397E-05 0.274E-07 0.000E+00 ort(H,U,f) =-0.226E-05 0.187E-07 0.000E+00
CGA:  24    -0.479343046724E+03   -0.14947E-05   -0.15493E-05  3584   0.399E-05-0.225E-05
 gam= 0.789 trial= 0.496  step= 0.314 mean= 0.496
 gam= 0.511 g(H,U,f)=  0.202E-05 0.203E-07 0.000E+00 ort(H,U,f) = 0.190E-06-0.833E-08 0.000E+00
CGA:  25    -0.479343047056E+03   -0.33176E-06   -0.34841E-06  3584   0.204E-05 0.182E-06
 gam= 0.511 trial= 0.487  step= 0.237 mean= 0.487
 gam= 0.495 g(H,U,f)=  0.990E-06 0.198E-07 0.000E+00 ort(H,U,f) = 0.387E-06 0.290E-08 0.000E+00
CGA:  26    -0.479343047259E+03   -0.20352E-06   -0.25227E-06  3584   0.101E-05 0.390E-06
 gam= 0.495 trial= 0.474  step= 0.764 mean= 0.474
 gam= 0.000 g(H,U,f)=  0.144E-05 0.124E-07 0.000E+00 ort(H,U,f) =-0.107E-05 0.544E-08 0.000E+00
CGA:  27    -0.479343047564E+03   -0.30518E-06   -0.45943E-06  3584   0.145E-05-0.106E-05
 gam= 0.000 trial= 0.489  step= 0.508 mean= 0.489
 gam= 0.258 g(H,U,f)=  0.367E-06 0.697E-08 0.437-293 ort(H,U,f) =-0.208E-06 0.729E-08 0.581-293
CGA:  28    -0.479343047930E+03   -0.36606E-06   -0.36809E-06  3584   0.374E-06-0.201E-06
 gam= 0.258 trial= 0.490  step= 0.164 mean= 0.490
 gam= 0.367 g(H,U,f)=  0.132E-06 0.547E-08 0.951-273 ort(H,U,f) = 0.154E-06 0.787E-08 0.137-272
CGA:  29    -0.479343047930E+03   -0.18190E-10   -0.26396E-07  3584   0.137E-06 0.162E-06
 gam= 0.367 trial= 0.473  step= 0.125 mean= 0.473
 gam= 0.000 g(H,U,f)=  0.582E-07 0.471E-08 0.148-255 ort(H,U,f) = 0.897E-07 0.764E-08 0.240-255
CGA:  30    -0.479343047926E+03    0.47985E-08   -0.12273E-07  3584   0.629E-07 0.973E-07
 gam= 0.000 trial= 0.456  step=66.076 mean= 0.456
 gam= 0.000 trial= 2.963  step= 2.963 mean= 0.719
 gam= 0.000 g(H,U,f)=  0.139E-05 0.134E-08 0.475E-61 ort(H,U,f) =-0.181E-06-0.971E-09-0.262E-60
CGA:  31    -0.479343047804E+03    0.12180E-06   -0.68712E-07  3584   0.139E-05-0.181E-06
 gam= 0.000 trial= 0.831  step= 0.254 mean= 0.831
 gam= 0.098 g(H,U,f)=  0.135E-06 0.322E-09 0.170E-51 ort(H,U,f) = 0.172E-06-0.878E-10 0.227E-51
CGA:  32    -0.479343047930E+03   -0.12633E-06   -0.17620E-06  3584   0.136E-06 0.172E-06
 gam= 0.098 trial= 0.803  step= 0.634 mean= 0.803
 gam= 0.000 g(H,U,f)=  0.181E-06 0.452E-09 0.101E-29 ort(H,U,f) =-0.130E-06-0.129E-09 0.996E-30
CGA:  33    -0.479343047989E+03   -0.59212E-07   -0.48262E-07  3584   0.181E-06-0.131E-06
 gam= 0.000 trial= 0.794  step= 0.168 mean= 0.794
 gam= 0.191 g(H,U,f)=  0.346E-07 0.818E-10 0.774E-26 ort(H,U,f) = 0.660E-07 0.147E-09 0.982E-26
CGA:  34    -0.479343047984E+03    0.54242E-08   -0.15253E-07  3584   0.346E-07 0.661E-07
 gam= 0.191 trial= 0.763  step= 0.156 mean= 0.763
   1 F= -.47934305E+03 E0= -.47934305E+03  d E =-.276796E-18
Application 22296066 resources: utime ~25459067s, stime ~32798s, Rss ~383808, inblocks ~18942522, outblocks ~10967271
