       N       E                     dE             d eps       ncg     rms          ort
DAV:   1     0.347042609861E+05    0.34704E+05   -0.11412E+06  3584   0.486E+03
DAV:   2     0.862574911742E+04   -0.26079E+05   -0.25351E+05  3584   0.168E+03
DAV:   3     0.180040925090E+04   -0.68253E+04   -0.67238E+04  3584   0.499E+02
DAV:   4     0.441230798938E+03   -0.13592E+04   -0.13034E+04  3584   0.208E+02
DAV:   5     0.275198917300E+03   -0.16603E+03   -0.16316E+03  3584   0.777E+01
SDA:   6    -0.448193307738E+03   -0.72339E+03   -0.16316E+03  3584   0.112E+03 0.000E+00
CGA:   7    -0.467365303909E+03   -0.19172E+02   -0.19233E+02  3584   0.399E+02 0.666E+00
CGA:   8    -0.475189273417E+03   -0.78240E+01   -0.78243E+01  3584   0.855E+01-0.921E-03
CGA:   9    -0.478044387174E+03   -0.28551E+01   -0.28555E+01  3584   0.285E+01-0.149E-01
CGA:  10    -0.478949036496E+03   -0.90465E+00   -0.90583E+00  3584   0.103E+01-0.106E-01
CGA:  11    -0.479176443377E+03   -0.22741E+00   -0.22743E+00  3584   0.421E+00-0.191E-02
CGA:  12    -0.479290978070E+03   -0.11453E+00   -0.11465E+00  3584   0.106E+00-0.185E-02
CGA:  13    -0.479327033983E+03   -0.36056E-01   -0.36121E-01  3584   0.323E-01-0.471E-03
CGA:  14    -0.479337557048E+03   -0.10523E-01   -0.10530E-01  3584   0.123E-01-0.542E-04
CGA:  15    -0.479340478670E+03   -0.29216E-02   -0.29247E-02  3584   0.637E-02-0.241E-03
CGA:  16    -0.479341973195E+03   -0.14945E-02   -0.14940E-02  3584   0.190E-02 0.481E-04
CGA:  17    -0.479342671959E+03   -0.69876E-03   -0.70638E-03  3584   0.717E-03-0.534E-04
CGA:  18    -0.479342910740E+03   -0.23878E-03   -0.23832E-03  3584   0.262E-03 0.445E-05
CGA:  19    -0.479342996912E+03   -0.86172E-04   -0.85951E-04  3584   0.922E-04 0.262E-05
CGA:  20    -0.479343026030E+03   -0.29118E-04   -0.28709E-04  3584   0.369E-04 0.639E-05
CGA:  21    -0.479343038549E+03   -0.12519E-04   -0.13047E-04  3584   0.309E-04-0.635E-05
CGA:  22    -0.479343043111E+03   -0.45623E-05   -0.47435E-05  3584   0.916E-05 0.275E-05
CGA:  23    -0.479343045229E+03   -0.21183E-05   -0.21562E-05  3584   0.506E-05 0.119E-05
CGA:  24    -0.479343046724E+03   -0.14947E-05   -0.15493E-05  3584   0.399E-05-0.225E-05
CGA:  25    -0.479343047056E+03   -0.33176E-06   -0.34841E-06  3584   0.204E-05 0.182E-06
CGA:  26    -0.479343047259E+03   -0.20352E-06   -0.25227E-06  3584   0.101E-05 0.390E-06
CGA:  27    -0.479343047564E+03   -0.30518E-06   -0.45943E-06  3584   0.145E-05-0.106E-05
CGA:  28    -0.479343047930E+03   -0.36606E-06   -0.36809E-06  3584   0.374E-06-0.201E-06
CGA:  29    -0.479343047930E+03   -0.18190E-10   -0.26396E-07  3584   0.137E-06 0.162E-06
CGA:  30    -0.479343047926E+03    0.47985E-08   -0.12273E-07  3584   0.629E-07 0.973E-07
CGA:  31    -0.479343047804E+03    0.12180E-06   -0.68712E-07  3584   0.139E-05-0.181E-06
CGA:  32    -0.479343047930E+03   -0.12633E-06   -0.17620E-06  3584   0.136E-06 0.172E-06
CGA:  33    -0.479343047989E+03   -0.59212E-07   -0.48262E-07  3584   0.181E-06-0.131E-06
CGA:  34    -0.479343047984E+03    0.54242E-08   -0.15253E-07  3584   0.346E-07 0.661E-07
   1 F= -.47934305E+03 E0= -.47934305E+03  d E =-.276796E-18
