   12   12    1    1
  0.2070820E+02  0.6290120E-09  0.6273890E-09  0.6297040E-09  0.5000000E-15
  1.000000000000000E-004
  CAR 
 Name                                    
     50    112     32
 
  0.0000000E+00  0.0000000E+00  0.0000000E+00  0.4629630E-02
    1      -20.844734
    2      -17.170071
    3      -17.145410
    4      -17.097449
    5      -17.079408
    6      -17.075052
    7      -13.301274
    8      -12.366273
    9      -11.576855
   10      -11.283562
   11       -9.263478
   12       -9.089552
   13       -7.043774
   14       -6.025707
   15       -4.746709
   16       -4.730148
   17       -2.827975
   18       -2.826107
   19       -2.655990
   20       -0.628025
   21       -0.605207
   22       -0.525923
   23       -0.372102
   24       -0.108912
   25       -0.094338
   26        5.533602
   27        6.455256
   28        6.617135
   29        6.862518
   30        6.991734
   31        7.014076
   32        8.706695
 
  0.1666667E+00  0.4235165E-21  0.2168404E-18  0.9259259E-02
    1      -20.844454
    2      -17.170062
    3      -17.142527
    4      -17.097449
    5      -17.079601
    6      -17.075229
    7      -13.314967
    8      -12.318399
    9      -11.576295
   10      -11.323874
   11       -9.261019
   12       -9.086698
   13       -7.047500
   14       -6.236216
   15       -4.766618
   16       -4.748898
   17       -2.796988
   18       -2.787839
   19       -2.192111
   20       -0.616882
   21       -0.603914
   22       -0.518349
   23       -0.333988
   24       -0.176454
   25       -0.152049
   26        5.664666
   27        6.444560
   28        6.564230
   29        6.805242
   30        7.043970
   31        7.133067
   32        7.176671
 
  0.3333333E+00  0.1694066E-20  0.0000000E+00  0.9259259E-02
    1      -20.843907
    2      -17.170052
    3      -17.136753
    4      -17.097455
    5      -17.079988
    6      -17.075594
    7      -13.340441
    8      -12.209277
    9      -11.575002
   10      -11.421267
   11       -9.256018
   12       -9.080980
   13       -7.052541
   14       -6.564993
   15       -4.805380
   16       -4.785847
   17       -2.720270
   18       -2.703767
   19       -1.409030
   20       -0.669012
   21       -0.556601
   22       -0.479283
   23       -0.313239
   24       -0.282358
   25       -0.018879
   26        5.043274
   27        5.875619
   28        6.477154
   29        6.766518
   30        6.985456
   31        7.491785
   32        7.663988
 
  0.5000000E+00  0.0000000E+00  0.8673617E-18  0.4629630E-02
    1      -20.843668
    2      -17.170051
    3      -17.133859
    4      -17.097468
    5      -17.080202
    6      -17.075790
    7      -13.352447
    8      -12.143154
    9      -11.573923
   10      -11.483427
   11       -9.253550
   12       -9.078120
   13       -7.052239
   14       -6.702593
   15       -4.824252
   16       -4.803959
   17       -2.678978
   18       -2.659361
   19       -1.150984
   20       -0.700433
   21       -0.534668
   22       -0.452372
   23       -0.381701
   24       -0.342995
   25        0.428563
   26        4.120597
   27        5.811787
   28        6.514617
   29        7.038455
   30        7.113249
   31        8.017803
   32        8.174714
 
  0.0000000E+00  0.1666667E+00  0.1694066E-20  0.9259259E-02
    1      -20.844463
    2      -17.167854
    3      -17.144366
    4      -17.097639
    5      -17.079412
    6      -17.075259
    7      -13.299573
    8      -12.327670
    9      -11.621408
   10      -11.301972
   11       -9.237283
   12       -9.090849
   13       -7.054065
   14       -6.241059
   15       -4.757864
   16       -4.729091
   17       -2.804882
   18       -2.674201
   19       -2.279179
   20       -0.729324
   21       -0.600769
   22       -0.530143
   23       -0.407275
   24       -0.127289
   25       -0.089221
   26        5.749907
   27        6.289687
   28        6.552402
   29        6.919950
   30        7.085221
   31        7.279989
   32        7.955249
 
  0.1666667E+00  0.1666667E+00  0.6505213E-18  0.9259259E-02
    1      -20.844174
    2      -17.167822
    3      -17.141492
    4      -17.097641
    5      -17.079601
    6      -17.075443
    7      -13.311670
    8      -12.282859
    9      -11.620313
   10      -11.338579
   11       -9.236347
   12       -9.088422
   13       -7.056298
   14       -6.441124
   15       -4.772116
   16       -4.742190
   17       -2.785311
   18       -2.408214
   19       -2.047734
   20       -0.726495
   21       -0.642811
   22       -0.544708
   23       -0.366950
   24       -0.164491
   25       -0.095214
   26        5.832570
   27        6.193577
   28        6.533243
   29        6.900194
   30        7.033444
   31        7.129411
   32        7.350519
 
  0.3333333E+00  0.1666667E+00  0.4336809E-18  0.9259259E-02
    1      -20.843646
    2      -17.167784
    3      -17.135720
    4      -17.097642
    5      -17.079988
    6      -17.075808
    7      -13.334615
    8      -12.180213
    9      -11.618183
   10      -11.427366
   11       -9.234379
   12       -9.083529
   13       -7.061668
   14       -6.757498
   15       -4.799881
   16       -4.770577
   17       -2.713429
   18       -2.253965
   19       -1.381826
   20       -0.785252
   21       -0.643677
   22       -0.515941
   23       -0.341931
   24       -0.144659
   25        0.028876
   26        4.959630
   27        5.964112
   28        6.290484
   29        6.876551
   30        6.935684
   31        7.344872
   32        7.731127
 
  0.5000000E+00  0.1666667E+00  0.4336809E-18  0.9259259E-02
    1      -20.843394
    2      -17.167773
    3      -17.132819
    4      -17.097644
    5      -17.080189
    6      -17.075993
    7      -13.345510
    8      -12.117940
    9      -11.617175
   10      -11.483886
   11       -9.233340
   12       -9.081044
   13       -7.065769
   14       -6.887448
   15       -4.812083
   16       -4.786554
   17       -2.673810
   18       -2.197425
   19       -1.198546
   20       -0.819467
   21       -0.623815
   22       -0.473590
   23       -0.408122
   24       -0.130926
   25        0.466761
   26        4.033599
   27        5.943872
   28        6.231431
   29        6.954599
   30        7.124715
   31        7.521510
   32        8.045890
 
 -0.3333333E+00  0.1666667E+00 -0.4336809E-18  0.9259259E-02
    1      -20.843634
    2      -17.167772
    3      -17.135708
    4      -17.097631
    5      -17.079976
    6      -17.075797
    7      -13.334618
    8      -12.180177
    9      -11.618193
   10      -11.427333
   11       -9.234356
   12       -9.083482
   13       -7.061678
   14       -6.757545
   15       -4.799792
   16       -4.770791
   17       -2.713457
   18       -2.253702
   19       -1.381930
   20       -0.785122
   21       -0.643544
   22       -0.515735
   23       -0.341893
   24       -0.144413
   25        0.028453
   26        4.959923
   27        5.963826
   28        6.290372
   29        6.877127
   30        6.935696
   31        7.346289
   32        7.753065
 
 -0.1666667E+00  0.1666667E+00 -0.2168404E-18  0.9259259E-02
    1      -20.844168
    2      -17.167816
    3      -17.141486
    4      -17.097635
    5      -17.079595
    6      -17.075437
    7      -13.311681
    8      -12.282830
    9      -11.620324
   10      -11.338557
   11       -9.236333
   12       -9.088378
   13       -7.056326
   14       -6.441175
   15       -4.772053
   16       -4.742394
   17       -2.785328
   18       -2.407595
   19       -2.048250
   20       -0.726275
   21       -0.643027
   22       -0.544229
   23       -0.366842
   24       -0.164526
   25       -0.095404
   26        5.832211
   27        6.195406
   28        6.532168
   29        6.899396
   30        7.034864
   31        7.137544
   32        7.366274
 
  0.0000000E+00  0.3333333E+00  0.1694066E-20  0.9259259E-02
    1      -20.843909
    2      -17.164034
    3      -17.141643
    4      -17.098032
    5      -17.079417
    6      -17.075693
    7      -13.296084
    8      -12.226403
    9      -11.739429
   10      -11.332971
   11       -9.185338
   12       -9.095960
   13       -7.070129
   14       -6.575072
   15       -4.774552
   16       -4.732481
   17       -2.731083
   18       -2.561817
   19       -1.453905
   20       -0.866377
   21       -0.718678
   22       -0.471631
   23       -0.394299
   24       -0.126089
   25       -0.042130
   26        4.988262
   27        6.300410
   28        6.538632
   29        7.102761
   30        7.367279
   31        7.613618
   32        7.809804
 
  0.1666667E+00  0.3333333E+00  0.2168404E-18  0.9259259E-02
    1      -20.843624
    2      -17.163899
    3      -17.138850
    4      -17.098037
    5      -17.079597
    6      -17.075878
    7      -13.305157
    8      -12.188952
    9      -11.734928
   10      -11.363240
   11       -9.187672
   12       -9.094246
   13       -7.068760
   14       -6.766889
   15       -4.772758
   16       -4.742049
   17       -2.714918
   18       -2.129259
   19       -1.426937
   20       -0.931643
   21       -0.753028
   22       -0.489874
   23       -0.282959
   24       -0.173668
   25        0.002144
   26        4.894795
   27        6.214543
   28        6.571955
   29        6.991622
   30        7.249667
   31        7.330545
   32        7.939564
 
  0.3333333E+00  0.3333333E+00  0.8673617E-18  0.9259259E-02
    1      -20.843099
    2      -17.163699
    3      -17.133183
    4      -17.098031
    5      -17.079982
    6      -17.076244
    7      -13.322802
    8      -12.102091
    9      -11.725847
   10      -11.437265
   11       -9.191930
   12       -9.090705
   13       -7.131504
   14       -7.014981
   15       -4.784677
   16       -4.749020
   17       -2.646337
   18       -1.513121
   19       -1.331302
   20       -0.974348
   21       -0.725144
   22       -0.540603
   23       -0.337240
   24        0.059681
   25        0.176180
   26        4.612812
   27        4.976506
   28        6.642837
   29        6.784333
   30        7.174315
   31        7.653717
   32        8.009571
 
  0.5000000E+00  0.3333333E+00  0.8673617E-18  0.9259259E-02
    1      -20.842857
    2      -17.163630
    3      -17.130312
    4      -17.098036
    5      -17.080181
    6      -17.076429
    7      -13.331383
    8      -12.049069
    9      -11.721131
   10      -11.484812
   11       -9.193824
   12       -9.088876
   13       -7.248256
   14       -7.030129
   15       -4.794752
   16       -4.749082
   17       -2.607668
   18       -1.403643
   19       -1.317470
   20       -0.880771
   21       -0.721649
   22       -0.521819
   23       -0.414463
   24        0.131097
   25        0.645210
   26        3.838879
   27        4.707759
   28        6.634451
   29        6.768915
   30        7.267549
   31        7.872069
   32        7.949383
 
 -0.3333333E+00  0.3333333E+00  0.0000000E+00  0.9259259E-02
    1      -20.843087
    2      -17.163687
    3      -17.133171
    4      -17.098019
    5      -17.079970
    6      -17.076232
    7      -13.322805
    8      -12.102045
    9      -11.725864
   10      -11.437236
   11       -9.191916
   12       -9.090647
   13       -7.131465
   14       -7.015072
   15       -4.784546
   16       -4.749275
   17       -2.646384
   18       -1.512461
   19       -1.331611
   20       -0.974454
   21       -0.725047
   22       -0.540124
   23       -0.337259
   24        0.060387
   25        0.175099
   26        4.614656
   27        4.974501
   28        6.642687
   29        6.767625
   30        7.174259
   31        7.657821
   32        7.990307
 
 -0.1666667E+00  0.3333333E+00 -0.2168404E-18  0.9259259E-02
    1      -20.843619
    2      -17.163894
    3      -17.138844
    4      -17.098031
    5      -17.079591
    6      -17.075873
    7      -13.305167
    8      -12.188915
    9      -11.734947
   10      -11.363217
   11       -9.187671
   12       -9.094188
   13       -7.068777
   14       -6.766942
   15       -4.772707
   16       -4.742235
   17       -2.714969
   18       -2.128958
   19       -1.427012
   20       -0.931518
   21       -0.753181
   22       -0.489334
   23       -0.282942
   24       -0.173693
   25        0.001871
   26        4.895103
   27        6.213543
   28        6.572123
   29        6.933818
   30        7.248441
   31        7.275451
   32        7.864434
 
  0.0000000E+00  0.5000000E+00  0.1694066E-20  0.4629630E-02
    1      -20.843668
    2      -17.162484
    3      -17.139928
    4      -17.098256
    5      -17.079428
    6      -17.075935
    7      -13.294362
    8      -12.147413
    9      -11.828652
   10      -11.346186
   11       -9.157384
   12       -9.102124
   13       -7.072554
   14       -6.716300
   15       -4.781703
   16       -4.735378
   17       -2.690496
   18       -2.502810
   19       -1.198016
   20       -0.929535
   21       -0.770303
   22       -0.405910
   23       -0.378014
   24       -0.120037
   25        0.202740
   26        4.136745
   27        6.531531
   28        6.809103
   29        7.073967
   30        7.446821
   31        7.527807
   32        8.275388
 
  0.1666667E+00  0.5000000E+00  0.2168404E-18  0.9259259E-02
    1      -20.843355
    2      -17.162249
    3      -17.137211
    4      -17.098243
    5      -17.079594
    6      -17.076104
    7      -13.301877
    8      -12.114906
    9      -11.820605
   10      -11.373857
   11       -9.161918
   12       -9.100229
   13       -7.063919
   14       -6.912145
   15       -4.767396
   16       -4.748324
   17       -2.675862
   18       -2.042563
   19       -1.228728
   20       -1.040371
   21       -0.791035
   22       -0.415475
   23       -0.187195
   24       -0.186735
   25        0.255957
   26        4.040932
   27        6.269304
   28        6.829024
   29        7.084002
   30        7.147938
   31        7.424276
   32        8.122745
 
  0.3333333E+00  0.5000000E+00  0.0000000E+00  0.9259259E-02
    1      -20.842844
    2      -17.161910
    3      -17.131647
    4      -17.098236
    5      -17.079985
    6      -17.076469
    7      -13.316869
    8      -12.038118
    9      -11.804748
   10      -11.441652
   11       -9.170135
   12       -9.096483
   13       -7.237682
   14       -7.046929
   15       -4.773533
   16       -4.742735
   17       -2.608768
   18       -1.325275
   19       -1.195827
   20       -1.157779
   21       -0.755265
   22       -0.461410
   23       -0.320363
   24        0.112884
   25        0.516026
   26        3.835396
   27        4.786571
   28        6.734134
   29        7.073093
   30        7.330652
   31        7.653319
   32        8.056732
 
  0.5000000E+00  0.5000000E+00  0.8673617E-18  0.4629630E-02
    1      -20.842600
    2      -17.161781
    3      -17.128806
    4      -17.098232
    5      -17.080171
    6      -17.076654
    7      -13.324177
    8      -11.990373
    9      -11.796949
   10      -11.485295
   11       -9.173737
   12       -9.094551
   13       -7.378073
   14       -7.038553
   15       -4.785667
   16       -4.731287
   17       -2.570444
   18       -1.381971
   19       -1.186774
   20       -0.884738
   21       -0.733606
   22       -0.429300
   23       -0.383047
   24        0.242394
   25        0.919417
   26        3.726233
   27        3.799893
   28        6.740293
   29        7.044730
   30        7.313097
   31        7.903582
   32        7.998533
 
  0.0000000E+00  0.0000000E+00  0.1666667E+00  0.9259259E-02
    1      -20.844519
    2      -17.167682
    3      -17.144636
    4      -17.097618
    5      -17.079621
    6      -17.075052
    7      -13.300449
    8      -12.323811
    9      -11.628445
   10      -11.294324
   11       -9.262761
   12       -9.072173
   13       -7.052973
   14       -6.231471
   15       -4.746033
   16       -4.739603
   17       -2.793931
   18       -2.700304
   19       -2.268488
   20       -0.704458
   21       -0.656515
   22       -0.552612
   23       -0.381931
   24       -0.111860
   25       -0.089159
   26        5.737700
   27        6.273594
   28        6.597696
   29        6.969511
   30        7.088444
   31        7.185867
   32        7.678958
 
  0.1666667E+00  0.4235165E-21  0.1666667E+00  0.9259259E-02
    1      -20.844255
    2      -17.167675
    3      -17.141738
    4      -17.097622
    5      -17.079823
    6      -17.075228
    7      -13.314454
    8      -12.276462
    9      -11.627228
   10      -11.331132
   11       -9.260344
   12       -9.066953
   13       -7.058319
   14       -6.437761
   15       -4.766384
   16       -4.763345
   17       -2.760495
   18       -2.403616
   19       -2.076633
   20       -0.695674
   21       -0.671451
   22       -0.515707
   23       -0.349208
   24       -0.184024
   25       -0.099254
   26        5.804177
   27        6.239000
   28        6.597992
   29        6.803264
   30        6.974514
   31        7.179409
   32        7.266549
 
  0.3333333E+00  0.1694066E-20  0.1666667E+00  0.9259259E-02
    1      -20.843716
    2      -17.167672
    3      -17.135932
    4      -17.097625
    5      -17.080212
    6      -17.075595
    7      -13.337204
    8      -12.174308
    9      -11.621657
   10      -11.423518
   11       -9.255427
   12       -9.064397
   13       -7.061248
   14       -6.757319
   15       -4.800412
   16       -4.787554
   17       -2.679490
   18       -2.275061
   19       -1.402696
   20       -0.761434
   21       -0.615453
   22       -0.500850
   23       -0.328245
   24       -0.157811
   25       -0.003125
   26        4.979584
   27        5.976362
   28        6.331021
   29        6.598884
   30        6.952829
   31        7.640920
   32        7.724414
 
  0.5000000E+00  0.0000000E+00  0.1666667E+00  0.9259259E-02
    1      -20.843441
    2      -17.167676
    3      -17.133021
    4      -17.097624
    5      -17.080402
    6      -17.075785
    7      -13.346364
    8      -12.115195
    9      -11.616337
   10      -11.483917
   11       -9.252947
   12       -9.067179
   13       -7.063260
   14       -6.882301
   15       -4.820038
   16       -4.782553
   17       -2.631196
   18       -2.242694
   19       -1.226957
   20       -0.788729
   21       -0.598995
   22       -0.503677
   23       -0.394807
   24       -0.141313
   25        0.464889
   26        4.030606
   27        5.973680
   28        6.338621
   29        6.584330
   30        7.128865
   31        7.812694
   32        8.233434
 
 -0.3333333E+00 -0.1694066E-20  0.1666667E+00  0.9259259E-02
    1      -20.843677
    2      -17.167658
    3      -17.135921
    4      -17.097612
    5      -17.080184
    6      -17.075583
    7      -13.333728
    8      -12.179496
    9      -11.621667
   10      -11.423269
   11       -9.255326
   12       -9.072580
   13       -7.058047
   14       -6.745856
   15       -4.803490
   16       -4.754938
   17       -2.669043
   18       -2.319316
   19       -1.375493
   20       -0.832734
   21       -0.635771
   22       -0.537970
   23       -0.316094
   24       -0.178467
   25        0.073647
   26        4.919188
   27        6.039941
   28        6.431744
   29        6.526598
   30        6.917651
   31        7.646657
   32        7.711842
 
 -0.1666667E+00 -0.4235165E-21  0.1666667E+00  0.9259259E-02
    1      -20.844223
    2      -17.167666
    3      -17.141733
    4      -17.097610
    5      -17.079807
    6      -17.075221
    7      -13.310663
    8      -12.281728
    9      -11.626178
   10      -11.332265
   11       -9.260215
   12       -9.075022
   13       -7.051594
   14       -6.428619
   15       -4.766569
   16       -4.732544
   17       -2.750323
   18       -2.502479
   19       -1.996167
   20       -0.761709
   21       -0.685223
   22       -0.559152
   23       -0.338870
   24       -0.177883
   25       -0.060458
   26        5.841166
   27        6.135766
   28        6.528818
   29        6.927447
   30        7.114460
   31        7.240232
   32        7.611037
 
  0.0000000E+00  0.1666667E+00  0.1666667E+00  0.9259259E-02
    1      -20.844222
    2      -17.165273
    3      -17.143770
    4      -17.097815
    5      -17.079620
    6      -17.075260
    7      -13.298804
    8      -12.285822
    9      -11.662826
   10      -11.319654
   11       -9.236423
   12       -9.073627
   13       -7.064328
   14       -6.436095
   15       -4.757702
   16       -4.738994
   17       -2.679171
   18       -2.434115
   19       -2.110221
   20       -0.840210
   21       -0.640124
   22       -0.493375
   23       -0.435317
   24       -0.124928
   25       -0.074927
   26        5.910895
   27        6.133433
   28        6.341221
   29        6.943548
   30        7.162964
   31        7.552521
   32        7.828696
 
  0.1666667E+00  0.1666667E+00  0.1666667E+00  0.9259259E-02
    1      -20.843969
    2      -17.165268
    3      -17.140869
    4      -17.097817
    5      -17.079821
    6      -17.075442
    7      -13.311401
    8      -12.241917
    9      -11.661315
   10      -11.351330
   11       -9.235875
   12       -9.069100
   13       -7.069053
   14       -6.633371
   15       -4.778916
   16       -4.751820
   17       -2.447226
   18       -2.316497
   19       -1.951604
   20       -0.839092
   21       -0.676854
   22       -0.508814
   23       -0.404956
   24       -0.112600
   25       -0.074061
   26        5.882739
   27        6.116508
   28        6.259225
   29        6.852222
   30        7.202044
   31        7.254972
   32        7.674855
 
  0.3333333E+00  0.1666667E+00  0.1666667E+00  0.9259259E-02
    1      -20.843452
    2      -17.165257
    3      -17.135039
    4      -17.097819
    5      -17.080213
    6      -17.075810
    7      -13.331815
    8      -12.146716
    9      -11.656833
   10      -11.431636
   11       -9.234173
   12       -9.067485
   13       -7.085211
   14       -6.930386
   15       -4.800208
   16       -4.770628
   17       -2.356715
   18       -2.139829
   19       -1.376420
   20       -0.851027
   21       -0.803396
   22       -0.432293
   23       -0.287550
   24       -0.077087
   25        0.032568
   26        4.887147
   27        5.906667
   28        6.144744
   29        6.556330
   30        6.942739
   31        7.548456
   32        7.872523
 
  0.5000000E+00  0.1666667E+00  0.1666667E+00  0.9259259E-02
    1      -20.843169
    2      -17.165252
    3      -17.132115
    4      -17.097820
    5      -17.080400
    6      -17.075991
    7      -13.339918
    8      -12.091565
    9      -11.653773
   10      -11.483849
   11       -9.233042
   12       -9.070520
   13       -7.138601
   14       -7.001652
   15       -4.802781
   16       -4.774542
   17       -2.320228
   18       -2.084638
   19       -1.240755
   20       -0.938450
   21       -0.787107
   22       -0.408529
   23       -0.257750
   24       -0.075539
   25        0.497672
   26        3.937014
   27        5.897095
   28        6.123728
   29        6.537859
   30        7.026105
   31        7.669769
   32        8.192756
 
 -0.3333333E+00  0.1666667E+00  0.1666667E+00  0.9259259E-02
    1      -20.843441
    2      -17.165245
    3      -17.135033
    4      -17.097809
    5      -17.080187
    6      -17.075800
    7      -13.328407
    8      -12.150996
    9      -11.657535
   10      -11.432101
   11       -9.233707
   12       -9.075167
   13       -7.085297
   14       -6.915960
   15       -4.790984
   16       -4.750944
   17       -2.377570
   18       -2.152121
   19       -1.358253
   20       -0.907956
   21       -0.800902
   22       -0.475909
   23       -0.295424
   24       -0.073832
   25        0.083832
   26        4.828985
   27        5.929126
   28        6.203540
   29        6.581061
   30        6.916290
   31        7.592084
   32        7.769268
 
 -0.1666667E+00  0.1666667E+00  0.1666667E+00  0.9259259E-02
    1      -20.843984
    2      -17.165262
    3      -17.140867
    4      -17.097815
    5      -17.079807
    6      -17.075442
    7      -13.307771
    8      -12.246340
    9      -11.661193
   10      -11.352810
   11       -9.235382
   12       -9.076689
   13       -7.062430
   14       -6.624752
   15       -4.768507
   16       -4.732120
   17       -2.512329
   18       -2.327437
   19       -1.882102
   20       -0.867166
   21       -0.729717
   22       -0.530616
   23       -0.398470
   24       -0.103978
   25       -0.054938
   26        5.845667
   27        6.064911
   28        6.317972
   29        6.879805
   30        7.234109
   31        7.478071
   32        7.653649
 
  0.0000000E+00  0.3333333E+00  0.1666667E+00  0.9259259E-02
    1      -20.843679
    2      -17.161095
    3      -17.141377
    4      -17.098209
    5      -17.079619
    6      -17.075697
    7      -13.295539
    8      -12.186374
    9      -11.758137
   10      -11.366629
   11       -9.183841
   12       -9.078628
   13       -7.082852
   14       -6.761094
   15       -4.774792
   16       -4.743779
   17       -2.581185
   18       -2.234357
   19       -1.467571
   20       -0.889761
   21       -0.705239
   22       -0.507365
   23       -0.381952
   24       -0.136090
   25        0.008615
   26        4.899382
   27        6.084877
   28        6.441609
   29        7.119042
   30        7.318763
   31        7.532125
   32        8.009871
 
  0.1666667E+00  0.3333333E+00  0.1666667E+00  0.9259259E-02
    1      -20.843419
    2      -17.161000
    3      -17.138528
    4      -17.098211
    5      -17.079821
    6      -17.075881
    7      -13.305259
    8      -12.151498
    9      -11.753462
   10      -11.388372
   11       -9.187352
   12       -9.075503
   13       -7.091209
   14       -6.944886
   15       -4.779747
   16       -4.753287
   17       -2.297154
   18       -2.067163
   19       -1.452448
   20       -0.956555
   21       -0.737374
   22       -0.535964
   23       -0.267465
   24       -0.095256
   25        0.022356
   26        4.805199
   27        5.958181
   28        6.367881
   29        6.778954
   30        7.143680
   31        7.417385
   32        7.900952
 
  0.3333333E+00  0.3333333E+00  0.1666667E+00  0.9259259E-02
    1      -20.842921
    2      -17.160874
    3      -17.132769
    4      -17.098207
    5      -17.080208
    6      -17.076247
    7      -13.320898
    8      -12.073751
    9      -11.746326
   10      -11.445509
   11       -9.192481
   12       -9.075512
   13       -7.297872
   14       -7.043313
   15       -4.788438
   16       -4.749951
   17       -2.203773
   18       -1.508909
   19       -1.332874
   20       -1.064055
   21       -0.822717
   22       -0.446314
   23       -0.154868
   24        0.053059
   25        0.175844
   26        4.518966
   27        4.899542
   28        5.990015
   29        6.763354
   30        7.008794
   31        7.630558
   32        8.043843
 
  0.5000000E+00  0.3333333E+00  0.1666667E+00  0.9259259E-02
    1      -20.842672
    2      -17.160833
    3      -17.129862
    4      -17.098217
    5      -17.080403
    6      -17.076435
    7      -13.326902
    8      -12.028020
    9      -11.743830
   10      -11.483716
   11       -9.194046
   12       -9.078755
   13       -7.431800
   14       -7.033142
   15       -4.780182
   16       -4.749223
   17       -2.172661
   18       -1.433038
   19       -1.313725
   20       -1.044437
   21       -0.821558
   22       -0.393414
   23       -0.199937
   24        0.137624
   25        0.666465
   26        3.731562
   27        4.614444
   28        5.999368
   29        6.803434
   30        6.930754
   31        7.776406
   32        8.327587
 
 -0.3333333E+00  0.3333333E+00  0.1666667E+00  0.9259259E-02
    1      -20.842914
    2      -17.160866
    3      -17.132763
    4      -17.098201
    5      -17.080182
    6      -17.076234
    7      -13.317621
    8      -12.075069
    9      -11.748963
   10      -11.448234
   11       -9.190931
   12       -9.081911
   13       -7.295622
   14       -7.031771
   15       -4.768575
   16       -4.744163
   17       -2.240305
   18       -1.497226
   19       -1.334506
   20       -1.068013
   21       -0.847242
   22       -0.469854
   23       -0.185755
   24        0.073653
   25        0.201230
   26        4.510710
   27        4.840004
   28        6.098968
   29        6.784415
   30        6.996635
   31        7.698345
   32        8.007658
 
 -0.1666667E+00  0.3333333E+00  0.1666667E+00  0.9259259E-02
    1      -20.843438
    2      -17.160997
    3      -17.138529
    4      -17.098206
    5      -17.079799
    6      -17.075875
    7      -13.301880
    8      -12.153131
    9      -11.755967
   10      -11.391077
   11       -9.185816
   12       -9.081811
   13       -7.084791
   14       -6.936886
   15       -4.771072
   16       -4.735303
   17       -2.400785
   18       -1.978331
   19       -1.433198
   20       -1.030596
   21       -0.713973
   22       -0.541338
   23       -0.312355
   24       -0.084837
   25        0.037071
   26        4.804074
   27        5.874368
   28        6.422135
   29        6.824166
   30        7.245478
   31        7.484714
   32        7.878675
 
  0.0000000E+00  0.5000000E+00  0.1666667E+00  0.9259259E-02
    1      -20.843398
    2      -17.159394
    3      -17.139777
    4      -17.098411
    5      -17.079616
    6      -17.075923
    7      -13.293896
    8      -12.108189
    9      -11.836046
   10      -11.388070
   11       -9.156013
   12       -9.083813
   13       -7.083609
   14       -6.903672
   15       -4.782351
   16       -4.747011
   17       -2.528527
   18       -2.172291
   19       -1.358745
   20       -0.823145
   21       -0.695659
   22       -0.486759
   23       -0.344218
   24       -0.129923
   25        0.256951
   26        4.045402
   27        6.050987