  96  96   0   0
  0.2080188E+02  0.1257760E-08  0.1245754E-08  0.1274818E-08  0.5000000E-15
  1.000000000000000E-004
  CAR 
 MAPbI3-Cubic                            
     10.01652483    -22.16286452  301      1.14037660      1.00000000
    -22.163  0.0000E+00  0.0000E+00
    -22.056  0.0000E+00  0.0000E+00
    -21.948  0.0000E+00  0.0000E+00
    -21.841  0.0000E+00  0.0000E+00
    -21.734  0.0000E+00  0.0000E+00
    -21.627  0.0000E+00  0.0000E+00
    -21.519  0.0000E+00  0.0000E+00
    -21.412  0.0000E+00  0.0000E+00
    -21.305  0.0000E+00  0.0000E+00
    -21.197  0.0000E+00  0.0000E+00
    -21.090  0.0000E+00  0.0000E+00
    -20.983  0.0000E+00  0.0000E+00
    -20.876  0.0000E+00  0.0000E+00
    -20.768  0.0000E+00  0.0000E+00
    -20.661  0.0000E+00  0.1600E+02
    -20.554  0.0000E+00  0.1600E+02
    -20.447  0.0000E+00  0.1600E+02
    -20.339  0.0000E+00  0.1600E+02
    -20.232  0.0000E+00  0.1600E+02
    -20.125  0.0000E+00  0.1600E+02
    -20.018  0.0000E+00  0.1600E+02
    -19.910  0.0000E+00  0.1600E+02
    -19.803  0.0000E+00  0.1600E+02
    -19.696  0.0000E+00  0.1600E+02
    -19.589  0.0000E+00  0.1600E+02
    -19.481  0.0000E+00  0.1600E+02
    -19.374  0.0000E+00  0.1600E+02
    -19.267  0.0000E+00  0.1600E+02
    -19.159  0.0000E+00  0.1600E+02
    -19.052  0.0000E+00  0.1600E+02
    -18.945  0.0000E+00  0.1600E+02
    -18.838  0.0000E+00  0.1600E+02
    -18.730  0.0000E+00  0.1600E+02
    -18.623  0.0000E+00  0.1600E+02
    -18.516  0.0000E+00  0.1600E+02
    -18.409  0.0000E+00  0.1600E+02
    -18.301  0.0000E+00  0.1600E+02
    -18.194  0.0000E+00  0.1600E+02
    -18.087  0.0000E+00  0.1600E+02
    -17.980  0.0000E+00  0.1600E+02
    -17.872  0.0000E+00  0.1600E+02
    -17.765  0.0000E+00  0.1600E+02
    -17.658  0.0000E+00  0.1600E+02
    -17.550  0.0000E+00  0.1600E+02
    -17.443  0.0000E+00  0.1600E+02
    -17.336  0.0000E+00  0.1600E+02
    -17.229  0.1138E+00  0.3201E+02
    -17.121  0.0000E+00  0.9600E+02
    -17.014  0.0000E+00  0.9600E+02
    -16.907  0.0000E+00  0.9600E+02
    -16.800  0.0000E+00  0.9600E+02
    -16.692  0.0000E+00  0.9600E+02
    -16.585  0.0000E+00  0.9600E+02
    -16.478  0.0000E+00  0.9600E+02
    -16.371  0.0000E+00  0.9600E+02
    -16.263  0.0000E+00  0.9600E+02
    -16.156  0.0000E+00  0.9600E+02
    -16.049  0.0000E+00  0.9600E+02
    -15.942  0.0000E+00  0.9600E+02
    -15.834  0.0000E+00  0.9600E+02
    -15.727  0.0000E+00  0.9600E+02
    -15.620  0.0000E+00  0.9600E+02
    -15.512  0.0000E+00  0.9600E+02
    -15.405  0.0000E+00  0.9600E+02
    -15.298  0.0000E+00  0.9600E+02
    -15.191  0.0000E+00  0.9600E+02
    -15.083  0.0000E+00  0.9600E+02
    -14.976  0.0000E+00  0.9600E+02
    -14.869  0.0000E+00  0.9600E+02
    -14.762  0.0000E+00  0.9600E+02
    -14.654  0.0000E+00  0.9600E+02
    -14.547  0.0000E+00  0.9600E+02
    -14.440  0.0000E+00  0.9600E+02
    -14.333  0.0000E+00  0.9600E+02
    -14.225  0.0000E+00  0.9600E+02
    -14.118  0.0000E+00  0.9600E+02
    -14.011  0.0000E+00  0.9600E+02
    -13.903  0.0000E+00  0.9600E+02
    -13.796  0.0000E+00  0.9600E+02
    -13.689  0.0000E+00  0.9600E+02
    -13.582  0.0000E+00  0.9600E+02
    -13.474  0.0000E+00  0.9600E+02
    -13.367  0.0000E+00  0.9600E+02
    -13.260  0.0000E+00  0.1040E+03
    -13.153  0.0000E+00  0.1120E+03
    -13.045  0.0000E+00  0.1120E+03
    -12.938  0.0000E+00  0.1120E+03
    -12.831  0.0000E+00  0.1120E+03
    -12.724  0.0000E+00  0.1120E+03
    -12.616  0.0000E+00  0.1120E+03
    -12.509  0.0000E+00  0.1120E+03
    -12.402  0.0000E+00  0.1120E+03
    -12.295  0.0000E+00  0.1125E+03
    -12.187  0.3417E+01  0.1151E+03
    -12.080  0.5525E+01  0.1215E+03
    -11.973  0.3451E+01  0.1269E+03
    -11.865  0.1695E-02  0.1291E+03
    -11.758  0.6610E+00  0.1364E+03
    -11.651  0.2096E+00  0.1400E+03
    -11.544  0.0000E+00  0.1442E+03
    -11.436  0.5254E+00  0.1542E+03
    -11.329  0.0000E+00  0.1600E+03
    -11.222  0.0000E+00  0.1600E+03
    -11.115  0.0000E+00  0.1600E+03
    -11.007  0.0000E+00  0.1600E+03
    -10.900  0.0000E+00  0.1600E+03
    -10.793  0.0000E+00  0.1600E+03
    -10.686  0.0000E+00  0.1600E+03
    -10.578  0.0000E+00  0.1600E+03
    -10.471  0.0000E+00  0.1600E+03
    -10.364  0.0000E+00  0.1600E+03
    -10.256  0.0000E+00  0.1600E+03
    -10.149  0.0000E+00  0.1600E+03
    -10.042  0.0000E+00  0.1600E+03
     -9.935  0.0000E+00  0.1600E+03
     -9.827  0.0000E+00  0.1600E+03
     -9.720  0.0000E+00  0.1600E+03
     -9.613  0.0000E+00  0.1600E+03
     -9.506  0.0000E+00  0.1600E+03
     -9.398  0.0000E+00  0.1600E+03
     -9.291  0.0000E+00  0.1600E+03
     -9.184  0.0000E+00  0.1600E+03
     -9.077  0.0000E+00  0.1680E+03
     -8.969  0.0000E+00  0.1880E+03
     -8.862  0.0000E+00  0.1920E+03
     -8.755  0.0000E+00  0.1920E+03
     -8.648  0.0000E+00  0.1920E+03
     -8.540  0.0000E+00  0.1920E+03
     -8.433  0.0000E+00  0.1920E+03
     -8.326  0.0000E+00  0.1920E+03
     -8.218  0.0000E+00  0.1920E+03
     -8.111  0.0000E+00  0.1920E+03
     -8.004  0.6906E+00  0.1921E+03
     -7.897  0.0000E+00  0.1921E+03
     -7.789  0.0000E+00  0.1925E+03
     -7.682  0.0000E+00  0.1934E+03
     -7.575  0.2642E-02  0.1940E+03
     -7.468  0.0000E+00  0.1944E+03
     -7.360  0.0000E+00  0.1964E+03
     -7.253  0.0000E+00  0.1988E+03
     -7.146  0.6906E+01  0.2000E+03
     -7.039  0.3959E+01  0.2026E+03
     -6.931  0.1055E+01  0.2120E+03
     -6.824  0.3790E-02  0.2201E+03
     -6.717  0.0000E+00  0.2216E+03
     -6.609  0.1381E+01  0.2226E+03
     -6.502  0.1381E+01  0.2233E+03
     -6.395  0.0000E+00  0.2235E+03
     -6.288  0.0000E+00  0.2239E+03
     -6.180  0.0000E+00  0.2239E+03
     -6.073  0.0000E+00  0.2240E+03
     -5.966  0.0000E+00  0.2240E+03
     -5.859  0.0000E+00  0.2240E+03
     -5.751  0.0000E+00  0.2240E+03
     -5.644  0.0000E+00  0.2240E+03
     -5.537  0.0000E+00  0.2240E+03
     -5.430  0.0000E+00  0.2240E+03
     -5.322  0.0000E+00  0.2240E+03
     -5.215  0.0000E+00  0.2240E+03
     -5.108  0.0000E+00  0.2240E+03
     -5.001  0.0000E+00  0.2240E+03
     -4.893  0.0000E+00  0.2240E+03
     -4.786  0.1385E+02  0.2277E+03
     -4.679  0.9897E+01  0.2534E+03
     -4.571  0.0000E+00  0.2560E+03
     -4.464  0.0000E+00  0.2560E+03
     -4.357  0.0000E+00  0.2560E+03
     -4.250  0.0000E+00  0.2560E+03
     -4.142  0.0000E+00  0.2560E+03
     -4.035  0.0000E+00  0.2560E+03
     -3.928  0.0000E+00  0.2560E+03
     -3.821  0.0000E+00  0.2560E+03
     -3.713  0.0000E+00  0.2560E+03
     -3.606  0.0000E+00  0.2560E+03
     -3.499  0.0000E+00  0.2560E+03
     -3.392  0.0000E+00  0.2560E+03
     -3.284  0.0000E+00  0.2560E+03
     -3.177  0.0000E+00  0.2560E+03
     -3.070  0.0000E+00  0.2560E+03
     -2.962  0.0000E+00  0.2560E+03
     -2.855  0.0000E+00  0.2560E+03
     -2.748  0.2999E+01  0.2571E+03
     -2.641  0.1395E+01  0.2593E+03
     -2.533  0.2985E+01  0.2619E+03
     -2.426  0.2879E+01  0.2645E+03
     -2.319  0.1207E-01  0.2667E+03
     -2.212  0.5525E+01  0.2711E+03
     -2.104  0.0000E+00  0.2741E+03
     -1.997  0.1381E+01  0.2773E+03
     -1.890  0.0000E+00  0.2796E+03
     -1.783  0.0000E+00  0.2800E+03
     -1.675  0.3271E+00  0.2803E+03
     -1.568  0.2727E+01  0.2838E+03
     -1.461  0.4146E+01  0.2884E+03
     -1.354  0.0000E+00  0.2955E+03
     -1.246  0.1384E+01  0.3016E+03
     -1.139  0.2762E+01  0.3057E+03
     -1.032  0.2763E+01  0.3100E+03
     -0.924  0.4332E+01  0.3151E+03
     -0.817  0.3582E+01  0.3228E+03
     -0.710  0.1382E+01  0.3297E+03
     -0.603  0.6900E+01  0.3363E+03
     -0.495  0.1578E+02  0.3444E+03
     -0.388  0.4658E+01  0.3525E+03
     -0.281  0.6906E+01  0.3628E+03
     -0.174  0.1410E+02  0.3705E+03
     -0.066  0.4143E+01  0.3784E+03
      0.041  0.8887E+01  0.3853E+03
      0.148  0.1141E+00  0.3903E+03
      0.255  0.4600E-15  0.3934E+03
      0.363  0.1381E+01  0.3954E+03
      0.470  0.2763E+01  0.3972E+03
      0.577  0.9380E+00  0.3982E+03
      0.685  0.0000E+00  0.3993E+03
      0.792  0.2149E-04  0.3993E+03
      0.899  0.1381E+01  0.3999E+03
      1.006  0.0000E+00  0.3999E+03
      1.114  0.0000E+00  0.4000E+03
      1.221  0.0000E+00  0.4000E+03
      1.328  0.0000E+00  0.4000E+03
      1.435  0.0000E+00  0.4000E+03
      1.543  0.0000E+00  0.4000E+03
      1.650  0.0000E+00  0.4000E+03
      1.757  0.0000E+00  0.4000E+03
      1.864  0.0000E+00  0.4000E+03
      1.972  0.0000E+00  0.4000E+03
      2.079  0.0000E+00  0.4000E+03
      2.186  0.0000E+00  0.4000E+03
      2.293  0.0000E+00  0.4000E+03
      2.401  0.0000E+00  0.4000E+03
      2.508  0.0000E+00  0.4000E+03
      2.615  0.0000E+00  0.4000E+03
      2.723  0.0000E+00  0.4000E+03
      2.830  0.0000E+00  0.4000E+03
      2.937  0.0000E+00  0.4000E+03
      3.044  0.0000E+00  0.4000E+03
      3.152  0.0000E+00  0.4000E+03
      3.259  0.0000E+00  0.4000E+03
      3.366  0.0000E+00  0.4007E+03
      3.473  0.5313E-13  0.4010E+03
      3.581  0.0000E+00  0.4029E+03
      3.688  0.1875E-11  0.4036E+03
      3.795  0.0000E+00  0.4059E+03
      3.902  0.0000E+00  0.4067E+03
      4.010  0.0000E+00  0.4079E+03
      4.117  0.2342E+01  0.4086E+03
      4.224  0.0000E+00  0.4093E+03
      4.331  0.0000E+00  0.4107E+03
      4.439  0.4143E+01  0.4130E+03
      4.546  0.2760E+01  0.4148E+03
      4.653  0.2795E+01  0.4170E+03
      4.761  0.3048E+01  0.4205E+03
      4.868  0.0000E+00  0.4227E+03
      4.975  0.0000E+00  0.4239E+03
      5.082  0.0000E+00  0.4240E+03
      5.190  0.0000E+00  0.4240E+03
      5.297  0.0000E+00  0.4240E+03
      5.404  0.0000E+00  0.4240E+03
      5.511  0.0000E+00  0.4240E+03
      5.619  0.0000E+00  0.4242E+03
      5.726  0.2763E+01  0.4254E+03
      5.833  0.8287E+01  0.4290E+03
      5.940  0.0000E+00  0.4327E+03
      6.048  0.5523E+01  0.4364E+03
      6.155  0.0000E+00  0.4388E+03
      6.262  0.0000E+00  0.4410E+03
      6.370  0.2072E+01  0.4436E+03
      6.477  0.5650E-03  0.4464E+03
      6.584  0.1381E+01  0.4499E+03
      6.691  0.4828E+01  0.4545E+03
      6.799  0.2554E-01  0.4582E+03
      6.906  0.5734E+00  0.4622E+03
      7.013  0.4514E+00  0.4663E+03
      7.120  0.4759E+01  0.4710E+03
      7.228  0.1470E-03  0.4753E+03
      7.335  0.2762E+01  0.4799E+03
      7.442  0.2762E+01  0.4835E+03
      7.549  0.2762E+01  0.4864E+03
      7.657  0.2535E+01  0.4905E+03
      7.764  0.6122E+00  0.4940E+03
      7.871  0.5262E+01  0.4978E+03
      7.978  0.1237E+01  0.5008E+03
      8.086  0.2004E+00  0.5039E+03
      8.193  0.1398E+01  0.5069E+03
      8.300  0.1530E+00  0.5090E+03
      8.408  0.0000E+00  0.5114E+03
      8.515  0.8534E-11  0.5118E+03
      8.622  0.0000E+00  0.5120E+03
      8.729  0.0000E+00  0.5120E+03
      8.837  0.0000E+00  0.5120E+03
      8.944  0.0000E+00  0.5120E+03
      9.051  0.0000E+00  0.5120E+03
      9.158  0.0000E+00  0.5120E+03
      9.266  0.0000E+00  0.5120E+03
      9.373  0.0000E+00  0.5120E+03
      9.480  0.0000E+00  0.5120E+03
      9.587  0.0000E+00  0.5120E+03
      9.695  0.0000E+00  0.5120E+03
      9.802  0.0000E+00  0.5120E+03
      9.909  0.0000E+00  0.5120E+03
     10.017  0.0000E+00  0.5120E+03
