 running on 1344 total cores
 distrk:  each k-point on  192 cores,    7 groups
 distr:  one band on   12 cores,   16 groups
 using from now: INCAR     
 vasp.5.4.1 24Jun15 (build Nov 25 2015 16:01:35) complex                        
  
 POSCAR found type information on POSCAR  C  N  H  Pb I 
 POSCAR found :  5 types and      96 ions
 scaLAPACK will be used

 ----------------------------------------------------------------------------- 
|                                                                             |
|           W    W    AA    RRRRR   N    N  II  N    N   GGGG   !!!           |
|           W    W   A  A   R    R  NN   N  II  NN   N  G    G  !!!           |
|           W    W  A    A  R    R  N N  N  II  N N  N  G       !!!           |
|           W WW W  AAAAAA  RRRRR   N  N N  II  N  N N  G  GGG   !            |
|           WW  WW  A    A  R   R   N   NN  II  N   NN  G    G                |
|           W    W  A    A  R    R  N    N  II  N    N   GGGG   !!!           |
|                                                                             |
|      For optimal performance we recommend to set                            |
|        NCORE= 4 - approx SQRT( number of cores)                             |
|      NCORE specifies how many cores store one orbital (NPAR=cpu/NCORE).     |
|      This setting can  greatly improve the performance of VASP for DFT.     |
|      The default, NPAR=number of cores might be grossly inefficient         |
|      on modern multi-core architectures or massively parallel machines.     |
|      Do your own testing !!!!                                               |
|      Unfortunately you need to use the default for GW and RPA calculations. |
|      (for HF NCORE is supported but not extensively tested yet)             |
|                                                                             |
 ----------------------------------------------------------------------------- 


 ----------------------------------------------------------------------------- 
|                                                                             |
|           W    W    AA    RRRRR   N    N  II  N    N   GGGG   !!!           |
|           W    W   A  A   R    R  NN   N  II  NN   N  G    G  !!!           |
|           W    W  A    A  R    R  N N  N  II  N N  N  G       !!!           |
|           W WW W  AAAAAA  RRRRR   N  N N  II  N  N N  G  GGG   !            |
|           WW  WW  A    A  R   R   N   NN  II  N   NN  G    G                |
|           W    W  A    A  R    R  N    N  II  N    N   GGGG   !!!           |
|                                                                             |
|      You have enabled k-point parallelism (KPAR>1).                         |
|      This developmental code was originally  written by Paul Kent at ORNL,  |
|      and carefully double checked in Vienna.                                |
|      GW as well as linear response parallelism added by Martijn Marsman     |
|      and Georg Kresse.                                                      |
|      Carefully verify results versus KPAR=1.                                |
|      Report problems to Paul Kent and Vienna.                               |
|                                                                             |
 ----------------------------------------------------------------------------- 


 ----------------------------------------------------------------------------- 
|                                                                             |
|  ADVICE TO THIS USER RUNNING 'VASP/VAMP'   (HEAR YOUR MASTER'S VOICE ...):  |
|                                                                             |
|      You have a (more or less) 'large supercell' and for larger cells       |
|      it might be more efficient to use real space projection opertators     |
|      So try LREAL= Auto  in the INCAR   file.                               |
|      Mind: At the moment your POTCAR file does not contain real space       |
|       projectors, and has to be modified,  BUT if you                       |
|      want to do an extremely  accurate calculation you might also keep the  |
|      reciprocal projection scheme          (i.e. LREAL=.FALSE.)             |
|                                                                             |
 ----------------------------------------------------------------------------- 

 LDA part: xc-table for Pade appr. of Perdew
 POSCAR, INCAR and KPOINTS ok, starting setup
 WARNING: small aliasing (wrap around) errors must be expected
 FFT: planning ...
 WAVECAR not read
  WARNING: DENMP: can't reach specified precision
  Number of Electrons is NELECT =   399.999999999859     
 entering main loop
       N       E                     dE             d eps       ncg     rms          ort
DAV:   1     0.351088438587E+05    0.35109E+05   -0.11343E+06  3584   0.486E+03
DAV:   2     0.872459728439E+04   -0.26384E+05   -0.25676E+05  3584   0.168E+03
DAV:   3     0.180717076755E+04   -0.69174E+04   -0.68125E+04  3584   0.502E+02
DAV:   4     0.441825030026E+03   -0.13653E+04   -0.13094E+04  3584   0.207E+02
DAV:   5     0.274278784153E+03   -0.16755E+03   -0.16481E+03  3584   0.778E+01
 gam= 0.000 g(H,U,f)=  0.108E+03 0.530E+01 0.605-162 ort(H,U,f) = 0.000E+00 0.000E+00 0.000E+00
SDA:   6    -0.448251173207E+03   -0.72253E+03   -0.16481E+03  3584   0.113E+03 0.000E+00
 gam= 0.000 trial= 0.400  step= 0.338 mean= 0.400
 gam= 0.355 g(H,U,f)=  0.384E+02 0.171E+01 0.000E+00 ort(H,U,f) =-0.201E+01 0.267E+01 0.000E+00
CGA:   7    -0.467240187800E+03   -0.18989E+02   -0.19057E+02  3584   0.401E+02 0.656E+00
 gam= 0.355 trial= 0.397  step= 0.389 mean= 0.397
 gam= 0.209 g(H,U,f)=  0.798E+01 0.405E+00 0.000E+00 ort(H,U,f) =-0.981E+00 0.997E+00 0.000E+00
CGA:   8    -0.475082659175E+03   -0.78425E+01   -0.78429E+01  3584   0.839E+01 0.156E-01
 gam= 0.209 trial= 0.396  step= 0.672 mean= 0.396
 gam= 0.335 g(H,U,f)=  0.266E+01 0.149E+00 0.000E+00 ort(H,U,f) =-0.343E+00 0.336E+00 0.000E+00
CGA:   9    -0.477902094000E+03   -0.28194E+01   -0.28189E+01  3584   0.281E+01-0.714E-02
 gam= 0.335 trial= 0.410  step= 0.631 mean= 0.410
 gam= 0.378 g(H,U,f)=  0.102E+01 0.450E-01 0.000E+00 ort(H,U,f) =-0.138E+00 0.131E+00 0.000E+00
CGA:  10    -0.478785904590E+03   -0.88381E+00   -0.88459E+00  3584   0.106E+01-0.752E-02
 gam= 0.378 trial= 0.421  step= 0.432 mean= 0.421
 gam= 0.388 g(H,U,f)=  0.393E+00 0.190E-01 0.000E+00 ort(H,U,f) =-0.554E-01 0.540E-01 0.000E+00
CGA:  11    -0.479014216812E+03   -0.22831E+00   -0.22832E+00  3584   0.412E+00-0.137E-02
 gam= 0.388 trial= 0.422  step= 0.563 mean= 0.422
 gam= 0.250 g(H,U,f)=  0.988E-01 0.415E-02 0.000E+00 ort(H,U,f) =-0.180E-01 0.163E-01 0.000E+00
CGA:  12    -0.479129875905E+03   -0.11566E+00   -0.11578E+00  3584   0.103E+00-0.162E-02
 gam= 0.250 trial= 0.429  step= 0.693 mean= 0.429
 gam= 0.305 g(H,U,f)=  0.305E-01 0.969E-03 0.000E+00 ort(H,U,f) =-0.410E-02 0.364E-02 0.000E+00
CGA:  13    -0.479165356980E+03   -0.35481E-01   -0.35546E-01  3584   0.315E-01-0.457E-03
 gam= 0.305 trial= 0.442  step= 0.640 mean= 0.442
 gam= 0.426 g(H,U,f)=  0.131E-01 0.296E-03 0.000E+00 ort(H,U,f) =-0.995E-03 0.985E-03 0.000E+00
CGA:  14    -0.479175378120E+03   -0.10021E-01   -0.10023E-01  3584   0.134E-01-0.107E-04
 gam= 0.426 trial= 0.452  step= 0.443 mean= 0.452
 gam= 0.445 g(H,U,f)=  0.588E-02 0.880E-04 0.000E+00 ort(H,U,f) =-0.509E-03 0.258E-03 0.000E+00
CGA:  15    -0.479178345200E+03   -0.29671E-02   -0.29659E-02  3584   0.597E-02-0.251E-03
 gam= 0.445 trial= 0.451  step= 0.535 mean= 0.451
 gam= 0.310 g(H,U,f)=  0.182E-02 0.302E-04 0.000E+00 ort(H,U,f) =-0.295E-04 0.638E-04 0.000E+00
CGA:  16    -0.479179913689E+03   -0.15685E-02   -0.15671E-02  3584   0.185E-02 0.342E-04
 gam= 0.310 trial= 0.456  step= 0.744 mean= 0.456
 gam= 0.393 g(H,U,f)=  0.715E-03 0.130E-04 0.177-150 ort(H,U,f) =-0.615E-04 0.510E-05-0.822-151
CGA:  17    -0.479180598675E+03   -0.68499E-03   -0.69316E-03  3584   0.728E-03-0.564E-04
 gam= 0.393 trial= 0.470  step= 0.635 mean= 0.470
 gam= 0.394 g(H,U,f)=  0.280E-03 0.668E-05 0.000E+00 ort(H,U,f) = 0.126E-04 0.466E-05 0.000E+00
CGA:  18    -0.479180824062E+03   -0.22539E-03   -0.22398E-03  3584   0.287E-03 0.172E-04
 gam= 0.394 trial= 0.478  step= 0.616 mean= 0.478
 gam= 0.509 g(H,U,f)=  0.142E-03 0.430E-05 0.000E+00 ort(H,U,f) =-0.195E-04 0.493E-05 0.000E+00
CGA:  19    -0.479180913450E+03   -0.89387E-04   -0.90394E-04  3584   0.146E-03-0.146E-04
 gam= 0.509 trial= 0.485  step= 0.400 mean= 0.485
 gam= 0.340 g(H,U,f)=  0.477E-04 0.193E-05 0.000E+00 ort(H,U,f) = 0.130E-04 0.388E-05 0.000E+00
CGA:  20    -0.479180940426E+03   -0.26976E-04   -0.27696E-04  3584   0.496E-04 0.169E-04
 gam= 0.340 trial= 0.481  step= 0.696 mean= 0.481
 gam= 0.444 g(H,U,f)=  0.214E-04 0.653E-06 0.000E+00 ort(H,U,f) =-0.456E-05 0.160E-05 0.000E+00
CGA:  21    -0.479180959371E+03   -0.18946E-04   -0.19266E-04  3584   0.220E-04-0.296E-05
 gam= 0.444 trial= 0.492  step= 0.829 mean= 0.492
 gam= 0.704 g(H,U,f)=  0.154E-04 0.115E-06 0.000E+00 ort(H,U,f) =-0.509E-05 0.361E-06 0.000E+00
CGA:  22    -0.479180967164E+03   -0.77924E-05   -0.85900E-05  3584   0.155E-04-0.472E-05
 gam= 0.704 trial= 0.509  step= 0.293 mean= 0.509
 gam= 0.380 g(H,U,f)=  0.584E-05 0.525E-07 0.000E+00 ort(H,U,f) = 0.306E-05 0.491E-07 0.000E+00
CGA:  23    -0.479180968615E+03   -0.14511E-05   -0.17862E-05  3584   0.589E-05 0.311E-05
 gam= 0.380 trial= 0.498  step= 0.317 mean= 0.498
 gam= 0.467 g(H,U,f)=  0.270E-05 0.525E-07 0.000E+00 ort(H,U,f) = 0.135E-05 0.140E-07 0.000E+00
CGA:  24    -0.479180969610E+03   -0.99522E-06   -0.11191E-05  3584   0.275E-05 0.137E-05
 gam= 0.467 trial= 0.489  step= 0.820 mean= 0.489
 gam= 0.000 g(H,U,f)=  0.500E-05 0.269E-07 0.000E+00 ort(H,U,f) =-0.320E-05 0.430E-08 0.000E+00
CGA:  25    -0.479180970471E+03   -0.86111E-06   -0.13903E-05  3584   0.503E-05-0.320E-05
 gam= 0.000 trial= 0.505  step= 0.275 mean= 0.505
 gam= 0.155 g(H,U,f)=  0.760E-06 0.208E-07 0.000E+00 ort(H,U,f) = 0.129E-05 0.202E-07 0.000E+00
CGA:  26    -0.479180971011E+03   -0.53938E-06   -0.69092E-06  3584   0.781E-06 0.131E-05
 gam= 0.155 trial= 0.494  step= 0.953 mean= 0.494
 gam= 0.000 g(H,U,f)=  0.146E-05 0.614E-08 0.124-271 ort(H,U,f) =-0.971E-06 0.117E-07 0.299-271
CGA:  27    -0.479180971260E+03   -0.24889E-06   -0.46941E-06  3584   0.146E-05-0.960E-06
 gam= 0.000 trial= 0.517  step= 0.411 mean= 0.517
 gam= 0.078 g(H,U,f)=  0.111E-06 0.387E-08 0.272-237 ort(H,U,f) = 0.451E-07 0.465E-08 0.314-237
CGA:  28    -0.479180971558E+03   -0.29803E-06   -0.30074E-06  3584   0.115E-06 0.498E-07
 gam= 0.078 trial= 0.511  step= 0.317 mean= 0.511
 gam= 0.357 g(H,U,f)=  0.380E-07 0.296E-08 0.214-211 ort(H,U,f) = 0.536E-07 0.369E-08 0.266-211
CGA:  29    -0.479180971571E+03   -0.13290E-07   -0.18815E-07  3584   0.410E-07 0.573E-07
 gam= 0.357 trial= 0.502  step= 0.799 mean= 0.502
 gam= 1.566 g(H,U,f)=  0.632E-07 0.931E-09 0.566-140 ort(H,U,f) =-0.151E-07 0.236E-08 0.147-139
CGA:  30    -0.479180971593E+03   -0.22501E-07   -0.24535E-07  3584   0.641E-07-0.128E-07
 gam= 1.566 trial= 0.517  step=-0.259 mean= 0.517
 BOPT < 0, no correction made
 gam= 1.228 g(H,U,f)=  0.787E-07 0.385E-10 0.277E-66 ort(H,U,f) =-0.116E-07-0.229E-09-0.218E-64
CGA:  31    -0.479180971639E+03   -0.45507E-07    0.57085E-08  3584   0.787E-07-0.119E-07
 gam= 1.228 trial= 0.517  step=-0.289 mean= 0.517
 BOPT < 0, no correction made
 gam= 0.000 g(H,U,f)=  0.560E-07 0.168E-08 0.000E+00 ort(H,U,f) =-0.456E-07-0.755E-08 0.000E+00
CGA:  32    -0.479180971702E+03   -0.62737E-07    0.92599E-08  3584   0.577E-07-0.532E-07
 gam= 0.000 trial= 0.517  step= 0.226 mean= 0.517
 gam= 0.000 g(H,U,f)=  0.214E-07 0.136E-08 0.000E+00 ort(H,U,f) = 0.321E-07 0.151E-08 0.000E+00
CGA:  33    -0.479180971703E+03   -0.14697E-08   -0.65096E-08  3584   0.227E-07 0.337E-07
 gam= 0.000 trial= 0.502  step= 0.300 mean= 0.502
   1 F= -.47918097E+03 E0= -.47918097E+03  d E =0.000000E+00
Application 22296070 resources: utime ~23721651s, stime ~31649s, Rss ~383752, inblocks ~18413648, outblocks ~10959538
