       N       E                     dE             d eps       ncg     rms          ort
DAV:   1     0.351088438587E+05    0.35109E+05   -0.11343E+06  3584   0.486E+03
DAV:   2     0.872459728439E+04   -0.26384E+05   -0.25676E+05  3584   0.168E+03
DAV:   3     0.180717076755E+04   -0.69174E+04   -0.68125E+04  3584   0.502E+02
DAV:   4     0.441825030026E+03   -0.13653E+04   -0.13094E+04  3584   0.207E+02
DAV:   5     0.274278784153E+03   -0.16755E+03   -0.16481E+03  3584   0.778E+01
SDA:   6    -0.448251173207E+03   -0.72253E+03   -0.16481E+03  3584   0.113E+03 0.000E+00
CGA:   7    -0.467240187800E+03   -0.18989E+02   -0.19057E+02  3584   0.401E+02 0.656E+00
CGA:   8    -0.475082659175E+03   -0.78425E+01   -0.78429E+01  3584   0.839E+01 0.156E-01
CGA:   9    -0.477902094000E+03   -0.28194E+01   -0.28189E+01  3584   0.281E+01-0.714E-02
CGA:  10    -0.478785904590E+03   -0.88381E+00   -0.88459E+00  3584   0.106E+01-0.752E-02
CGA:  11    -0.479014216812E+03   -0.22831E+00   -0.22832E+00  3584   0.412E+00-0.137E-02
CGA:  12    -0.479129875905E+03   -0.11566E+00   -0.11578E+00  3584   0.103E+00-0.162E-02
CGA:  13    -0.479165356980E+03   -0.35481E-01   -0.35546E-01  3584   0.315E-01-0.457E-03
CGA:  14    -0.479175378120E+03   -0.10021E-01   -0.10023E-01  3584   0.134E-01-0.107E-04
CGA:  15    -0.479178345200E+03   -0.29671E-02   -0.29659E-02  3584   0.597E-02-0.251E-03
CGA:  16    -0.479179913689E+03   -0.15685E-02   -0.15671E-02  3584   0.185E-02 0.342E-04
CGA:  17    -0.479180598675E+03   -0.68499E-03   -0.69316E-03  3584   0.728E-03-0.564E-04
CGA:  18    -0.479180824062E+03   -0.22539E-03   -0.22398E-03  3584   0.287E-03 0.172E-04
CGA:  19    -0.479180913450E+03   -0.89387E-04   -0.90394E-04  3584   0.146E-03-0.146E-04
CGA:  20    -0.479180940426E+03   -0.26976E-04   -0.27696E-04  3584   0.496E-04 0.169E-04
CGA:  21    -0.479180959371E+03   -0.18946E-04   -0.19266E-04  3584   0.220E-04-0.296E-05
CGA:  22    -0.479180967164E+03   -0.77924E-05   -0.85900E-05  3584   0.155E-04-0.472E-05
CGA:  23    -0.479180968615E+03   -0.14511E-05   -0.17862E-05  3584   0.589E-05 0.311E-05
CGA:  24    -0.479180969610E+03   -0.99522E-06   -0.11191E-05  3584   0.275E-05 0.137E-05
CGA:  25    -0.479180970471E+03   -0.86111E-06   -0.13903E-05  3584   0.503E-05-0.320E-05
CGA:  26    -0.479180971011E+03   -0.53938E-06   -0.69092E-06  3584   0.781E-06 0.131E-05
CGA:  27    -0.479180971260E+03   -0.24889E-06   -0.46941E-06  3584   0.146E-05-0.960E-06
CGA:  28    -0.479180971558E+03   -0.29803E-06   -0.30074E-06  3584   0.115E-06 0.498E-07
CGA:  29    -0.479180971571E+03   -0.13290E-07   -0.18815E-07  3584   0.410E-07 0.573E-07
CGA:  30    -0.479180971593E+03   -0.22501E-07   -0.24535E-07  3584   0.641E-07-0.128E-07
CGA:  31    -0.479180971639E+03   -0.45507E-07    0.57085E-08  3584   0.787E-07-0.119E-07
CGA:  32    -0.479180971702E+03   -0.62737E-07    0.92599E-08  3584   0.577E-07-0.532E-07
CGA:  33    -0.479180971703E+03   -0.14697E-08   -0.65096E-08  3584   0.227E-07 0.337E-07
   1 F= -.47918097E+03 E0= -.47918097E+03  d E =0.000000E+00
