 vasp.5.4.1 24Jun15 (build Nov 25 2015 16:01:35) complex                        
  
 executed on         CrayXC-Intel date 2016.06.26  15:06:14
 running on 1344 total cores
 distrk:  each k-point on  192 cores,    7 groups
 distr:  one band on NCORES_PER_BAND=  12 cores,   16 groups


--------------------------------------------------------------------------------------------------------


 INCAR:
 POTCAR:    PAW_PBE C 08Apr2002                   
 POTCAR:    PAW_PBE N 08Apr2002                   
 POTCAR:    PAW_PBE H 15Jun2001                   
 POTCAR:    PAW_PBE Pb_d 06Sep2000                
 POTCAR:    PAW_PBE I 08Apr2002                   

 ----------------------------------------------------------------------------- 
|                                                                             |
|           W    W    AA    RRRRR   N    N  II  N    N   GGGG   !!!           |
|           W    W   A  A   R    R  NN   N  II  NN   N  G    G  !!!           |
|           W    W  A    A  R    R  N N  N  II  N N  N  G       !!!           |
|           W WW W  AAAAAA  RRRRR   N  N N  II  N  N N  G  GGG   !            |
|           WW  WW  A    A  R   R   N   NN  II  N   NN  G    G                |
|           W    W  A    A  R    R  N    N  II  N    N   GGGG   !!!           |
|                                                                             |
|      For optimal performance we recommend to set                            |
|        NCORE= 4 - approx SQRT( number of cores)                             |
|      NCORE specifies how many cores store one orbital (NPAR=cpu/NCORE).     |
|      This setting can  greatly improve the performance of VASP for DFT.     |
|      The default, NPAR=number of cores might be grossly inefficient         |
|      on modern multi-core architectures or massively parallel machines.     |
|      Do your own testing !!!!                                               |
|      Unfortunately you need to use the default for GW and RPA calculations. |
|      (for HF NCORE is supported but not extensively tested yet)             |
|                                                                             |
 ----------------------------------------------------------------------------- 


 ----------------------------------------------------------------------------- 
|                                                                             |
|           W    W    AA    RRRRR   N    N  II  N    N   GGGG   !!!           |
|           W    W   A  A   R    R  NN   N  II  NN   N  G    G  !!!           |
|           W    W  A    A  R    R  N N  N  II  N N  N  G       !!!           |
|           W WW W  AAAAAA  RRRRR   N  N N  II  N  N N  G  GGG   !            |
|           WW  WW  A    A  R   R   N   NN  II  N   NN  G    G                |
|           W    W  A    A  R    R  N    N  II  N    N   GGGG   !!!           |
|                                                                             |
|      You have enabled k-point parallelism (KPAR>1).                         |
|      This developmental code was originally  written by Paul Kent at ORNL,  |
|      and carefully double checked in Vienna.                                |
|      GW as well as linear response parallelism added by Martijn Marsman     |
|      and Georg Kresse.                                                      |
|      Carefully verify results versus KPAR=1.                                |
|      Report problems to Paul Kent and Vienna.                               |
|                                                                             |
 ----------------------------------------------------------------------------- 

 POTCAR:    PAW_PBE C 08Apr2002                   
   VRHFIN =C: s2p2                                                              
   LEXCH  = PE                                                                  
   EATOM  =   147.1560 eV,   10.8157 Ry                                         
                                                                                
   TITEL  = PAW_PBE C 08Apr2002                                                 
   LULTRA =        F    use ultrasoft PP ?                                      
   IUNSCR =        1    unscreen: 0-lin 1-nonlin 2-no                           
   RPACOR =    1.200    partial core radius                                     
   POMASS =   12.011; ZVAL   =    4.000    mass and valenz                      
   RCORE  =    1.500    outmost cutoff radius                                   
   RWIGS  =    1.630; RWIGS  =    0.863    wigner-seitz radius (au A)           
   ENMAX  =  400.000; ENMIN  =  300.000 eV                                      
   ICORE  =        2    local potential                                         
   LCOR   =        T    correct aug charges                                     
   LPAW   =        T    paw PP                                                  
   EAUG   =  644.873                                                            
   DEXC   =    0.000                                                            
   RMAX   =    1.529    core radius for proj-oper                               
   RAUG   =    1.300    factor for augmentation sphere                          
   RDEP   =    1.501    radius for radial grids                                 
   RDEPT  =    1.300    core radius for aug-charge                              
                                                                                
   Atomic configuration                                                         
    4 entries                                                                   
     n  l   j            E        occ.                                          
     1  0  0.50      -273.3789   2.0000                                         
     2  0  0.50       -13.7508   2.0000                                         
     2  1  0.50        -5.2854   2.0000                                         
     3  2  1.50        -5.4423   0.0000                                         
   Description                                                                  
     l       E           TYP  RCUT    TYP  RCUT                                 
     0    -13.7508458     23  1.200                                             
     0     -8.2022199     23  1.200                                             
     1     -5.2854383     23  1.500                                             
     1     34.0145650     23  1.500                                             
     2     -5.4423304      7  1.500                                             
  local pseudopotential read in
  partial core-charges read in
  partial kinetic energy density read in
  atomic valenz-charges read in
  non local Contribution for L=           0  read in
    real space projection operators read in
  non local Contribution for L=           0  read in
    real space projection operators read in
  non local Contribution for L=           1  read in
    real space projection operators read in
  non local Contribution for L=           1  read in
    real space projection operators read in
    PAW grid and wavefunctions read in
 
   number of l-projection  operators is LMAX  =           4
   number of lm-projection operators is LMMAX =           8
 
 POTCAR:    PAW_PBE N 08Apr2002                   
   VRHFIN =N: s2p3                                                              
   LEXCH  = PE                                                                  
   EATOM  =   264.5486 eV,   19.4438 Ry                                         
                                                                                
   TITEL  = PAW_PBE N 08Apr2002                                                 
   LULTRA =        F    use ultrasoft PP ?                                      
   IUNSCR =        1    unscreen: 0-lin 1-nonlin 2-no                           
   RPACOR =    1.200    partial core radius                                     
   POMASS =   14.001; ZVAL   =    5.000    mass and valenz                      
   RCORE  =    1.500    outmost cutoff radius                                   
   RWIGS  =    1.400; RWIGS  =    0.741    wigner-seitz radius (au A)           
   ENMAX  =  400.000; ENMIN  =  300.000 eV                                      
   ICORE  =        2    local potential                                         
   LCOR   =        T    correct aug charges                                     
   LPAW   =        T    paw PP                                                  
   EAUG   =  627.112                                                            
   DEXC   =    0.000                                                            
   RMAX   =    1.529    core radius for proj-oper                               
   RAUG   =    1.300    factor for augmentation sphere                          
   RDEP   =    1.514    radius for radial grids                                 
   RDEPT  =    1.338    core radius for aug-charge                              
                                                                                
   Atomic configuration                                                         
    4 entries                                                                   
     n  l   j            E        occ.                                          
     1  0  0.50      -384.7179   2.0000                                         
     2  0  0.50       -18.5828   2.0000                                         
     2  1  0.50        -7.0898   3.0000                                         
     3  2  1.50        -6.8029   0.0000                                         
   Description                                                                  
     l       E           TYP  RCUT    TYP  RCUT                                 
     0    -18.5828119     23  1.200                                             
     0    -13.5018863     23  1.200                                             
     1     -7.0897853     23  1.500                                             
     1      9.5240782     23  1.500                                             
     2     -6.8029130      7  1.500                                             
  local pseudopotential read in
  partial core-charges read in
  partial kinetic energy density read in
  atomic valenz-charges read in
  non local Contribution for L=           0  read in
    real space projection operators read in
  non local Contribution for L=           0  read in
    real space projection operators read in
  non local Contribution for L=           1  read in
    real space projection operators read in
  non local Contribution for L=           1  read in
    real space projection operators read in
    PAW grid and wavefunctions read in
 
   number of l-projection  operators is LMAX  =           4
   number of lm-projection operators is LMMAX =           8
 
 POTCAR:    PAW_PBE H 15Jun2001                   
   VRHFIN =H: ultrasoft test                                                    
   LEXCH  = PE                                                                  
   EATOM  =    12.4884 eV,    0.9179 Ry                                         
                                                                                
   TITEL  = PAW_PBE H 15Jun2001                                                 
   LULTRA =        F    use ultrasoft PP ?                                      
   IUNSCR =        0    unscreen: 0-lin 1-nonlin 2-no                           
   RPACOR =    0.000    partial core radius                                     
   POMASS =    1.000; ZVAL   =    1.000    mass and valenz                      
   RCORE  =    1.100    outmost cutoff radius                                   
   RWIGS  =    0.700; RWIGS  =    0.370    wigner-seitz radius (au A)           
   ENMAX  =  250.000; ENMIN  =  200.000 eV                                      
   RCLOC  =    0.701    cutoff for local pot                                    
   LCOR   =        T    correct aug charges                                     
   LPAW   =        T    paw PP                                                  
   EAUG   =  400.000                                                            
   RMAX   =    1.123    core radius for proj-oper                               
   RAUG   =    1.200    factor for augmentation sphere                          
   RDEP   =    1.112    radius for radial grids                                 
   RDEPT  =    0.926    core radius for aug-charge                              
                                                                                
   Atomic configuration                                                         
    2 entries                                                                   
     n  l   j            E        occ.                                          
     1  0  0.50        -6.4927   1.0000                                         
     2  1  0.50        -3.4015   0.0000                                         
   Description                                                                  
     l       E           TYP  RCUT    TYP  RCUT                                 
     0     -6.4927494     23  1.100                                             
     0      6.8029130     23  1.100                                             
     1     -4.0817478     23  1.100                                             
  local pseudopotential read in
  atomic valenz-charges read in
  non local Contribution for L=           0  read in
    real space projection operators read in
  non local Contribution for L=           0  read in
    real space projection operators read in
  non local Contribution for L=           1  read in
    real space projection operators read in
    PAW grid and wavefunctions read in
 
   number of l-projection  operators is LMAX  =           3
   number of lm-projection operators is LMMAX =           5
 
 POTCAR:    PAW_PBE Pb_d 06Sep2000                
   VRHFIN =Pb:                                                                  
   LEXCH  = PE                                                                  
   EATOM  =  1661.6185 eV,  122.1255 Ry                                         
                                                                                
   TITEL  = PAW_PBE Pb_d 06Sep2000                                              
   LULTRA =        F    use ultrasoft PP ?                                      
   IUNSCR =        1    unscreen: 0-lin 1-nonlin 2-no                           
   RPACOR =    2.200    partial core radius                                     
   POMASS =  207.200; ZVAL   =   14.000    mass and valenz                      
   RCORE  =    2.500    outmost cutoff radius                                   
   RWIGS  =    3.260; RWIGS  =    1.725    wigner-seitz radius (au A)           
   ENMAX  =  237.835; ENMIN  =  178.376 eV                                      
   ICORE  =        3    local potential                                         
   LCOR   =        T    correct aug charges                                     
   LPAW   =        T    paw PP                                                  
   EAUG   =  391.914                                                            
   DEXC   =    0.000                                                            
   RMAX   =    2.565    core radius for proj-oper                               
   RAUG   =    1.300    factor for augmentation sphere                          
   RDEP   =    2.643    radius for radial grids                                 
   RDEPT  =    2.092    core radius for aug-charge                              
                                                                                
   Atomic configuration                                                         
   16 entries                                                                   
     n  l   j            E        occ.                                          
     1  0  0.50    -88091.8466   2.0000                                         
     2  0  0.50    -15753.4197   2.0000                                         
     2  1  1.50    -13508.1797   6.0000                                         
     3  0  0.50     -3781.7194   2.0000                                         
     3  1  1.50     -3138.2529   6.0000                                         
     3  2  2.50     -2483.2977  10.0000                                         
     4  0  0.50      -856.2895   2.0000                                         
     4  1  1.50      -645.4942   6.0000                                         
     4  2  2.50      -401.8768  10.0000                                         
     4  3  3.50      -132.9059  14.0000                                         
     5  0  0.50      -144.0950   2.0000                                         
     5  1  1.50       -85.7879   6.0000                                         
     5  2  2.50       -21.1769  10.0000                                         
     6  0  0.50       -12.0372   2.0000                                         
     6  1  1.50        -3.4971   2.0000                                         
     5  3  2.50        -2.7212   0.0000                                         
   Description                                                                  
     l       E           TYP  RCUT    TYP  RCUT                                 
     2    -21.1768523     23  2.500                                             
     2      1.3605826     23  2.500                                             
     0    -12.0371562     23  2.500                                             
     0     13.6058260     23  2.500                                             
     1     -3.4971339     23  2.500                                             
     1     13.6058260     23  2.500                                             
     3     -1.3605826      7  2.500                                             
  local pseudopotential read in
  partial core-charges read in
  partial kinetic energy density read in
  atomic valenz-charges read in
  non local Contribution for L=           2  read in
    real space projection operators read in
  non local Contribution for L=           2  read in
    real space projection operators read in
  non local Contribution for L=           0  read in
    real space projection operators read in
  non local Contribution for L=           0  read in
    real space projection operators read in
  non local Contribution for L=           1  read in
    real space projection operators read in
  non local Contribution for L=           1  read in
    real space projection operators read in
    PAW grid and wavefunctions read in
 
   number of l-projection  operators is LMAX  =           6
   number of lm-projection operators is LMMAX =          18
 
 POTCAR:    PAW_PBE I 08Apr2002                   
   VRHFIN =I : s2p5                                                             
   LEXCH  = PE                                                                  
   EATOM  =   315.8678 eV,   23.2156 Ry                                         
                                                                                
   TITEL  = PAW_PBE I 08Apr2002                                                 
   LULTRA =        F    use ultrasoft PP ?                                      
   IUNSCR =        1    unscreen: 0-lin 1-nonlin 2-no                           
   RPACOR =    2.200    partial core radius                                     
   POMASS =  126.904; ZVAL   =    7.000    mass and valenz                      
   RCORE  =    2.300    outmost cutoff radius                                   
   RWIGS  =    2.810; RWIGS  =    1.487    wigner-seitz radius (au A)           
   ENMAX  =  175.647; ENMIN  =  131.735 eV                                      
   ICORE  =        3    local potential                                         
   LCOR   =        T    correct aug charges                                     
   LPAW   =        T    paw PP                                                  
   EAUG   =  370.139                                                            
   DEXC   =    0.000                                                            
   RMAX   =    2.359    core radius for proj-oper                               
   RAUG   =    1.300    factor for augmentation sphere                          
   RDEP   =    2.392    radius for radial grids                                 
   RDEPT  =    2.170    core radius for aug-charge                              
                                                                                
   Atomic configuration                                                         
   13 entries                                                                   
     n  l   j            E        occ.                                          
     1  0  0.50    -32976.3739   2.0000                                         
     2  0  0.50     -5094.5933   2.0000                                         
     2  1  1.50     -4572.0131   6.0000                                         
     3  0  0.50     -1028.2813   2.0000                                         
     3  1  1.50      -859.0250   6.0000                                         
     3  2  2.50      -605.7620  10.0000                                         
     4  0  0.50      -180.5540   2.0000                                         
     4  1  1.50      -127.5306   6.0000                                         
     4  2  2.50       -50.2720  10.0000                                         
     5  0  0.50       -17.4058   2.0000                                         
     5  1  0.50        -7.0851   5.0000                                         
     5  2  1.50        -7.0750   0.0000                                         
     4  3  2.50        -7.0750   0.0000                                         
   Description                                                                  
     l       E           TYP  RCUT    TYP  RCUT                                 
     0    -17.4058016     23  2.300                                             
     0    -18.7663842     23  2.300                                             
     1     -7.0850686     23  2.300                                             
     1     -4.2150896     23  2.300                                             
     2     -7.0750295     23  2.300                                             
     3     -1.3605826     23  2.300                                             
  local pseudopotential read in
  partial core-charges read in
  partial kinetic energy density read in
  atomic valenz-charges read in
  non local Contribution for L=           0  read in
    real space projection operators read in
  non local Contribution for L=           0  read in
    real space projection operators read in
  non local Contribution for L=           1  read in
    real space projection operators read in
  non local Contribution for L=           1  read in
    real space projection operators read in
  non local Contribution for L=           2  read in
    real space projection operators read in
    PAW grid and wavefunctions read in
 
   number of l-projection  operators is LMAX  =           5
   number of lm-projection operators is LMMAX =          13
 

 ----------------------------------------------------------------------------- 
|                                                                             |
|  ADVICE TO THIS USER RUNNING 'VASP/VAMP'   (HEAR YOUR MASTER'S VOICE ...):  |
|                                                                             |
|      You have a (more or less) 'large supercell' and for larger cells       |
|      it might be more efficient to use real space projection opertators     |
|      So try LREAL= Auto  in the INCAR   file.                               |
|      Mind: At the moment your POTCAR file does not contain real space       |
|       projectors, and has to be modified,  BUT if you                       |
|      want to do an extremely  accurate calculation you might also keep the  |
|      reciprocal projection scheme          (i.e. LREAL=.FALSE.)             |
|                                                                             |
 ----------------------------------------------------------------------------- 

  PAW_PBE C 08Apr2002                   :
 energy of atom  1       EATOM= -147.1560
 kinetic energy error for atom=    0.0032 (will be added to EATOM!!)
  PAW_PBE N 08Apr2002                   :
 energy of atom  2       EATOM= -264.5486
 kinetic energy error for atom=    0.0061 (will be added to EATOM!!)
  PAW_PBE H 15Jun2001                   :
 energy of atom  3       EATOM=  -12.4884
 kinetic energy error for atom=    0.0002 (will be added to EATOM!!)
  PAW_PBE Pb_d 06Sep2000                :
 energy of atom  4       EATOM=-1661.6185
 kinetic energy error for atom=    0.0012 (will be added to EATOM!!)
  PAW_PBE I 08Apr2002                   :
 energy of atom  5       EATOM= -315.8678
 kinetic energy error for atom=    0.0003 (will be added to EATOM!!)
 
 
 POSCAR: C N H Pb I                              
  positions in direct lattice
  No initial velocities read in
 exchange correlation table for  LEXCH =        8
   RHO(1)=    0.500       N(1)  =     2000
   RHO(2)=  100.500       N(2)  =     4000
 


--------------------------------------------------------------------------------------------------------


 ion  position               nearest neighbor table
   1  0.206  0.250  0.215-  33 1.10  25 1.10  17 1.11   9 1.50
   2  0.688  0.250  0.243-  34 1.10  26 1.10  18 1.11  10 1.49
   3  0.188  0.750  0.243-  35 1.10  27 1.10  19 1.11  11 1.49
   4  0.706  0.750  0.215-  36 1.10  28 1.10  20 1.11  12 1.50
   5  0.206  0.250  0.715-  37 1.10  29 1.10  21 1.11  13 1.50
   6  0.688  0.250  0.743-  38 1.10  30 1.10  22 1.11  14 1.49
   7  0.188  0.750  0.743-  39 1.10  31 1.10  23 1.11  15 1.49
   8  0.706  0.750  0.715-  40 1.10  32 1.10  24 1.11  16 1.50
   9  0.307  0.250  0.275-  57 1.05  41 1.05  49 1.05   1 1.50
  10  0.802  0.250  0.273-  42 1.05  50 1.05  58 1.06   2 1.49
  11  0.302  0.750  0.273-  43 1.05  51 1.05  59 1.06   3 1.49
  12  0.807  0.750  0.275-  60 1.05  44 1.05  52 1.05   4 1.50
  13  0.307  0.250  0.775-  61 1.05  45 1.05  53 1.05   5 1.50
  14  0.802  0.250  0.773-  46 1.05  54 1.05  62 1.06   6 1.49
  15  0.302  0.750  0.773-  47 1.05  55 1.05  63 1.06   7 1.49
  16  0.807  0.750  0.775-  64 1.05  48 1.05  56 1.05   8 1.50
  17  0.226  0.250  0.130-   1 1.11
  18  0.684  0.250  0.156-   2 1.11
  19  0.184  0.750  0.156-   3 1.11
  20  0.726  0.750  0.130-   4 1.11
  21  0.226  0.250  0.630-   5 1.11
  22  0.684  0.250  0.656-   6 1.11
  23  0.184  0.750  0.656-   7 1.11
  24  0.726  0.750  0.630-   8 1.11
  25  0.160  0.322  0.236-   1 1.10
  26  0.649  0.322  0.275-   2 1.10
  27  0.149  0.822  0.275-   3 1.10
  28  0.660  0.822  0.236-   4 1.10
  29  0.160  0.322  0.736-   5 1.10
  30  0.649  0.322  0.775-   6 1.10
  31  0.149  0.822  0.775-   7 1.10
  32  0.660  0.822  0.736-   8 1.10
  33  0.160  0.177  0.237-   1 1.10
  34  0.649  0.177  0.275-   2 1.10
  35  0.149  0.677  0.275-   3 1.10
  36  0.660  0.677  0.237-   4 1.10
  37  0.160  0.177  0.737-   5 1.10
  38  0.649  0.177  0.775-   6 1.10
  39  0.149  0.677  0.775-   7 1.10
  40  0.660  0.677  0.737-   8 1.10
  41  0.353  0.318  0.257-   9 1.05
  42  0.843  0.318  0.244-  10 1.05
  43  0.343  0.818  0.244-  11 1.05
  44  0.853  0.818  0.257-  12 1.05
  45  0.353  0.318  0.757-  13 1.05
  46  0.843  0.318  0.744-  14 1.05
  47  0.343  0.818  0.744-  15 1.05
  48  0.853  0.818  0.757-  16 1.05
  49  0.353  0.182  0.257-   9 1.05
  50  0.843  0.182  0.244-  10 1.05
  51  0.343  0.682  0.244-  11 1.05
  52  0.853  0.682  0.257-  12 1.05
  53  0.353  0.182  0.757-  13 1.05
  54  0.843  0.182  0.744-  14 1.05
  55  0.343  0.682  0.744-  15 1.05
  56  0.853  0.682  0.757-  16 1.05
  57  0.293  0.250  0.356-   9 1.05
  58  0.813  0.250  0.355-  10 1.06
  59  0.313  0.750  0.355-  11 1.06
  60  0.793  0.750  0.356-  12 1.05
  61  0.293  0.250  0.856-  13 1.05
  62  0.813  0.250  0.855-  14 1.06
  63  0.313  0.750  0.855-  15 1.06
  64  0.793  0.750  0.856-  16 1.05
  65  0.472  0.501  0.489-  90 3.10  85 3.14  77 3.17  87 3.18  73 3.22  89 3.28
  66  0.972  0.499  0.489-  89 3.10  88 3.14  78 3.17  86 3.18  74 3.22  90 3.28
  67  0.472  0.999  0.489-  92 3.10  85 3.14  79 3.17  87 3.18  75 3.22  91 3.28
  68  0.972  0.001  0.489-  91 3.10  88 3.14  80 3.17  86 3.18  76 3.22  92 3.28
  69  0.472  0.501  0.989-  94 3.10  81 3.14  73 3.17  83 3.18  77 3.22  93 3.28
  70  0.972  0.499  0.989-  93 3.10  84 3.14  74 3.17  82 3.18  78 3.22  94 3.28
  71  0.472  0.999  0.989-  96 3.10  81 3.14  75 3.17  83 3.18  79 3.22  95 3.28
  72  0.972  0.001  0.989-  95 3.10  84 3.14  76 3.17  82 3.18  80 3.22  96 3.28
  73  0.455  0.501  0.238-  69 3.17  65 3.22
  74  0.955  0.499  0.238-  70 3.17  66 3.22
  75  0.455  0.999  0.238-  71 3.17  67 3.22
  76  0.955  0.001  0.238-  72 3.17  68 3.22
  77  0.455  0.501  0.738-  65 3.17  69 3.22
  78  0.955  0.499  0.738-  66 3.17  70 3.22
  79  0.455  0.999  0.738-  67 3.17  71 3.22
  80  0.955  0.001  0.738-  68 3.17  72 3.22
  81  0.477  0.250  0.007-  71 3.14  69 3.14
  82  0.922  0.250  0.017-  72 3.18  70 3.18
  83  0.422  0.750  0.017-  69 3.18  71 3.18
  84  0.977  0.750  0.007-  70 3.14  72 3.14
  85  0.477  0.250  0.507-  67 3.14  65 3.14
  86  0.922  0.250  0.517-  68 3.18  66 3.18
  87  0.422  0.750  0.517-  65 3.18  67 3.18
  88  0.977  0.750  0.507-  66 3.14  68 3.14
  89  0.216  0.467  0.461-  66 3.10  65 3.28
  90  0.716  0.533  0.461-  65 3.10  66 3.28
  91  0.216  0.033  0.461-  68 3.10  67 3.28
  92  0.716  0.967  0.461-  67 3.10  68 3.28
  93  0.216  0.467  0.961-  70 3.10  69 3.28
  94  0.716  0.533  0.961-  69 3.10  70 3.28
  95  0.216  0.033  0.961-  72 3.10  71 3.28
  96  0.716  0.967  0.961-  71 3.10  72 3.28
 
  LATTYP: Found a triclinic cell.
 ALAT       =    17.8238589327
 B/A-ratio  =     0.6989248630
 C/A-ratio  =     1.0156975818
 COS(alpha) =     0.0001355172
 COS(beta)  =     0.5146378593
 COS(gamma) =     0.6988877578
  
  Lattice vectors:
  
 A1 = (  -0.1406063366, -12.4576271275, -12.7466742118)
 A2 = (  -0.0011956322, -12.4575380825,   0.0007464135)
 A3 = ( -12.7162481321,  -0.0020049566, -12.8856194186)


Analysis of symmetry for initial positions (statically):
=====================================================================
 Subroutine PRICEL returns following result:
 
  LATTYP: Found a triclinic cell.
 ALAT       =     8.8502626515
 B/A-ratio  =     1.4075896561
 C/A-ratio  =     0.7202149489
 COS(alpha) =     0.0000518785
 COS(beta)  =     0.0156138721
 COS(gamma) =     0.7036188608
  
  Lattice vectors:
  
 A1 = (  -6.2878208978,   6.2278110854,  -0.0694726034)
 A2 = (   0.0011956322,  12.4575380825,  -0.0007464135)
 A3 = (  -0.0697053522,  -0.0000445225,  -6.3737103126)
 
   4 primitive cells build up your supercell.
 

 Routine SETGRP: Setting up the symmetry group for a 
 triclinic supercell.


 Subroutine GETGRP returns: Found  1 space group operations
 (whereof  1 operations were pure point group operations)
 out of a pool of  2 trial point group operations.


The static configuration has the point symmetry C_1 .


Analysis of symmetry for dynamics (positions and initial velocities):
=====================================================================
 Subroutine PRICEL returns following result:
 
  LATTYP: Found a triclinic cell.
 ALAT       =     8.8502626515
 B/A-ratio  =     1.4075896561
 C/A-ratio  =     0.7202149489
 COS(alpha) =     0.0000518785
 COS(beta)  =     0.0156138721
 COS(gamma) =     0.7036188608
  
  Lattice vectors:
  
 A1 = (  -6.2878208978,   6.2278110854,  -0.0694726034)
 A2 = (   0.0011956322,  12.4575380825,  -0.0007464135)
 A3 = (  -0.0697053522,  -0.0000445225,  -6.3737103126)
 
   4 primitive cells build up your supercell.
 

 Routine SETGRP: Setting up the symmetry group for a 
 triclinic supercell.


 Subroutine GETGRP returns: Found  1 space group operations
 (whereof  1 operations were pure point group operations)
 out of a pool of  2 trial point group operations.


The dynamic configuration has the point symmetry C_1 .


 Subroutine INISYM returns: Found  1 space group operations
 (whereof  1 operations are pure point group operations),
 and found     4 'primitive' translations

 
 
 KPOINTS: Automatic 3x3x3                         

Automatic generation of k-mesh.
Space group operators:
 irot       det(A)        alpha          n_x          n_y          n_z        tau_x        tau_y        tau_z
    1     1.000000     0.000000     1.000000     0.000000     0.000000     0.000000     0.000000     0.000000
 
 Subroutine IBZKPT returns following result:
 ===========================================
 
 Found     14 irreducible k-points:
 
 Following reciprocal coordinates:
            Coordinates               Weight
  0.000000  0.000000  0.000000      1.000000
  0.333333 -0.000000 -0.000000      2.000000
  0.000000  0.333333 -0.000000      2.000000
  0.333333  0.333333  0.000000      2.000000
 -0.333333  0.333333  0.000000      2.000000
  0.000000  0.000000  0.333333      2.000000
  0.333333  0.000000  0.333333      2.000000
 -0.333333  0.000000  0.333333      2.000000
  0.000000  0.333333  0.333333      2.000000
  0.333333  0.333333  0.333333      2.000000
 -0.333333  0.333333  0.333333      2.000000
  0.000000 -0.333333  0.333333      2.000000
  0.333333 -0.333333  0.333333      2.000000
 -0.333333 -0.333333  0.333333      2.000000
 
 Following cartesian coordinates:
            Coordinates               Weight
  0.000000  0.000000  0.000000      1.000000
  0.026507 -0.000003 -0.000290      2.000000
 -0.000004  0.026758 -0.000000      2.000000
  0.026503  0.026755 -0.000290      2.000000
 -0.026511  0.026760  0.000290      2.000000
 -0.000287  0.000002  0.026152      2.000000
  0.026220 -0.000001  0.025862      2.000000
 -0.026794  0.000004  0.026442      2.000000
 -0.000291  0.026759  0.026152      2.000000
  0.026215  0.026757  0.025862      2.000000
 -0.026798  0.026762  0.026442      2.000000
 -0.000283 -0.026756  0.026152      2.000000
  0.026224 -0.026759  0.025862      2.000000
 -0.026790 -0.026753  0.026442      2.000000
 
 
 Subroutine IBZKPT_HF returns following result:
 ==============================================
 
 Found     27 k-points in 1st BZ
 the following     27 k-points will be used (e.g. in the exchange kernel)
 Following reciprocal coordinates:   # in IRBZ
  0.000000  0.000000  0.000000    0.03703704   1 t-inv F
  0.333333 -0.000000 -0.000000    0.03703704   2 t-inv F
  0.000000  0.333333 -0.000000    0.03703704   3 t-inv F
  0.333333  0.333333  0.000000    0.03703704   4 t-inv F
 -0.333333  0.333333  0.000000    0.03703704   5 t-inv F
  0.000000  0.000000  0.333333    0.03703704   6 t-inv F
  0.333333  0.000000  0.333333    0.03703704   7 t-inv F
 -0.333333  0.000000  0.333333    0.03703704   8 t-inv F
  0.000000  0.333333  0.333333    0.03703704   9 t-inv F
  0.333333  0.333333  0.333333    0.03703704  10 t-inv F
 -0.333333  0.333333  0.333333    0.03703704  11 t-inv F
  0.000000 -0.333333  0.333333    0.03703704  12 t-inv F
  0.333333 -0.333333  0.333333    0.03703704  13 t-inv F
 -0.333333 -0.333333  0.333333    0.03703704  14 t-inv F
 -0.333333  0.000000  0.000000    0.03703704   2 t-inv T
 -0.000000 -0.333333  0.000000    0.03703704   3 t-inv T
 -0.333333 -0.333333 -0.000000    0.03703704   4 t-inv T
  0.333333 -0.333333 -0.000000    0.03703704   5 t-inv T
 -0.000000  0.000000 -0.333333    0.03703704   6 t-inv T
 -0.333333 -0.000000 -0.333333    0.03703704   7 t-inv T
  0.333333 -0.000000 -0.333333    0.03703704   8 t-inv T
 -0.000000 -0.333333 -0.333333    0.03703704   9 t-inv T
 -0.333333 -0.333333 -0.333333    0.03703704  10 t-inv T
  0.333333 -0.333333 -0.333333    0.03703704  11 t-inv T
 -0.000000  0.333333 -0.333333    0.03703704  12 t-inv T
 -0.333333  0.333333 -0.333333    0.03703704  13 t-inv T
  0.333333  0.333333 -0.333333    0.03703704  14 t-inv T


--------------------------------------------------------------------------------------------------------




 Dimension of arrays:
   k-points           NKPTS =     14   k-points in BZ     NKDIM =     27   number of bands    NBANDS=    256
   number of dos      NEDOS =    301   number of ions     NIONS =     96
   non local maximal  LDIM  =      6   non local SUM 2l+1 LMDIM =     18
   total plane-waves  NPLWV = ******
   max r-space proj   IRMAX =      1   max aug-charges    IRDMAX= 314103
   dimension x,y,z NGX =   112 NGY =  108 NGZ =  112
   dimension x,y,z NGXF=   224 NGYF=  216 NGZF=  224
   support grid    NGXF=   448 NGYF=  432 NGZF=  448
   ions per type =               8   8  48   8  24
 NGX,Y,Z   is equivalent  to a cutoff of  14.80, 14.41, 14.61 a.u.
 NGXF,Y,Z  is equivalent  to a cutoff of  29.61, 28.83, 29.21 a.u.


 I would recommend the setting:
   dimension x,y,z NGX =   109 NGY =  107 NGZ =  110
 SYSTEM =  MAPbI3-Cubic                            
 POSCAR =  C N H Pb I                              

 Startparameter for this run:
   NWRITE =      2    write-flag & timer
   PREC   = accura    normal or accurate (medium, high low for compatibility)
   ISTART =      0    job   : 0-new  1-cont  2-samecut
   ICHARG =      2    charge: 1-file 2-atom 10-const
   ISPIN  =      1    spin polarized calculation?
   LNONCOLLINEAR =      F non collinear calculations
   LSORBIT =      F    spin-orbit coupling
   INIWAV =      1    electr: 0-lowe 1-rand  2-diag
   LASPH  =      F    aspherical Exc in radial PAW
   METAGGA=      F    non-selfconsistent MetaGGA calc.

 Electronic Relaxation 1
   ENCUT  =  700.0 eV  51.45 Ry    7.17 a.u.  27.13 26.87 27.50*2*pi/ulx,y,z
   ENINI  =  700.0     initial cutoff
   ENAUG  =  644.9 eV  augmentation charge cutoff
   NELM   =     60;   NELMIN=  2; NELMDL= -5     # of ELM steps 
   EDIFF  = 0.1E-07   stopping-criterion for ELM
   LREAL  =      F    real-space projection
   NLSPLINE    = F    spline interpolate recip. space projectors
   LCOMPAT=      F    compatible to vasp.4.4
   GGA_COMPAT  = T    GGA compatible to vasp.4.4-vasp.4.6
   LMAXPAW     = -100 max onsite density
   LMAXMIX     =    2 max onsite mixed and CHGCAR
   VOSKOWN=      0    Vosko Wilk Nusair interpolation
   ROPT   =    0.00000   0.00000   0.00000   0.00000
   ROPT   =    0.00000
 Ionic relaxation
   EDIFFG = 0.1E-06   stopping-criterion for IOM
   NSW    =      0    number of steps for IOM
   NBLOCK =      1;   KBLOCK =      1    inner block; outer block 
   IBRION =     -1    ionic relax: 0-MD 1-quasi-New 2-CG
   NFREE  =      0    steps in history (QN), initial steepest desc. (CG)
   ISIF   =      2    stress and relaxation
   IWAVPR =     10    prediction:  0-non 1-charg 2-wave 3-comb
   ISYM   =      3    0-nonsym 1-usesym 2-fastsym
   LCORR  =      T    Harris-Foulkes like correction to forces

   POTIM  = 0.5000    time-step for ionic-motion
   TEIN   =    0.0    initial temperature
   TEBEG  =    0.0;   TEEND  =   0.0 temperature during run
   SMASS  =  -3.00    Nose mass-parameter (am)
   estimated Nose-frequenzy (Omega)   =  0.10E-29 period in steps =****** mass=  -0.362E-26a.u.
   SCALEE = 1.0000    scale energy and forces
   NPACO  =    256;   APACO  = 16.0  distance and # of slots for P.C.
   PSTRESS=    0.0 pullay stress

  Mass of Ions in am
   POMASS =  12.01 14.00  1.00207.20126.90
  Ionic Valenz
   ZVAL   =   4.00  5.00  1.00 14.00  7.00
  Atomic Wigner-Seitz radii
   RWIGS  =  -1.00 -1.00 -1.00 -1.00 -1.00
  virtual crystal weights 
   VCA    =   1.00  1.00  1.00  1.00  1.00
   NELECT =     400.0000    total number of electrons
   NUPDOWN=      -1.0000    fix difference up-down

 DOS related values:
   EMIN   =  10.00;   EMAX   =-10.00  energy-range for DOS
   EFERMI =   0.00
   ISMEAR =     0;   SIGMA  =   0.00  broadening in eV -4-tet -1-fermi 0-gaus

 Electronic relaxation 2 (details)
   IALGO  =     58    algorithm
   LDIAG  =      T    sub-space diagonalisation (order eigenvalues)
   LSUBROT=      F    optimize rotation matrix (better conditioning)
   TURBO    =      0    0=normal 1=particle mesh
   IRESTART =      0    0=no restart 2=restart with 2 vectors
   NREBOOT  =      0    no. of reboots
   NMIN     =      0    reboot dimension
   EREF     =   0.00    reference energy to select bands
   IMIX   =      4    mixing-type and parameters
     AMIX     =   0.40;   BMIX     =  1.00
     AMIX_MAG =   1.60;   BMIX_MAG =  1.00
     AMIN     =   0.10
     WC   =   100.;   INIMIX=   1;  MIXPRE=   1;  MAXMIX= -45

 Intra band minimization:
   WEIMIN = 0.0000     energy-eigenvalue tresh-hold
   EBREAK =  0.98E-11  absolut break condition
   DEPER  =   0.30     relativ break condition  

   TIME   =   0.40     timestep for ELM

  volume/ion in A,a.u.               =      20.80       140.38
  Fermi-wavevector in a.u.,A,eV,Ry     =   0.957863  1.810099 12.483376  0.917502
  Thomas-Fermi vector in A             =   2.086919
 
 Write flags
   LWAVE  =      F    write WAVECAR
   LCHARG =      F    write CHGCAR
   LVTOT  =      F    write LOCPOT, total local potential
   LVHAR  =      F    write LOCPOT, Hartree potential only
   LELF   =      F    write electronic localiz. function (ELF)
   LORBIT =      0    0 simple, 1 ext, 2 COOP (PROOUT)


 Dipole corrections
   LMONO  =      F    monopole corrections only (constant potential shift)
   LDIPOL =      F    correct potential (dipole corrections)
   IDIPOL =      0    1-x, 2-y, 3-z, 4-all directions 
   EPSILON=  1.0000000 bulk dielectric constant

 Core level calculations are selected ICORELEVEL =  1
 Exchange correlation treatment:
   GGA     =    PE    GGA type
   LEXCH   =     8    internal setting for exchange type
   VOSKOWN=      0    Vosko Wilk Nusair interpolation
   EXXOEP  =     0    0=HF, 1=EXX-LHF (local Hartree Fock) 2=EXX OEP
   LHFCALC =     T    Hartree Fock is set to
   LSYMGRAD=     F    symmetrize gradient (conserves proper symmetry)
   PRECFOCK=fast      Normal, Fast or Accurate (Low or Medium for compatibility)
   LRHFCALC=     F    long range Hartree Fock
   LRSCOR  =     F    long range correlation only (use DFT for short range part)
   LTHOMAS =     F    Thomas Fermi screening in HF
   LMODELHF=     F    short range full HF, long range fraction AEXX
   ENCUT4O =  -1.0   cutoff for four orbital integrals eV
   LMAXFOCK=     4    L truncation for augmentation on plane wave grid
   LMAXFOCKAE=  -1    L truncation for all-electron charge restoration on plane wave grid
   NMAXFOCKAE=   1    number of basis functions for all-electron charge restoration
   LFOCKAEDFT=     F  apply the AE augmentation even for DFT
   NKREDX  =     1    reduce k-point grid by
   NKREDY  =     1    reduce k-point grid by
   NKREDZ  =     1    reduce k-point grid by
   SHIFTRED=     F    shift reduced grid of Gamma
   HFKIDENT=     F    idential grid for each k-point
   ODDONLY =     F    use only odd q-grid points
   EVENONLY=     F    use only even q-grid points
   HFALPHA =   -1.0000 decay constant for conv. correction
   MCALPHA =    0.0000 extent of test-charge in conv. correction in multipole expansion
   AEXX    =    0.2500 exact exchange contribution
   HFSCREEN=    0.2070 screening length (either q_TF or 0.3 A-1)
   HFSCREENC=   0.2070 screening length for correlation (either q_TF or 0.3 A-1)
   HFRCUT  =    0.0000 spherical cutoff for potential kernel
   ALDAX   =    0.7500 LDA exchange part
   AGGAX   =    0.7500 GGA exchange part
   ALDAC   =    1.0000 LDA correlation
   AGGAC   =    1.0000 GGA correlation
   NBANDSGWLOW=     1    first orbital included in HF term
   ENCUTFOCK=  -1.0 apply spherical cutoff to Coloumb kernel
 Linear response parameters
   LEPSILON=     F    determine dielectric tensor
   LRPA    =     F    only Hartree local field effects (RPA)
   LNABLA  =     F    use nabla operator in PAW spheres
   LVEL    =     F    velocity operator in full k-point grid
   LINTERFAST=   F  fast interpolation
   KINTER  =     0    interpolate to denser k-point grid
   CSHIFT  =0.1000    complex shift for real part using Kramers Kronig
   OMEGAMAX=  -1.0    maximum frequency
   DEG_THRESHOLD= 0.2000000E-02 threshold for treating states as degnerate
   RTIME   =    0.100 relaxation time in fs

 Orbital magnetization related:
   ORBITALMAG=     F  switch on orbital magnetization
   LCHIMAG   =     F  perturbation theory with respect to B field
   DQ        =  0.001000  dq finite difference perturbation B field



--------------------------------------------------------------------------------------------------------


 Static calculation
 charge density and potential will be updated during run
 non-spin polarized calculation
 Conjugate gradient for all bands (Freysoldt, et al. PRB 79, 241103 (2009))
 preconditioned conjugated gradient                                        
 perform sub-space diagonalisation
    before iterative eigenvector-optimisation
 modified Broyden-mixing scheme, WC =      100.0
 initial mixing is a Kerker type mixing with AMIX =  0.4000 and BMIX =      1.0000
 Hartree-type preconditioning will be used
 using additional bands           56
 reciprocal scheme for non local part
 use partial core corrections
 no Harris-corrections to forces 
 use gradient corrections 
 use of overlap-Matrix (Vanderbilt PP)
 Gauss-broadening in eV      SIGMA  =   0.00


--------------------------------------------------------------------------------------------------------


  energy-cutoff  :      700.00
  volume of cell :     1996.98
      direct lattice vectors                 reciprocal lattice vectors
    12.576837428  0.001915912  0.138198793     0.079520802 -0.000007684 -0.000869670
     0.001195632 12.457538083 -0.000746413    -0.000012224  0.080272684 -0.000000427
     0.139410704  0.000089045 12.747420625    -0.000862111  0.000004784  0.078456671

  length of vectors
    12.577596840 12.457538162 12.748182927     0.079525558  0.080272685  0.078461408


 
 k-points in units of 2pi/SCALE and weight: Automatic 3x3x3                         
   0.00000000  0.00000000  0.00000000       0.037
   0.02650693 -0.00000256 -0.00028989       0.074
  -0.00000407  0.02675756 -0.00000014       0.074
   0.02650286  0.02675500 -0.00029003       0.074
  -0.02651101  0.02676012  0.00028975       0.074
  -0.00028737  0.00000159  0.02615222       0.074
   0.02621956 -0.00000097  0.02586233       0.074
  -0.02679430  0.00000416  0.02644211       0.074
  -0.00029144  0.02675916  0.02615208       0.074
   0.02621549  0.02675659  0.02586219       0.074
  -0.02679838  0.02676172  0.02644197       0.074
  -0.00028330 -0.02675597  0.02615237       0.074
   0.02622364 -0.02675853  0.02586248       0.074
  -0.02679023 -0.02675341  0.02644226       0.074
 
 k-points in reciprocal lattice and weights: Automatic 3x3x3                         
   0.00000000  0.00000000  0.00000000       0.037
   0.33333333 -0.00000000 -0.00000000       0.074
   0.00000000  0.33333333 -0.00000000       0.074
   0.33333333  0.33333333  0.00000000       0.074
  -0.33333333  0.33333333  0.00000000       0.074
   0.00000000  0.00000000  0.33333333       0.074
   0.33333333  0.00000000  0.33333333       0.074
  -0.33333333  0.00000000  0.33333333       0.074
   0.00000000  0.33333333  0.33333333       0.074
   0.33333333  0.33333333  0.33333333       0.074
  -0.33333333  0.33333333  0.33333333       0.074
   0.00000000 -0.33333333  0.33333333       0.074
   0.33333333 -0.33333333  0.33333333       0.074
  -0.33333333 -0.33333333  0.33333333       0.074
 
 position of ions in fractional coordinates (direct lattice) 
   0.20573983  0.24994474  0.21529415
   0.68824844  0.24987181  0.24253656
   0.18824844  0.74987181  0.24253656
   0.70573983  0.74994474  0.21529415
   0.20573983  0.24994474  0.71529415
   0.68824844  0.24987181  0.74253656
   0.18824844  0.74987181  0.74253656
   0.70573983  0.74994474  0.71529415
   0.30694395  0.25003131  0.27465476
   0.80213049  0.24997597  0.27311384
   0.30213049  0.74997597  0.27311384
   0.80694395  0.75003131  0.27465476
   0.30694395  0.25003131  0.77465476
   0.80213049  0.24997597  0.77311384
   0.30213049  0.74997597  0.77311384
   0.80694395  0.75003131  0.77465476
   0.22565376  0.24981994  0.13009495
   0.68449658  0.24982226  0.15568230
   0.18449658  0.74982226  0.15568230
   0.72565376  0.74981994  0.13009495
   0.22565376  0.24981994  0.63009495
   0.68449658  0.24982226  0.65568230
   0.18449658  0.74982226  0.65568230
   0.72565376  0.74981994  0.63009495
   0.15980416  0.32248824  0.23643051
   0.64887145  0.32221613  0.27460013
   0.14887145  0.82221613  0.27460013
   0.65980416  0.82248824  0.23643051
   0.15980416  0.32248824  0.73643051
   0.64887145  0.32221613  0.77460013
   0.14887145  0.82221613  0.77460013
   0.65980416  0.82248824  0.73643051
   0.15985367  0.17745519  0.23663038
   0.64903200  0.17749696  0.27467103
   0.14903200  0.67749696  0.27467103
   0.65985367  0.67745519  0.23663038
   0.15985367  0.17745519  0.73663038
   0.64903200  0.17749696  0.77467103
   0.14903200  0.67749696  0.77467103
   0.65985367  0.67745519  0.73663038
   0.35331049  0.31816596  0.25725915
   0.84295866  0.31758261  0.24425383
   0.34295866  0.81758261  0.24425383
   0.85331049  0.81816596  0.25725915
   0.35331049  0.31816596  0.75725915
   0.84295866  0.31758261  0.74425383
   0.34295866  0.81758261  0.74425383
   0.85331049  0.81816596  0.75725915
   0.35332729  0.18182575  0.25746082
   0.84308331  0.18238402  0.24432098
   0.34308331  0.68238402  0.24432098
   0.85332729  0.68182575  0.25746082
   0.35332729  0.18182575  0.75746082
   0.84308331  0.18238402  0.74432098
   0.34308331  0.68238402  0.74432098
   0.85332729  0.68182575  0.75746082
   0.29334873  0.25016912  0.35599889
   0.81299142  0.25001792  0.35521960
   0.31299142  0.75001792  0.35521960
   0.79334873  0.75016912  0.35599889
   0.29334873  0.25016912  0.85599889
   0.81299142  0.25001792  0.85521960
   0.31299142  0.75001792  0.85521960
   0.79334873  0.75016912  0.85599889
   0.47244944  0.50141593  0.48880955
   0.97243411  0.49856366  0.48881335
   0.47243411  0.99856366  0.48881335
   0.97244944  0.00141593  0.48880955
   0.47244944  0.50141593  0.98880955
   0.97243411  0.49856366  0.98881335
   0.47243411  0.99856366  0.98881335
   0.97244944  0.00141593  0.98880955
   0.45476493  0.50075041  0.23756822
   0.95472242  0.49923169  0.23757726
   0.45472242  0.99923169  0.23757726
   0.95476493  0.00075041  0.23756822
   0.45476493  0.50075041  0.73756822
   0.95472242  0.49923169  0.73757726
   0.45472242  0.99923169  0.73757726
   0.95476493  0.00075041  0.73756822
   0.47710730  0.24997358  0.00666962
   0.92216358  0.24998444  0.01699482
   0.42216358  0.74998444  0.01699482
   0.97710730  0.74997358  0.00666962
   0.47710730  0.24997358  0.50666962
   0.92216358  0.24998444  0.51699482
   0.42216358  0.74998444  0.51699482
   0.97710730  0.74997358  0.50666962
   0.21617807  0.46720793  0.46123970
   0.71616481  0.53278694  0.46123971
   0.21616481  0.03278694  0.46123971
   0.71617807  0.96720793  0.46123970
   0.21617807  0.46720793  0.96123970
   0.71616481  0.53278694  0.96123971
   0.21616481  0.03278694  0.96123971
   0.71617807  0.96720793  0.96123970
 
 position of ions in cartesian coordinates  (Angst):
   2.61786949  3.11410951  2.77269150
   8.69009968  3.11412777  3.18664415
   2.40227878  9.34193886  3.11717154
   8.90688602  9.34383650  2.84141769
   2.68757484  3.11415403  9.14640181
   8.75980503  3.11417229  9.56035446
   2.47198414  9.34198338  9.49088186
   8.97659137  9.34388103  9.21512800
   3.89897295  3.11538707  3.54337237
  10.12663858  3.11564634  3.59216382
   3.83881768  9.34345742  3.52269122
  10.18798948  9.34511407  3.61209856
   3.96867830  3.11543160  9.91708269
  10.19634393  3.11569086  9.96587414
   3.90852303  9.34350195  9.89640153
  10.25769483  9.34515859  9.98580888
   2.85644596  3.11258530  1.68937363
   8.63080463  3.11349556  2.07895795
   2.34298373  9.34130665  2.00948534
   9.14546249  9.34231229  1.75809982
   2.92615131  3.11262982  8.06308394
   8.70050998  3.11354008  8.45266826
   2.41268908  9.34135117  8.38319566
   9.21516784  9.34235681  8.13181013
   2.04317750  4.01773675  3.03572320
   8.19941819  4.01528739  3.58987608
   1.91159730 10.24309848  3.52040347
   8.33219403 10.24746374  3.10444939
   2.11288285  4.01778127  9.40943351
   8.26912355  4.01533191  9.96358639
   1.98130265 10.24314300  9.89411379
   8.40189938 10.24750827  9.47815970
   2.04365458  2.21098206  3.03838615
   8.20127423  2.21244311  3.59091012
   1.91345334  8.44025419  3.52143752
   8.33267111  8.44070906  3.10711234
   2.11335994  2.21102659  9.41209646
   8.27097959  2.21248763  9.96462043
   1.98315869  8.44029871  9.89514783
   8.40237647  8.44075358  9.48082265
   4.47977369  3.96426433  3.32798020
  10.63618539  3.95793424  3.22986515
   4.34836449 10.18574532  3.16039255
  10.76879022 10.19399133  3.39670639
   4.54947905  3.96430886  9.70169052
  10.70589074  3.95797876  9.60357546
   4.41806984 10.18578985  9.53410286
  10.83849558 10.19403585  9.77041671
   4.47985008  2.26580114  3.33065501
  10.63760075  2.27369290  3.23083930
   4.34977985  8.50150399  3.16136670
  10.76886661  8.49552813  3.39938120
   4.54955544  2.26584566  9.70436532
  10.70730610  2.27373743  9.60454961
   4.41948520  8.50154851  9.53507701
  10.83857197  8.49557266  9.77309151
   3.73932841  3.11708512  4.57842127
  10.27468125  3.11619700  4.64030149
   3.98686035  9.34400809  4.57082889
  10.02834494  9.34681212  4.64714746
   3.80903377  3.11712965 10.95213159
  10.34438660  3.11624152 11.01401181
   4.05656571  9.34405261 10.94453920
  10.09805030  9.34685664 11.02085778
   6.01066463  6.24735670  6.29597857
  12.29888761  6.21278244  6.36512644
   6.01106671 12.44059353  6.29565384
  12.29848553  0.01954562  6.36545117
   6.08036998  6.24740122 12.66968888
  12.36859296  6.21282696 12.73883675
   6.08077207 12.44063805 12.66936415
  12.36819088  0.01959014 12.73916148
   5.75322281  6.23900979  3.09085626
  12.04110641  6.22104806  3.16006614
   5.75328551 12.44885914  3.09059353
  12.04104370  0.01119870  3.16032886
   5.82292816  6.23905431  9.46456657
  12.11081176  6.22109258  9.53377645
   5.82299087 12.44890366  9.46430385
  12.11074906  0.01124322  9.53403917
   6.00172968  3.11497013  0.15076950
  11.60056953  3.11595894  0.34389538
   5.31274863  9.34377003  0.27442278
  12.29074621  9.34469713  0.21949569
   6.07143503  3.11501465  6.52447982
  11.67027488  3.11600347  6.71760569
   5.38245398  9.34381455  6.64813309
  12.36045156  9.34474165  6.59320601
   2.78369680  5.82071586  5.90914324
   9.07202712  6.63862678  5.97819198
   2.78301059  0.40889978  5.90946579
   9.07271333 12.05044286  5.97786943
   2.85340215  5.82076038 12.28285356
   9.14173247  6.63867130 12.35190230
   2.85271594  0.40894430 12.28317611
   9.14241868 12.05048738 12.35157975
 


--------------------------------------------------------------------------------------------------------


 k-point  1 :   0.0000 0.0000 0.0000  plane waves:   84007
 k-point  2 :   0.3333-0.0000-0.0000  plane waves:   84003
 k-point  3 :   0.0000 0.3333-0.0000  plane waves:   83995
 k-point  4 :   0.3333 0.3333 0.0000  plane waves:   84018
 k-point  5 :  -0.3333 0.3333 0.0000  plane waves:   84019
 k-point  6 :   0.0000 0.0000 0.3333  plane waves:   83960
 k-point  7 :   0.3333 0.0000 0.3333  plane waves:   83937
 k-point  8 :  -0.3333 0.0000 0.3333  plane waves:   83982
 k-point  9 :   0.0000 0.3333 0.3333  plane waves:   83984
 k-point 10 :   0.3333 0.3333 0.3333  plane waves:   84012
 k-point 11 :  -0.3333 0.3333 0.3333  plane waves:   83970
 k-point 12 :   0.0000-0.3333 0.3333  plane waves:   83977
 k-point 13 :   0.3333-0.3333 0.3333  plane waves:   84013
 k-point 14 :  -0.3333-0.3333 0.3333  plane waves:   83973

 maximum and minimum number of plane-waves per node :      7062     6951

 maximum number of plane-waves:     84019
 maximum index in each direction: 
   IXMAX=   27   IYMAX=   27   IZMAX=   27
   IXMIN=  -27   IYMIN=  -27   IZMIN=  -27

 NGX is ok and might be reduce to 110
 WARNING: aliasing errors must be expected set NGY to 110 to avoid them
 NGZ is ok and might be reduce to 110
 aliasing errors are usually negligible using standard VASP settings
 and one can safely disregard these warnings

 parallel 3D FFT for wavefunctions:
    minimum data exchange during FFTs selected (reduces bandwidth)
 parallel 3D FFT for charge:
    minimum data exchange during FFTs selected (reduces bandwidth)


 FFT grid for exact exchange (Hartree Fock) 
  NGX = 56; NGY = 56; NGZ = 60

 
 Radii for the augmentation spheres in the non-local exchange
 for species   1 augmentation radius   0.944 (default was   0.699)
       energy cutoff for augmentation   2800.0
 for species   2 augmentation radius   0.957 (default was   0.709)
       energy cutoff for augmentation   2800.0
 for species   3 augmentation radius   0.702 (default was   0.520)
       energy cutoff for augmentation   2800.0
 for species   4 augmentation radius   1.558 (default was   1.154)
       energy cutoff for augmentation   2800.0
 for species   5 augmentation radius   1.603 (default was   1.188)
       energy cutoff for augmentation   2800.0

 real space projection operators:
  total allocation   :      10782.94 KBytes
  max/ min on nodes  :       1208.88        487.59

 Maximum index for augmentation-charges in exchange          233
  SETUP_FOCK is finished

 total amount of memory used by VASP on root node   222690. kBytes
========================================================================

   base      :      30000. kBytes
   nonl-proj :      82891. kBytes
   fftplans  :      15020. kBytes
   grid      :      12652. kBytes
   one-center:        124. kBytes
   HF        :        259. kBytes
   nonlr-proj:       4158. kBytes
   wavefun   :      77586. kBytes
 
     INWAV:  cpu time    0.0000: real time    0.0002
 Broyden mixing: mesh for mixing (old mesh)
   NGX = 55   NGY = 53   NGZ = 55
  (NGX  =224   NGY  =216   NGZ  =224)
  gives a total of 160325 points

 initial charge density was supplied:
 charge density of overlapping atoms calculated
 number of electron     400.0000000 magnetization 
 keeping initial charge density in first step


--------------------------------------------------------------------------------------------------------


 Maximum index for augmentation-charges         5369 (set IRDMAX)


--------------------------------------------------------------------------------------------------------


 First call to EWALD:  gamma=   0.141
 Maximum number of real-space cells 3x 3x 3
 Maximum number of reciprocal cells 3x 3x 3

 FEWALD executed in parallel
    FEWALD:  cpu time    0.0160: real time    0.0156


----------------------------------------- Iteration    1(   1)  ---------------------------------------


    POTLOK:  cpu time    0.2600: real time    0.2587
    SETDIJ:  cpu time    0.6040: real time    0.6065
    TRIAL :  cpu time    4.3723: real time    4.3745
    CORREC:  cpu time    0.0000: real time    0.0020
    --------------------------------------------
      LOOP:  cpu time    5.2723: real time    5.3049

 eigenvalue-minimisations  : 11648
 total energy-change (2. order) : 0.3510884E+05  (-0.1134349E+06)
 number of electron     400.0000000 magnetization 
 augmentation part      400.0000000 magnetization 

 Free energy of the ion-electron system (eV)
  ---------------------------------------------------
  alpha Z        PSCENC =       370.05370877
  Ewald energy   TEWEN  =    -15569.67885133
  -Hartree energ DENC   =     -8089.50152466
  -exchange      EXHF   =         0.00000000
  -V(xc)+E(xc)   XCENC  =       254.20553738
  PAW double counting   =     20708.16285019   -20051.16882790
  entropy T*S    EENTRO =        -0.00004179
  eigenvalues    EBANDS =     32806.34600153
  atomic energy  EATOM  =     24680.42500649
  ---------------------------------------------------
  free energy    TOTEN  =     35108.84385867 eV

  energy without entropy =    35108.84390046  energy(sigma->0) =    35108.84387956
  exchange ACFDT corr.  =         0.00000000  see jH, gK, PRB 81, 115126


--------------------------------------------------------------------------------------------------------




----------------------------------------- Iteration    1(   2)  ---------------------------------------


    TRIAL :  cpu time    3.3642: real time    3.3678
    CORREC:  cpu time    0.0000: real time    0.0021
    --------------------------------------------
      LOOP:  cpu time    3.3682: real time    3.3994

 eigenvalue-minimisations  :  8528
 total energy-change (2. order) :-0.2638425E+05  (-0.2567582E+05)
 number of electron     400.0000000 magnetization 
 augmentation part      400.0000000 magnetization 

 Free energy of the ion-electron system (eV)
  ---------------------------------------------------
  alpha Z        PSCENC =       370.05370877
  Ewald energy   TEWEN  =    -15569.67885133
  -Hartree energ DENC   =     -8089.50152466
  -exchange      EXHF   =         0.00000000
  -V(xc)+E(xc)   XCENC  =       254.20553738
  PAW double counting   =     20708.16285019   -20051.16882790
  entropy T*S    EENTRO =        -0.00004307
  eigenvalues    EBANDS =      6422.09942853
  atomic energy  EATOM  =     24680.42500649
  ---------------------------------------------------
  free energy    TOTEN  =      8724.59728439 eV

  energy without entropy =     8724.59732746  energy(sigma->0) =     8724.59730593
  exchange ACFDT corr.  =         0.00000000  see jH, gK, PRB 81, 115126


--------------------------------------------------------------------------------------------------------




----------------------------------------- Iteration    1(   3)  ---------------------------------------


    TRIAL :  cpu time    3.5362: real time    3.5421
    CORREC:  cpu time    0.0040: real time    0.0010
    --------------------------------------------
      LOOP:  cpu time    3.5442: real time    3.5611

 eigenvalue-minimisations  :  9024
 total energy-change (2. order) :-0.6917427E+04  (-0.6812493E+04)
 number of electron     400.0000000 magnetization 
 augmentation part      400.0000000 magnetization 

 Free energy of the ion-electron system (eV)
  ---------------------------------------------------
  alpha Z        PSCENC =       370.05370877
  Ewald energy   TEWEN  =    -15569.67885133
  -Hartree energ DENC   =     -8089.50152466
  -exchange      EXHF   =         0.00000000
  -V(xc)+E(xc)   XCENC  =       254.20553738
  PAW double counting   =     20708.16285019   -20051.16882790
  entropy T*S    EENTRO =        -0.00000000
  eigenvalues    EBANDS =      -495.32713138
  atomic energy  EATOM  =     24680.42500649
  ---------------------------------------------------
  free energy    TOTEN  =      1807.17076755 eV

  energy without entropy =     1807.17076755  energy(sigma->0) =     1807.17076755
  exchange ACFDT corr.  =         0.00000000  see jH, gK, PRB 81, 115126


--------------------------------------------------------------------------------------------------------




----------------------------------------- Iteration    1(   4)  ---------------------------------------


    TRIAL :  cpu time    3.8362: real time    3.8375
    CORREC:  cpu time    0.0000: real time    0.0007
    --------------------------------------------
      LOOP:  cpu time    3.8362: real time    3.8580

 eigenvalue-minimisations  : 10000
 total energy-change (2. order) :-0.1365346E+04  (-0.1309449E+04)
 number of electron     400.0000000 magnetization 
 augmentation part      400.0000000 magnetization 

 Free energy of the ion-electron system (eV)
  ---------------------------------------------------
  alpha Z        PSCENC =       370.05370877
  Ewald energy   TEWEN  =    -15569.67885133
  -Hartree energ DENC   =     -8089.50152466
  -exchange      EXHF   =         0.00000000
  -V(xc)+E(xc)   XCENC  =       254.20553738
  PAW double counting   =     20708.16285019   -20051.16882790
  entropy T*S    EENTRO =         0.00000000
  eigenvalues    EBANDS =     -1860.67286890
  atomic energy  EATOM  =     24680.42500649
  ---------------------------------------------------
  free energy    TOTEN  =       441.82503003 eV

  energy without entropy =      441.82503003  energy(sigma->0) =      441.82503003
  exchange ACFDT corr.  =         0.00000000  see jH, gK, PRB 81, 115126


--------------------------------------------------------------------------------------------------------




----------------------------------------- Iteration    1(   5)  ---------------------------------------


    TRIAL :  cpu time    3.6642: real time    3.6670
    CORREC:  cpu time    0.0000: real time    0.0013
    CHARGE:  cpu time    0.8881: real time    0.8849
    --------------------------------------------
      LOOP:  cpu time    4.5523: real time    4.5934

 eigenvalue-minimisations  :  9504
 total energy-change (2. order) :-0.1675462E+03  (-0.1648079E+03)
 number of electron     400.0000000 magnetization 
 augmentation part       12.9918246 magnetization 

 Free energy of the ion-electron system (eV)
  ---------------------------------------------------
  alpha Z        PSCENC =       370.05370877
  Ewald energy   TEWEN  =    -15569.67885133
  -Hartree energ DENC   =     -8089.50152466
  -exchange      EXHF   =         0.00000000
  -V(xc)+E(xc)   XCENC  =       254.20553738
  PAW double counting   =     20708.16285019   -20051.16882790
  entropy T*S    EENTRO =        -0.00000000
  eigenvalues    EBANDS =     -2028.21911478
  atomic energy  EATOM  =     24680.42500649
  ---------------------------------------------------
  free energy    TOTEN  =       274.27878415 eV

  energy without entropy =      274.27878415  energy(sigma->0) =      274.27878415
  exchange ACFDT corr.  =         0.00000000  see jH, gK, PRB 81, 115126


--------------------------------------------------------------------------------------------------------




----------------------------------------- Iteration    1(   6)  ---------------------------------------


    POTLOK:  cpu time    0.2600: real time    0.2605
    SETDIJ:  cpu time    0.5600: real time    0.5592
    TRIAL :  cpu time  293.0783: real time  293.2718
    CORREC:  cpu time  295.2145: real time  295.4075
    CHARGE:  cpu time    0.8881: real time    0.8870
    --------------------------------------------
      LOOP:  cpu time  590.0009: real time  590.4486

 eigenvalue-minimisations  :     0
 total energy-change (2. order) :-0.7225300E+03  (-0.1905686E+02)
 number of electron     400.0000000 magnetization 
 augmentation part       13.3564707 magnetization 

 Free energy of the ion-electron system (eV)
  ---------------------------------------------------
  alpha Z        PSCENC =       370.05370877
  Ewald energy   TEWEN  =    -15569.67885133
  -Hartree energ DENC   =     -8146.80930441
  -exchange      EXHF   =       752.21509233
  -V(xc)+E(xc)   XCENC  =       272.78212922
  PAW double counting   =     56020.30973026   -55350.99181235
  entropy T*S    EENTRO =         0.00000000
  eigenvalues    EBANDS =     -3476.55687218
  atomic energy  EATOM  =     24680.42500649
  ---------------------------------------------------
  free energy    TOTEN  =      -448.25117321 eV

  energy without entropy =     -448.25117321  energy(sigma->0) =     -448.25117321
  exchange ACFDT corr.  =         0.00000000  see jH, gK, PRB 81, 115126


--------------------------------------------------------------------------------------------------------




----------------------------------------- Iteration    1(   7)  ---------------------------------------


    POTLOK:  cpu time    0.2640: real time    0.2606
    SETDIJ:  cpu time    0.5440: real time    0.5455
    TRIAL :  cpu time  295.0944: real time  295.3073
    CORREC:  cpu time  295.1944: real time  295.3849
    CHARGE:  cpu time    0.8881: real time    0.8868
    --------------------------------------------
      LOOP:  cpu time  591.9850: real time  592.4719

 eigenvalue-minimisations  :     0
 total energy-change (2. order) :-0.1898901E+02  (-0.7842942E+01)
 number of electron     400.0000000 magnetization 
 augmentation part        9.8423430 magnetization 

 Free energy of the ion-electron system (eV)
  ---------------------------------------------------
  alpha Z        PSCENC =       370.05370877
  Ewald energy   TEWEN  =    -15569.67885133
  -Hartree energ DENC   =     -8427.78130697
  -exchange      EXHF   =       761.95264548
  -V(xc)+E(xc)   XCENC  =       279.62429724
  PAW double counting   =     49836.29320528   -49164.29930179
  entropy T*S    EENTRO =         0.00000000
  eigenvalues    EBANDS =     -3233.82959096
  atomic energy  EATOM  =     24680.42500649
  ---------------------------------------------------
  free energy    TOTEN  =      -467.24018780 eV

  energy without entropy =     -467.24018780  energy(sigma->0) =     -467.24018780
  exchange ACFDT corr.  =         0.00000000  see jH, gK, PRB 81, 115126


--------------------------------------------------------------------------------------------------------




----------------------------------------- Iteration    1(   8)  ---------------------------------------


    POTLOK:  cpu time    0.2680: real time    0.2658
    SETDIJ:  cpu time    0.5800: real time    0.5834
    TRIAL :  cpu time  295.0464: real time  295.2778
    CORREC:  cpu time  295.2785: real time  295.4687
    CHARGE:  cpu time    0.8921: real time    0.8958
    --------------------------------------------
      LOOP:  cpu time  592.0690: real time  592.5246

 eigenvalue-minimisations  :     0
 total energy-change (2. order) :-0.7842471E+01  (-0.2818919E+01)
 number of electron     400.0000000 magnetization 
 augmentation part        9.4990980 magnetization 

 Free energy of the ion-electron system (eV)
  ---------------------------------------------------
  alpha Z        PSCENC =       370.05370877
  Ewald energy   TEWEN  =    -15569.67885133
  -Hartree energ DENC   =     -8353.27718245
  -exchange      EXHF   =       765.12894068
  -V(xc)+E(xc)   XCENC  =       277.77493493
  PAW double counting   =     43599.16707663   -42935.16851933
  entropy T*S    EENTRO =         0.00000000
  eigenvalues    EBANDS =     -3309.50777355
  atomic energy  EATOM  =     24680.42500649
  ---------------------------------------------------
  free energy    TOTEN  =      -475.08265917 eV

  energy without entropy =     -475.08265917  energy(sigma->0) =     -475.08265917
  exchange ACFDT corr.  =         0.00000000  see jH, gK, PRB 81, 115126


--------------------------------------------------------------------------------------------------------




----------------------------------------- Iteration    1(   9)  ---------------------------------------


    POTLOK:  cpu time    0.2640: real time    0.2645
    SETDIJ:  cpu time    0.5840: real time    0.5835
    TRIAL :  cpu time  294.9784: real time  295.2182
    CORREC:  cpu time  295.2985: real time  295.4908
    CHARGE:  cpu time    0.8881: real time    0.8857
    --------------------------------------------
      LOOP:  cpu time  592.0130: real time  592.4764

 eigenvalue-minimisations  :     0
 total energy-change (2. order) :-0.2819435E+01  (-0.8845937E+00)
 number of electron     400.0000000 magnetization 
 augmentation part        9.5996319 magnetization 

 Free energy of the ion-electron system (eV)
  ---------------------------------------------------
  alpha Z        PSCENC =       370.05370877
  Ewald energy   TEWEN  =    -15569.67885133
  -Hartree energ DENC   =     -8398.65676618
  -exchange      EXHF   =       768.19765156
  -V(xc)+E(xc)   XCENC  =       279.23502770
  PAW double counting   =     38205.28007331   -37542.49076624
  entropy T*S    EENTRO =         0.00000000
  eigenvalues    EBANDS =     -3270.26717807
  atomic energy  EATOM  =     24680.42500649
  ---------------------------------------------------
  free energy    TOTEN  =      -477.90209400 eV

  energy without entropy =     -477.90209400  energy(sigma->0) =     -477.90209400
  exchange ACFDT corr.  =         0.00000000  see jH, gK, PRB 81, 115126


--------------------------------------------------------------------------------------------------------




----------------------------------------- Iteration    1(  10)  ---------------------------------------


    POTLOK:  cpu time    0.2640: real time    0.2622
    SETDIJ:  cpu time    0.5840: real time    0.5853
    TRIAL :  cpu time  294.8544: real time  295.7023
    CORREC:  cpu time  295.2825: real time  295.4752
    CHARGE:  cpu time    0.8881: real time    0.8852
    --------------------------------------------
      LOOP:  cpu time  591.8730: real time  592.9522

 eigenvalue-minimisations  :     0
 total energy-change (2. order) :-0.8838106E+00  (-0.2283231E+00)
 number of electron     400.0000000 magnetization 
 augmentation part        9.2360357 magnetization 

 Free energy of the ion-electron system (eV)
  ---------------------------------------------------
  alpha Z        PSCENC =       370.05370877
  Ewald energy   TEWEN  =    -15569.67885133
  -Hartree energ DENC   =     -8403.72967557
  -exchange      EXHF   =       767.75093343
  -V(xc)+E(xc)   XCENC  =       278.63124532
  PAW double counting   =     35672.13777200   -35007.98068037
  entropy T*S    EENTRO =         0.00000000
  eigenvalues    EBANDS =     -3266.39536333
  atomic energy  EATOM  =     24680.42500649
  ---------------------------------------------------
  free energy    TOTEN  =      -478.78590459 eV

  energy without entropy =     -478.78590459  energy(sigma->0) =     -478.78590459
  exchange ACFDT corr.  =         0.00000000  see jH, gK, PRB 81, 115126


--------------------------------------------------------------------------------------------------------




----------------------------------------- Iteration    1(  11)  ---------------------------------------


    POTLOK:  cpu time    0.2640: real time    0.2623
    SETDIJ:  cpu time    0.6040: real time    0.6055
    TRIAL :  cpu time  295.0384: real time  295.2590
    CORREC:  cpu time  295.3265: real time  295.5183
    CHARGE:  cpu time    0.8841: real time    0.8845
    --------------------------------------------
      LOOP:  cpu time  592.1210: real time  592.5438

 eigenvalue-minimisations  :     0
 total energy-change (2. order) :-0.2283122E+00  (-0.1157773E+00)
 number of electron     400.0000000 magnetization 
 augmentation part        9.3303851 magnetization 

 Free energy of the ion-electron system (eV)
  ---------------------------------------------------
  alpha Z        PSCENC =       370.05370877
  Ewald energy   TEWEN  =    -15569.67885133
  -Hartree energ DENC   =     -8374.92579730
  -exchange      EXHF   =       767.13051009
  -V(xc)+E(xc)   XCENC  =       277.65447496
  PAW double counting   =     35042.86470074   -34379.04423808
  entropy T*S    EENTRO =         0.00000000
  eigenvalues    EBANDS =     -3293.49373114
  atomic energy  EATOM  =     24680.42500649
  ---------------------------------------------------
  free energy    TOTEN  =      -479.01421681 eV

  energy without entropy =     -479.01421681  energy(sigma->0) =     -479.01421681
  exchange ACFDT corr.  =         0.00000000  see jH, gK, PRB 81, 115126


--------------------------------------------------------------------------------------------------------




----------------------------------------- Iteration    1(  12)  ---------------------------------------


    POTLOK:  cpu time    0.2520: real time    0.2539
    SETDIJ:  cpu time    0.5440: real time    0.5445
    TRIAL :  cpu time  294.9224: real time  295.1394
    CORREC:  cpu time  295.3145: real time  295.5028
    CHARGE:  cpu time    0.8841: real time    0.8845
    --------------------------------------------
      LOOP:  cpu time  591.9170: real time  592.4082

 eigenvalue-minimisations  :     0
 total energy-change (2. order) :-0.1156591E+00  (-0.3554575E-01)
 number of electron     400.0000000 magnetization 
 augmentation part        9.3454608 magnetization 

 Free energy of the ion-electron system (eV)
  ---------------------------------------------------
  alpha Z        PSCENC =       370.05370877
  Ewald energy   TEWEN  =    -15569.67885133
  -Hartree energ DENC   =     -8392.61248895
  -exchange      EXHF   =       767.66074967
  -V(xc)+E(xc)   XCENC  =       278.11086098
  PAW double counting   =     34918.12596964   -34253.81673329
  entropy T*S    EENTRO =         0.00000000
  eigenvalues    EBANDS =     -3277.39809786
  atomic energy  EATOM  =     24680.42500649
  ---------------------------------------------------
  free energy    TOTEN  =      -479.12987590 eV

  energy without entropy =     -479.12987590  energy(sigma->0) =     -479.12987590
  exchange ACFDT corr.  =         0.00000000  see jH, gK, PRB 81, 115126


--------------------------------------------------------------------------------------------------------




----------------------------------------- Iteration    1(  13)  ---------------------------------------


    POTLOK:  cpu time    0.2600: real time    0.2603
    SETDIJ:  cpu time    0.5800: real time    0.5798
    TRIAL :  cpu time  294.9944: real time  295.2043
    CORREC:  cpu time  295.3545: real time  295.5506
    CHARGE:  cpu time    0.8881: real time    0.8859
    --------------------------------------------
      LOOP:  cpu time  592.0770: real time  592.5215

 eigenvalue-minimisations  :     0
 total energy-change (2. order) :-0.3548108E-01  (-0.1002315E-01)
 number of electron     400.0000000 magnetization 
 augmentation part        9.3187420 magnetization 

 Free energy of the ion-electron system (eV)
  ---------------------------------------------------
  alpha Z        PSCENC =       370.05370877
  Ewald energy   TEWEN  =    -15569.67885133
  -Hartree energ DENC   =     -8393.41541555
  -exchange      EXHF   =       767.77043127
  -V(xc)+E(xc)   XCENC  =       278.19494737
  PAW double counting   =     35116.03217203   -34451.71247764
  entropy T*S    EENTRO =         0.00000000
  eigenvalues    EBANDS =     -3276.83487838
  atomic energy  EATOM  =     24680.42500649
  ---------------------------------------------------
  free energy    TOTEN  =      -479.16535698 eV

  energy without entropy =     -479.16535698  energy(sigma->0) =     -479.16535698
  exchange ACFDT corr.  =         0.00000000  see jH, gK, PRB 81, 115126


--------------------------------------------------------------------------------------------------------




----------------------------------------- Iteration    1(  14)  ---------------------------------------


    POTLOK:  cpu time    0.2560: real time    0.2572
    SETDIJ:  cpu time    0.6160: real time    0.6159
    TRIAL :  cpu time  294.8944: real time  295.1003
    CORREC:  cpu time  295.3425: real time  295.5338
    CHARGE:  cpu time    0.8841: real time    0.8848
    --------------------------------------------
      LOOP:  cpu time  591.9930: real time  592.4015

 eigenvalue-minimisations  :     0
 total energy-change (2. order) :-0.1002114E-01  (-0.2965889E-02)
 number of electron     400.0000000 magnetization 
 augmentation part        9.3523537 magnetization 

 Free energy of the ion-electron system (eV)
  ---------------------------------------------------
  alpha Z        PSCENC =       370.05370877
  Ewald energy   TEWEN  =    -15569.67885133
  -Hartree energ DENC   =     -8390.13862436
  -exchange      EXHF   =       767.69193401
[...]


 FORCES acting on ions:
    Electron-Ion                     Ewald-Force                    Non-Local-Force
 -----------------------------------------------------------------------------------------------
   0.839E+02 0.556E-01 0.454E+02   -.905E+02 -.637E-01 -.497E+02   0.629E+01 0.730E-02 0.395E+01
   0.825E+02 0.511E-01 0.268E+02   -.899E+02 -.602E-01 -.291E+02   0.706E+01 0.848E-02 0.205E+01
   0.825E+02 0.511E-01 0.268E+02   -.899E+02 -.602E-01 -.291E+02   0.706E+01 0.848E-02 0.205E+01
   0.839E+02 0.556E-01 0.454E+02   -.905E+02 -.637E-01 -.497E+02   0.629E+01 0.730E-02 0.395E+01
   0.839E+02 0.556E-01 0.454E+02   -.905E+02 -.637E-01 -.497E+02   0.629E+01 0.730E-02 0.395E+01
   0.825E+02 0.511E-01 0.268E+02   -.899E+02 -.602E-01 -.291E+02   0.706E+01 0.848E-02 0.205E+01
   0.825E+02 0.511E-01 0.268E+02   -.899E+02 -.602E-01 -.291E+02   0.706E+01 0.848E-02 0.205E+01
   0.839E+02 0.556E-01 0.454E+02   -.905E+02 -.637E-01 -.497E+02   0.629E+01 0.730E-02 0.395E+01
   -.342E+02 -.560E-01 -.208E+02   0.332E+02 0.502E-01 0.199E+02   0.114E+01 0.504E-02 0.114E+01
   -.389E+02 -.121E+00 -.121E+02   0.376E+02 0.118E+00 0.125E+02   0.163E+01 0.205E-02 -.126E+00
   -.389E+02 -.121E+00 -.121E+02   0.376E+02 0.118E+00 0.125E+02   0.163E+01 0.205E-02 -.126E+00
   -.342E+02 -.560E-01 -.208E+02   0.332E+02 0.502E-01 0.199E+02   0.114E+01 0.504E-02 0.114E+01
   -.342E+02 -.560E-01 -.208E+02   0.332E+02 0.502E-01 0.199E+02   0.114E+01 0.504E-02 0.114E+01
   -.389E+02 -.121E+00 -.121E+02   0.376E+02 0.118E+00 0.125E+02   0.163E+01 0.205E-02 -.126E+00
   -.389E+02 -.121E+00 -.121E+02   0.376E+02 0.118E+00 0.125E+02   0.163E+01 0.205E-02 -.126E+00
   -.342E+02 -.560E-01 -.208E+02   0.332E+02 0.502E-01 0.199E+02   0.114E+01 0.504E-02 0.114E+01
   0.776E-01 0.638E-01 0.504E+02   0.868E+00 -.709E-01 -.553E+02   -.104E+01 0.771E-02 0.542E+01
   0.100E+02 0.289E-01 0.508E+02   -.104E+02 -.321E-01 -.558E+02   0.446E+00 0.324E-02 0.549E+01
   0.100E+02 0.289E-01 0.508E+02   -.104E+02 -.321E-01 -.558E+02   0.446E+00 0.324E-02 0.549E+01
   0.776E-01 0.638E-01 0.504E+02   0.868E+00 -.709E-01 -.553E+02   -.104E+01 0.771E-02 0.542E+01
   0.776E-01 0.638E-01 0.504E+02   0.868E+00 -.709E-01 -.553E+02   -.104E+01 0.771E-02 0.542E+01
   0.100E+02 0.289E-01 0.508E+02   -.104E+02 -.321E-01 -.558E+02   0.446E+00 0.324E-02 0.549E+01
   0.100E+02 0.289E-01 0.508E+02   -.104E+02 -.321E-01 -.558E+02   0.446E+00 0.324E-02 0.549E+01
   0.776E-01 0.638E-01 0.504E+02   0.868E+00 -.709E-01 -.553E+02   -.104E+01 0.771E-02 0.542E+01
   0.333E+02 -.392E+02 -.657E+01   -.361E+02 0.436E+02 0.776E+01   0.301E+01 -.455E+01 -.124E+01
   0.269E+02 -.393E+02 -.137E+02   -.294E+02 0.436E+02 0.156E+02   0.262E+01 -.453E+01 -.198E+01
   0.269E+02 -.393E+02 -.137E+02   -.294E+02 0.436E+02 0.156E+02   0.262E+01 -.453E+01 -.198E+01
   0.333E+02 -.392E+02 -.657E+01   -.361E+02 0.436E+02 0.776E+01   0.301E+01 -.455E+01 -.124E+01
   0.333E+02 -.392E+02 -.657E+01   -.361E+02 0.436E+02 0.776E+01   0.301E+01 -.455E+01 -.124E+01
   0.269E+02 -.393E+02 -.137E+02   -.294E+02 0.436E+02 0.156E+02   0.262E+01 -.453E+01 -.198E+01
   0.269E+02 -.393E+02 -.137E+02   -.294E+02 0.436E+02 0.156E+02   0.262E+01 -.453E+01 -.198E+01
   0.333E+02 -.392E+02 -.657E+01   -.361E+02 0.436E+02 0.776E+01   0.301E+01 -.455E+01 -.124E+01
   0.333E+02 0.392E+02 -.668E+01   -.361E+02 -.436E+02 0.789E+01   0.301E+01 0.454E+01 -.125E+01
   0.268E+02 0.393E+02 -.137E+02   -.293E+02 -.437E+02 0.156E+02   0.261E+01 0.453E+01 -.199E+01
   0.268E+02 0.393E+02 -.137E+02   -.293E+02 -.437E+02 0.156E+02   0.261E+01 0.453E+01 -.199E+01
   0.333E+02 0.392E+02 -.668E+01   -.361E+02 -.436E+02 0.789E+01   0.301E+01 0.454E+01 -.125E+01
   0.333E+02 0.392E+02 -.668E+01   -.361E+02 -.436E+02 0.789E+01   0.301E+01 0.454E+01 -.125E+01
   0.268E+02 0.393E+02 -.137E+02   -.293E+02 -.437E+02 0.156E+02   0.261E+01 0.453E+01 -.199E+01
   0.268E+02 0.393E+02 -.137E+02   -.293E+02 -.437E+02 0.156E+02   0.261E+01 0.453E+01 -.199E+01
   0.333E+02 0.392E+02 -.668E+01   -.361E+02 -.436E+02 0.789E+01   0.301E+01 0.454E+01 -.125E+01
   -.356E+02 -.477E+02 0.132E+02   0.390E+02 0.527E+02 -.144E+02   -.370E+01 -.540E+01 0.135E+01
   -.310E+02 -.488E+02 0.214E+02   0.340E+02 0.539E+02 -.235E+02   -.330E+01 -.540E+01 0.233E+01
   -.310E+02 -.488E+02 0.214E+02   0.340E+02 0.539E+02 -.235E+02   -.330E+01 -.540E+01 0.233E+01
   -.356E+02 -.477E+02 0.132E+02   0.390E+02 0.527E+02 -.144E+02   -.370E+01 -.540E+01 0.135E+01
   -.356E+02 -.477E+02 0.132E+02   0.390E+02 0.527E+02 -.144E+02   -.370E+01 -.540E+01 0.135E+01
   -.310E+02 -.488E+02 0.214E+02   0.340E+02 0.539E+02 -.235E+02   -.330E+01 -.540E+01 0.233E+01
   -.310E+02 -.488E+02 0.214E+02   0.340E+02 0.539E+02 -.235E+02   -.330E+01 -.540E+01 0.233E+01
   -.356E+02 -.477E+02 0.132E+02   0.390E+02 0.527E+02 -.144E+02   -.370E+01 -.540E+01 0.135E+01
   -.356E+02 0.477E+02 0.130E+02   0.390E+02 -.528E+02 -.143E+02   -.370E+01 0.540E+01 0.134E+01
   -.311E+02 0.488E+02 0.213E+02   0.341E+02 -.538E+02 -.235E+02   -.330E+01 0.540E+01 0.232E+01
   -.311E+02 0.488E+02 0.213E+02   0.341E+02 -.538E+02 -.235E+02   -.330E+01 0.540E+01 0.232E+01
   -.356E+02 0.477E+02 0.130E+02   0.390E+02 -.528E+02 -.143E+02   -.370E+01 0.540E+01 0.134E+01
   -.356E+02 0.477E+02 0.130E+02   0.390E+02 -.528E+02 -.143E+02   -.370E+01 0.540E+01 0.134E+01
   -.311E+02 0.488E+02 0.213E+02   0.341E+02 -.538E+02 -.235E+02   -.330E+01 0.540E+01 0.232E+01
   -.311E+02 0.488E+02 0.213E+02   0.341E+02 -.538E+02 -.235E+02   -.330E+01 0.540E+01 0.232E+01
   -.356E+02 0.477E+02 0.130E+02   0.390E+02 -.528E+02 -.143E+02   -.370E+01 0.540E+01 0.134E+01
   0.121E+02 -.932E-01 -.644E+02   -.131E+02 0.104E+00 0.706E+02   0.101E+01 -.111E-01 -.678E+01
   -.526E+01 -.457E-01 -.596E+02   0.601E+01 0.491E-01 0.654E+02   -.943E+00 -.329E-02 -.642E+01
   -.526E+01 -.457E-01 -.596E+02   0.601E+01 0.491E-01 0.654E+02   -.943E+00 -.329E-02 -.642E+01
   0.121E+02 -.932E-01 -.644E+02   -.131E+02 0.104E+00 0.706E+02   0.101E+01 -.111E-01 -.678E+01
   0.121E+02 -.932E-01 -.644E+02   -.131E+02 0.104E+00 0.706E+02   0.101E+01 -.111E-01 -.678E+01
   -.526E+01 -.457E-01 -.596E+02   0.601E+01 0.491E-01 0.654E+02   -.943E+00 -.329E-02 -.642E+01
   -.526E+01 -.457E-01 -.596E+02   0.601E+01 0.491E-01 0.654E+02   -.943E+00 -.329E-02 -.642E+01
   0.121E+02 -.932E-01 -.644E+02   -.131E+02 0.104E+00 0.706E+02   0.101E+01 -.111E-01 -.678E+01
   -.306E+02 -.112E+02 -.117E+02   0.293E+02 0.113E+02 0.114E+02   0.121E+01 -.939E-01 0.321E+00
   -.305E+02 0.113E+02 -.117E+02   0.292E+02 -.115E+02 0.114E+02   0.121E+01 0.105E+00 0.319E+00
   -.305E+02 0.113E+02 -.117E+02   0.292E+02 -.115E+02 0.114E+02   0.121E+01 0.105E+00 0.319E+00
   -.306E+02 -.112E+02 -.117E+02   0.293E+02 0.113E+02 0.114E+02   0.121E+01 -.939E-01 0.321E+00
   -.306E+02 -.112E+02 -.117E+02   0.293E+02 0.113E+02 0.114E+02   0.121E+01 -.939E-01 0.321E+00
   -.305E+02 0.113E+02 -.117E+02   0.292E+02 -.115E+02 0.114E+02   0.121E+01 0.105E+00 0.319E+00
   -.305E+02 0.113E+02 -.117E+02   0.292E+02 -.115E+02 0.114E+02   0.121E+01 0.105E+00 0.319E+00
   -.306E+02 -.112E+02 -.117E+02   0.293E+02 0.113E+02 0.114E+02   0.121E+01 -.939E-01 0.321E+00
   -.172E+02 -.588E+01 0.558E+01   0.174E+02 0.590E+01 -.552E+01   -.914E-01 -.111E-01 -.777E-01
   -.172E+02 0.596E+01 0.559E+01   0.173E+02 -.598E+01 -.553E+01   -.902E-01 0.122E-01 -.773E-01
   -.172E+02 0.596E+01 0.559E+01   0.173E+02 -.598E+01 -.553E+01   -.902E-01 0.122E-01 -.773E-01
   -.172E+02 -.588E+01 0.558E+01   0.174E+02 0.590E+01 -.552E+01   -.914E-01 -.111E-01 -.777E-01
   -.172E+02 -.588E+01 0.558E+01   0.174E+02 0.590E+01 -.552E+01   -.914E-01 -.111E-01 -.777E-01
   -.172E+02 0.596E+01 0.559E+01   0.173E+02 -.598E+01 -.553E+01   -.902E-01 0.122E-01 -.773E-01
   -.172E+02 0.596E+01 0.559E+01   0.173E+02 -.598E+01 -.553E+01   -.902E-01 0.122E-01 -.773E-01
   -.172E+02 -.588E+01 0.558E+01   0.174E+02 0.590E+01 -.552E+01   -.914E-01 -.111E-01 -.777E-01
   -.318E+02 -.452E-01 -.162E+02   0.320E+02 0.465E-01 0.167E+02   -.774E-01 -.103E-02 -.512E+00
   0.387E+01 -.626E-01 -.161E+02   -.415E+01 0.640E-01 0.169E+02   0.309E+00 -.115E-02 -.744E+00
   0.387E+01 -.626E-01 -.161E+02   -.415E+01 0.640E-01 0.169E+02   0.309E+00 -.115E-02 -.744E+00
   -.318E+02 -.452E-01 -.162E+02   0.320E+02 0.465E-01 0.167E+02   -.774E-01 -.103E-02 -.512E+00
   -.318E+02 -.452E-01 -.162E+02   0.320E+02 0.465E-01 0.167E+02   -.774E-01 -.103E-02 -.512E+00
   0.387E+01 -.626E-01 -.161E+02   -.415E+01 0.640E-01 0.169E+02   0.309E+00 -.115E-02 -.744E+00
   0.387E+01 -.626E-01 -.161E+02   -.415E+01 0.640E-01 0.169E+02   0.309E+00 -.115E-02 -.744E+00
   -.318E+02 -.452E-01 -.162E+02   0.320E+02 0.465E-01 0.167E+02   -.774E-01 -.103E-02 -.512E+00
   0.555E+01 0.532E+01 -.299E+01   -.501E+01 -.563E+01 0.261E+01   -.564E+00 0.312E+00 0.413E+00
   0.554E+01 -.530E+01 -.296E+01   -.500E+01 0.562E+01 0.258E+01   -.564E+00 -.314E+00 0.414E+00
   0.554E+01 -.530E+01 -.296E+01   -.500E+01 0.562E+01 0.258E+01   -.564E+00 -.314E+00 0.414E+00
   0.555E+01 0.532E+01 -.299E+01   -.501E+01 -.563E+01 0.261E+01   -.564E+00 0.312E+00 0.413E+00
   0.555E+01 0.532E+01 -.299E+01   -.501E+01 -.563E+01 0.261E+01   -.564E+00 0.312E+00 0.413E+00
   0.554E+01 -.530E+01 -.296E+01   -.500E+01 0.562E+01 0.258E+01   -.564E+00 -.314E+00 0.414E+00
   0.554E+01 -.530E+01 -.296E+01   -.500E+01 0.562E+01 0.258E+01   -.564E+00 -.314E+00 0.414E+00
   0.555E+01 0.532E+01 -.299E+01   -.501E+01 -.563E+01 0.261E+01   -.564E+00 0.312E+00 0.413E+00
 -----------------------------------------------------------------------------------------------
   -.605E+02 -.117E+00 -.240E+02   0.234E-12 0.112E-12 -.244E-12   0.567E+02 0.109E+00 0.226E+02
 
 
 POSITION                                       TOTAL-FORCE (eV/Angst)
 -----------------------------------------------------------------------------------
      2.61787      3.11411      2.77269        -0.001744     -0.000469     -0.203525
      8.69010      3.11413      3.18664        -0.062513     -0.000292     -0.196043
      2.40228      9.34194      3.11717        -0.062513     -0.000292     -0.196043
      8.90689      9.34384      2.84142        -0.001744     -0.000469     -0.203525
      2.68757      3.11415      9.14640        -0.001744     -0.000469     -0.203525
      8.75981      3.11417      9.56035        -0.062513     -0.000292     -0.196043
      2.47198      9.34198      9.49088        -0.062513     -0.000292     -0.196043
      8.97659      9.34388      9.21513        -0.001744     -0.000469     -0.203525
      3.89897      3.11539      3.54337         0.286341     -0.000341      0.301042
     10.12664      3.11565      3.59216         0.400487     -0.000652      0.241981
      3.83882      9.34346      3.52269         0.400487     -0.000652      0.241981
     10.18799      9.34511      3.61210         0.286341     -0.000341      0.301042
      3.96868      3.11543      9.91708         0.286341     -0.000341      0.301042
     10.19634      3.11569      9.96587         0.400487     -0.000652      0.241981
      3.90852      9.34350      9.89640         0.400487     -0.000652      0.241981
     10.25769      9.34516      9.98581         0.286341     -0.000341      0.301042
      2.85645      3.11259      1.68937        -0.142758      0.000923      0.717731
      8.63080      3.11350      2.07896         0.071417      0.000246      0.712016
      2.34298      9.34131      2.00949         0.071417      0.000246      0.712016
      9.14546      9.34231      1.75810        -0.142758      0.000923      0.717731
      2.92615      3.11263      8.06308        -0.142758      0.000923      0.717731
      8.70051      3.11354      8.45267         0.071417      0.000246      0.712016
      2.41269      9.34135      8.38320         0.071417      0.000246      0.712016
      9.21517      9.34236      8.13181        -0.142758      0.000923      0.717731
      2.04318      4.01774      3.03572         0.315849     -0.380972     -0.105736
      8.19942      4.01529      3.58988         0.287153     -0.380946     -0.177190
      1.91160     10.24310      3.52040         0.287153     -0.380946     -0.177190
      8.33219     10.24746      3.10445         0.315849     -0.380972     -0.105736
      2.11288      4.01778      9.40943         0.315849     -0.380972     -0.105736
      8.26912      4.01533      9.96359         0.287153     -0.380946     -0.177190
      1.98130     10.24314      9.89411         0.287153     -0.380946     -0.177190
      8.40190     10.24751      9.47816         0.315849     -0.380972     -0.105736
      2.04365      2.21098      3.03839         0.314630      0.380530     -0.107406
      8.20127      2.21244      3.59091         0.285325      0.381092     -0.177999
      1.91345      8.44025      3.52144         0.285325      0.381092     -0.177999
      8.33267      8.44071      3.10711         0.314630      0.380530     -0.107406
      2.11336      2.21103      9.41210         0.314630      0.380530     -0.107406
      8.27098      2.21249      9.96462         0.285325      0.381092     -0.177999
      1.98316      8.44030      9.89515         0.285325      0.381092     -0.177999
      8.40238      8.44075      9.48082         0.314630      0.380530     -0.107406
      4.47977      3.96426      3.32798        -0.459154     -0.579957      0.129341
     10.63619      3.95793      3.22987        -0.420098     -0.564641      0.248437
      4.34836     10.18575      3.16039        -0.420098     -0.564641      0.248437
     10.76879     10.19399      3.39671        -0.459154     -0.579957      0.129341
      4.54948      3.96431      9.70169        -0.459154     -0.579957      0.129341
     10.70589      3.95798      9.60358        -0.420098     -0.564641      0.248437
      4.41807     10.18579      9.53410        -0.420098     -0.564641      0.248437
     10.83850     10.19404      9.77042        -0.459154     -0.579957      0.129341
      4.47985      2.26580      3.33066        -0.460365      0.581556      0.126862
     10.63760      2.27369      3.23084        -0.422313      0.565558      0.247345
      4.34978      8.50150      3.16137        -0.422313      0.565558      0.247345
     10.76887      8.49553      3.39938        -0.460365      0.581556      0.126862
      4.54956      2.26585      9.70437        -0.460365      0.581556      0.126862
     10.70731      2.27374      9.60455        -0.422313      0.565558      0.247345
      4.41949      8.50155      9.53508        -0.422313      0.565558      0.247345
     10.83857      8.49557      9.77309        -0.460365      0.581556      0.126862
      3.73933      3.11709      4.57842         0.074155     -0.001138     -0.892179
     10.27468      3.11620      4.64030        -0.233088      0.000064     -0.910773
      3.98686      9.34401      4.57083        -0.233088      0.000064     -0.910773
     10.02834      9.34681      4.64715         0.074155     -0.001138     -0.892179
      3.80903      3.11713     10.95213         0.074155     -0.001138     -0.892179
     10.34439      3.11624     11.01401        -0.233088      0.000064     -0.910773
      4.05657      9.34405     10.94454        -0.233088      0.000064     -0.910773
     10.09805      9.34686     11.02086         0.074155     -0.001138     -0.892179
      6.01066      6.24736      6.29598         0.015856      0.006751      0.005007
     12.29889      6.21278      6.36513         0.015756     -0.007046      0.004999
      6.01107     12.44059      6.29565         0.015756     -0.007046      0.004999
     12.29849      0.01955      6.36545         0.015856      0.006751      0.005007
      6.08037      6.24740     12.66969         0.015856      0.006751      0.005007
     12.36859      6.21283     12.73884         0.015756     -0.007046      0.004999
      6.08077     12.44064     12.66936         0.015756     -0.007046      0.004999
     12.36819      0.01959     12.73916         0.015856      0.006751      0.005007
      5.75322      6.23901      3.09086         0.050933      0.008068     -0.013986
     12.04111      6.22105      3.16007         0.050856     -0.008499     -0.013983
      5.75329     12.44886      3.09059         0.050856     -0.008499     -0.013983
     12.04104      0.01120      3.16033         0.050933      0.008068     -0.013986
      5.82293      6.23905      9.46457         0.050933      0.008068     -0.013986
     12.11081      6.22109      9.53378         0.050856     -0.008499     -0.013983
      5.82299     12.44890      9.46430         0.050856     -0.008499     -0.013983
     12.11075      0.01124      9.53404         0.050933      0.008068     -0.013986
      6.00173      3.11497      0.15077         0.078582      0.000184     -0.022256
     11.60057      3.11596      0.34390         0.044132      0.000190     -0.018827
      5.31275      9.34377      0.27442         0.044132      0.000190     -0.018827
     12.29075      9.34470      0.21950         0.078582      0.000184     -0.022256
      6.07144      3.11501      6.52448         0.078582      0.000184     -0.022256
     11.67027      3.11600      6.71761         0.044132      0.000190     -0.018827
      5.38245      9.34381      6.64813         0.044132      0.000190     -0.018827
     12.36045      9.34474      6.59321         0.078582      0.000184     -0.022256
      2.78370      5.82072      5.90914        -0.044731      0.010844      0.052667
      9.07203      6.63863      5.97819        -0.044707     -0.011054      0.052475
      2.78301      0.40890      5.90947        -0.044707     -0.011054      0.052475
      9.07271     12.05044      5.97787        -0.044731      0.010844      0.052667
      2.85340      5.82076     12.28285        -0.044731      0.010844      0.052667
      9.14173      6.63867     12.35190        -0.044707     -0.011054      0.052475
      2.85272      0.40894     12.28318        -0.044707     -0.011054      0.052475
      9.14242     12.05049     12.35158        -0.044731      0.010844      0.052667
 -----------------------------------------------------------------------------------
    total drift:                               -0.002918      0.000391     -0.003409


--------------------------------------------------------------------------------------------------------



  FREE ENERGIE OF THE ION-ELECTRON SYSTEM (eV)
  ---------------------------------------------------
  free  energy   TOTEN  =      -479.18097170 eV

  energy  without entropy=     -479.18097170  energy(sigma->0) =     -479.18097170
 


--------------------------------------------------------------------------------------------------------


    POTLOK:  cpu time    1.2481: real time    1.2464


--------------------------------------------------------------------------------------------------------


     LOOP+:  cpu time17620.5972: real time17634.3035
    4ORBIT:  cpu time    0.0000: real time    0.0000

 total amount of memory used by VASP on root node   247566. kBytes
========================================================================

   base      :      30000. kBytes
   nonl-proj :      82891. kBytes
   fftplans  :      15020. kBytes
   grid      :      12652. kBytes
   one-center:        124. kBytes
   HF        :        259. kBytes
   nonlr-proj:      29034. kBytes
   wavefun   :      77586. kBytes
 
  
  
 General timing and accounting informations for this job:
 ========================================================
  
                  Total CPU time used (sec):    17670.289
                            User time (sec):    17657.079
                          System time (sec):       13.209
                         Elapsed time (sec):    17699.142
  
                   Maximum memory used (kb):      383660.
                   Average memory used (kb):           0.
  
                          Minor page faults:       148135
                          Major page faults:            0
                 Voluntary context switches:          917
