   8   8   1   0
  0.2002677E+02  0.5435300E-09  0.5435300E-09  0.6646963E-09  0.5000000E-15
  1.000000000000000E-004
  CAR 
 Name                                    
     16.91444790    -72.58143501  301      4.16128458      1.00000000
    -72.581  0.0000E+00  0.0000E+00
    -72.283  0.0000E+00  0.0000E+00
    -71.985  0.0000E+00  0.0000E+00
    -71.686  0.0000E+00  0.0000E+00
    -71.388  0.0000E+00  0.0000E+00
    -71.090  0.0000E+00  0.0000E+00
    -70.792  0.0000E+00  0.0000E+00
    -70.493  0.0000E+00  0.0000E+00
    -70.195  0.0000E+00  0.0000E+00
    -69.897  0.0000E+00  0.0000E+00
    -69.598  0.0000E+00  0.0000E+00
    -69.300  0.0000E+00  0.0000E+00
    -69.002  0.0000E+00  0.0000E+00
    -68.703  0.0000E+00  0.0000E+00
    -68.405  0.3352E+02  0.1200E+02
    -68.107  0.0000E+00  0.1200E+02
    -67.808  0.0000E+00  0.1200E+02
    -67.510  0.0000E+00  0.1200E+02
    -67.212  0.0000E+00  0.1200E+02
    -66.913  0.0000E+00  0.1200E+02
    -66.615  0.0000E+00  0.1200E+02
    -66.317  0.0000E+00  0.1200E+02
    -66.018  0.0000E+00  0.1200E+02
    -65.720  0.0000E+00  0.1200E+02
    -65.422  0.0000E+00  0.1200E+02
    -65.123  0.0000E+00  0.1200E+02
    -64.825  0.0000E+00  0.1200E+02
    -64.527  0.0000E+00  0.1200E+02
    -64.228  0.0000E+00  0.1200E+02
    -63.930  0.0000E+00  0.1200E+02
    -63.632  0.0000E+00  0.1200E+02
    -63.334  0.0000E+00  0.1200E+02
    -63.035  0.0000E+00  0.1200E+02
    -62.737  0.0000E+00  0.1200E+02
    -62.439  0.0000E+00  0.1200E+02
    -62.140  0.0000E+00  0.1200E+02
    -61.842  0.0000E+00  0.1200E+02
    -61.544  0.0000E+00  0.1200E+02
    -61.245  0.0000E+00  0.1200E+02
    -60.947  0.0000E+00  0.1200E+02
    -60.649  0.0000E+00  0.1200E+02
    -60.350  0.0000E+00  0.1200E+02
    -60.052  0.0000E+00  0.1200E+02
    -59.754  0.0000E+00  0.1200E+02
    -59.455  0.0000E+00  0.1200E+02
    -59.157  0.0000E+00  0.1200E+02
    -58.859  0.0000E+00  0.1200E+02
    -58.560  0.0000E+00  0.1200E+02
    -58.262  0.0000E+00  0.1200E+02
    -57.964  0.0000E+00  0.1200E+02
    -57.665  0.0000E+00  0.1200E+02
    -57.367  0.0000E+00  0.1200E+02
    -57.069  0.0000E+00  0.1200E+02
    -56.770  0.0000E+00  0.1200E+02
    -56.472  0.0000E+00  0.1200E+02
    -56.174  0.0000E+00  0.1200E+02
    -55.876  0.0000E+00  0.1200E+02
    -55.577  0.0000E+00  0.1200E+02
    -55.279  0.0000E+00  0.1200E+02
    -54.981  0.0000E+00  0.1200E+02
    -54.682  0.0000E+00  0.1200E+02
    -54.384  0.0000E+00  0.1200E+02
    -54.086  0.0000E+00  0.1200E+02
    -53.787  0.0000E+00  0.1200E+02
    -53.489  0.0000E+00  0.1200E+02
    -53.191  0.0000E+00  0.1200E+02
    -52.892  0.0000E+00  0.1200E+02
    -52.594  0.0000E+00  0.1200E+02
    -52.296  0.0000E+00  0.1200E+02
    -51.997  0.0000E+00  0.1200E+02
    -51.699  0.0000E+00  0.1200E+02
    -51.401  0.0000E+00  0.1200E+02
    -51.102  0.0000E+00  0.1200E+02
    -50.804  0.0000E+00  0.1200E+02
    -50.506  0.0000E+00  0.1200E+02
    -50.207  0.0000E+00  0.1200E+02
    -49.909  0.0000E+00  0.1200E+02
    -49.611  0.0000E+00  0.1200E+02
    -49.313  0.0000E+00  0.1200E+02
    -49.014  0.0000E+00  0.1200E+02
    -48.716  0.0000E+00  0.1200E+02
    -48.418  0.0000E+00  0.1200E+02
    -48.119  0.0000E+00  0.1200E+02
    -47.821  0.0000E+00  0.1200E+02
    -47.523  0.0000E+00  0.1200E+02
    -47.224  0.0000E+00  0.1200E+02
    -46.926  0.0000E+00  0.1200E+02
    -46.628  0.0000E+00  0.1200E+02
    -46.329  0.0000E+00  0.1200E+02
    -46.031  0.0000E+00  0.1200E+02
    -45.733  0.0000E+00  0.1200E+02
    -45.434  0.0000E+00  0.1200E+02
    -45.136  0.0000E+00  0.1200E+02
    -44.838  0.0000E+00  0.1200E+02
    -44.539  0.0000E+00  0.1200E+02
    -44.241  0.0000E+00  0.1200E+02
    -43.943  0.0000E+00  0.1200E+02
    -43.644  0.0000E+00  0.1200E+02
    -43.346  0.0000E+00  0.1200E+02
    -43.048  0.0000E+00  0.1200E+02
    -42.749  0.0000E+00  0.1200E+02
    -42.451  0.0000E+00  0.1200E+02
    -42.153  0.0000E+00  0.1200E+02
    -41.855  0.0000E+00  0.1200E+02
    -41.556  0.0000E+00  0.1200E+02
    -41.258  0.0000E+00  0.1200E+02
    -40.960  0.0000E+00  0.1200E+02
    -40.661  0.0000E+00  0.1200E+02
    -40.363  0.0000E+00  0.1200E+02
    -40.065  0.0000E+00  0.1200E+02
    -39.766  0.0000E+00  0.1200E+02
    -39.468  0.0000E+00  0.1200E+02
    -39.170  0.0000E+00  0.1200E+02
    -38.871  0.0000E+00  0.1200E+02
    -38.573  0.0000E+00  0.1200E+02
    -38.275  0.0000E+00  0.1200E+02
    -37.976  0.0000E+00  0.1200E+02
    -37.678  0.0000E+00  0.1200E+02
    -37.380  0.0000E+00  0.1200E+02
    -37.081  0.0000E+00  0.1200E+02
    -36.783  0.0000E+00  0.1200E+02
    -36.485  0.0000E+00  0.1200E+02
    -36.186  0.0000E+00  0.1200E+02
    -35.888  0.0000E+00  0.1200E+02
    -35.590  0.0000E+00  0.1200E+02
    -35.291  0.0000E+00  0.1200E+02
    -34.993  0.0000E+00  0.1200E+02
    -34.695  0.0000E+00  0.1200E+02
    -34.397  0.0000E+00  0.1200E+02
    -34.098  0.0000E+00  0.1200E+02
    -33.800  0.0000E+00  0.1200E+02
    -33.502  0.0000E+00  0.1200E+02
    -33.203  0.0000E+00  0.1200E+02
    -32.905  0.0000E+00  0.1200E+02
    -32.607  0.0000E+00  0.1200E+02
    -32.308  0.0000E+00  0.1200E+02
    -32.010  0.0000E+00  0.1200E+02
    -31.712  0.0000E+00  0.1200E+02
    -31.413  0.0000E+00  0.1200E+02
    -31.115  0.0000E+00  0.1200E+02
    -30.817  0.0000E+00  0.1200E+02
    -30.518  0.0000E+00  0.1200E+02
    -30.220  0.0000E+00  0.1200E+02
    -29.922  0.0000E+00  0.1200E+02
    -29.623  0.0000E+00  0.1200E+02
    -29.325  0.0000E+00  0.1200E+02
    -29.027  0.0000E+00  0.1200E+02
    -28.728  0.0000E+00  0.1200E+02
    -28.430  0.0000E+00  0.1200E+02
    -28.132  0.0000E+00  0.1200E+02
    -27.833  0.0000E+00  0.1200E+02
    -27.535  0.0000E+00  0.1200E+02
    -27.237  0.0000E+00  0.1200E+02
    -26.939  0.0000E+00  0.1200E+02
    -26.640  0.0000E+00  0.1200E+02
    -26.342  0.0000E+00  0.1200E+02
    -26.044  0.0000E+00  0.1200E+02
    -25.745  0.0000E+00  0.1200E+02
    -25.447  0.0000E+00  0.1200E+02
    -25.149  0.0000E+00  0.1200E+02
    -24.850  0.0000E+00  0.1200E+02
    -24.552  0.0000E+00  0.1200E+02
    -24.254  0.0000E+00  0.1200E+02
    -23.955  0.0000E+00  0.1200E+02
    -23.657  0.0000E+00  0.1200E+02
    -23.359  0.0000E+00  0.1200E+02
    -23.060  0.0000E+00  0.1200E+02
    -22.762  0.0000E+00  0.1200E+02
    -22.464  0.0000E+00  0.1200E+02
    -22.165  0.0000E+00  0.1200E+02
    -21.867  0.0000E+00  0.1200E+02
    -21.569  0.0000E+00  0.1200E+02
    -21.270  0.0000E+00  0.1200E+02
    -20.972  0.0000E+00  0.1200E+02
    -20.674  0.0000E+00  0.1200E+02
    -20.376  0.0000E+00  0.1200E+02
    -20.077  0.1350E+02  0.1803E+02
    -19.779  0.0000E+00  0.2200E+02
    -19.481  0.0000E+00  0.2200E+02
    -19.182  0.0000E+00  0.2200E+02
    -18.884  0.0000E+00  0.2200E+02
    -18.586  0.0000E+00  0.2200E+02
    -18.287  0.0000E+00  0.2200E+02
    -17.989  0.0000E+00  0.2200E+02
    -17.691  0.0000E+00  0.2200E+02
    -17.392  0.0000E+00  0.2200E+02
    -17.094  0.0000E+00  0.2200E+02
    -16.796  0.0000E+00  0.2200E+02
    -16.497  0.0000E+00  0.2200E+02
    -16.199  0.0000E+00  0.2200E+02
    -15.901  0.0000E+00  0.2200E+02
    -15.602  0.0000E+00  0.2200E+02
    -15.304  0.0000E+00  0.2200E+02
    -15.006  0.0000E+00  0.2200E+02
    -14.707  0.0000E+00  0.2200E+02
    -14.409  0.0000E+00  0.2200E+02
    -14.111  0.0000E+00  0.2200E+02
    -13.812  0.0000E+00  0.2200E+02
    -13.514  0.0000E+00  0.2200E+02
    -13.216  0.0000E+00  0.2200E+02
    -12.918  0.0000E+00  0.2200E+02
    -12.619  0.0000E+00  0.2200E+02
    -12.321  0.0000E+00  0.2200E+02
    -12.023  0.0000E+00  0.2200E+02
    -11.724  0.1550E-01  0.2200E+02
    -11.426  0.9329E-01  0.2224E+02
    -11.128  0.8822E+00  0.2308E+02
    -10.829  0.5563E-10  0.2400E+02
    -10.531  0.1375E+01  0.2459E+02
    -10.233  0.2493E+01  0.2751E+02
     -9.934  0.0000E+00  0.3000E+02
     -9.636  0.0000E+00  0.3000E+02
     -9.338  0.0000E+00  0.3000E+02
     -9.039  0.0000E+00  0.3000E+02
     -8.741  0.0000E+00  0.3000E+02
     -8.443  0.0000E+00  0.3000E+02
     -8.144  0.0000E+00  0.3000E+02
     -7.846  0.0000E+00  0.3000E+02
     -7.548  0.0000E+00  0.3000E+02
     -7.249  0.0000E+00  0.3000E+02
     -6.951  0.0000E+00  0.3000E+02
     -6.653  0.0000E+00  0.3000E+02
     -6.354  0.0000E+00  0.3000E+02
     -6.056  0.0000E+00  0.3000E+02
     -5.758  0.0000E+00  0.3000E+02
     -5.460  0.0000E+00  0.3000E+02
     -5.161  0.0000E+00  0.3000E+02
     -4.863  0.3468E+01  0.3130E+02
     -4.565  0.1313E+02  0.3742E+02
     -4.266  0.1028E-02  0.4000E+02
     -3.968  0.1772E+01  0.4085E+02
     -3.670  0.5587E+00  0.4200E+02
     -3.371  0.0000E+00  0.4200E+02
     -3.073  0.0000E+00  0.4200E+02
     -2.775  0.0000E+00  0.4200E+02
     -2.476  0.2618E+00  0.4211E+02
     -2.178  0.3722E+00  0.4261E+02
     -1.880  0.1118E+01  0.4438E+02
     -1.581  0.1055E+01  0.4512E+02
     -1.283  0.6577E+00  0.4628E+02
     -0.985  0.5535E+00  0.4786E+02
     -0.686  0.1223E+01  0.4936E+02
     -0.388  0.2217E+01  0.5143E+02
     -0.090  0.2728E+01  0.5437E+02
      0.209  0.6518E+00  0.5797E+02
      0.507  0.2428E+01  0.6093E+02
      0.805  0.1096E+01  0.6399E+02
      1.104  0.0000E+00  0.6400E+02
      1.402  0.1451E+00  0.6404E+02
      1.700  0.5054E+01  0.6856E+02
      1.998  0.1549E+01  0.7220E+02
      2.297  0.3337E+01  0.7448E+02
      2.595  0.1981E+01  0.7715E+02
      2.893  0.2139E+01  0.7932E+02
      3.192  0.1398E+01  0.8093E+02
      3.490  0.5543E+00  0.8276E+02
      3.788  0.9818E-01  0.8379E+02
      4.087  0.0000E+00  0.8400E+02
      4.385  0.0000E+00  0.8400E+02
      4.683  0.0000E+00  0.8400E+02
      4.982  0.0000E+00  0.8400E+02
      5.280  0.0000E+00  0.8400E+02
      5.578  0.0000E+00  0.8401E+02
      5.877  0.9311E-01  0.8404E+02
      6.175  0.6459E+00  0.8432E+02
      6.473  0.8827E+00  0.8505E+02
      6.772  0.1862E+00  0.8589E+02
      7.070  0.1397E+00  0.8604E+02
      7.368  0.0000E+00  0.8612E+02
      7.667  0.3709E+00  0.8669E+02
      7.965  0.9314E+00  0.8750E+02
      8.263  0.1796E+01  0.8897E+02
      8.561  0.1944E+01  0.9052E+02
      8.860  0.1359E+01  0.9170E+02
      9.158  0.6005E+00  0.9255E+02
      9.456  0.6653E+00  0.9357E+02
      9.755  0.2778E+00  0.9429E+02
     10.053  0.1880E+01  0.9560E+02
     10.351  0.6518E+00  0.9654E+02
     10.650  0.1149E+01  0.9794E+02
     10.948  0.1366E+01  0.9930E+02
     11.246  0.1122E+01  0.1008E+03
     11.545  0.8870E+00  0.1019E+03
     11.843  0.1220E+01  0.1030E+03
     12.141  0.6004E+00  0.1036E+03
     12.440  0.9311E-01  0.1039E+03
     12.738  0.6847E-02  0.1039E+03
     13.036  0.0000E+00  0.1040E+03
     13.335  0.0000E+00  0.1040E+03
     13.633  0.0000E+00  0.1040E+03
     13.931  0.0000E+00  0.1040E+03
     14.230  0.0000E+00  0.1040E+03
     14.528  0.0000E+00  0.1040E+03
     14.826  0.0000E+00  0.1040E+03
     15.125  0.0000E+00  0.1040E+03
     15.423  0.0000E+00  0.1040E+03
     15.721  0.0000E+00  0.1040E+03
     16.019  0.0000E+00  0.1040E+03
     16.318  0.0000E+00  0.1040E+03
     16.616  0.0000E+00  0.1040E+03
     16.914  0.0000E+00  0.1040E+03
     16.91444790    -72.58143501  301      4.16128458      1.00000000
    -72.581  0.0000E+00  0.0000E+00  0.0000E+00
    -72.283  0.0000E+00  0.0000E+00  0.0000E+00
    -71.985  0.0000E+00  0.0000E+00  0.0000E+00
    -71.686  0.0000E+00  0.0000E+00  0.0000E+00
    -71.388  0.0000E+00  0.0000E+00  0.0000E+00
    -71.090  0.0000E+00  0.0000E+00  0.0000E+00
    -70.792  0.0000E+00  0.0000E+00  0.0000E+00
    -70.493  0.0000E+00  0.0000E+00  0.0000E+00
    -70.195  0.0000E+00  0.0000E+00  0.0000E+00
    -69.897  0.0000E+00  0.0000E+00  0.0000E+00
    -69.598  0.0000E+00  0.0000E+00  0.0000E+00
    -69.300  0.0000E+00  0.0000E+00  0.0000E+00
    -69.002  0.0000E+00  0.0000E+00  0.0000E+00
    -68.703  0.0000E+00  0.0000E+00  0.0000E+00
    -68.405  0.2115E-07  0.2006E+02  0.3559E-05
    -68.107  0.0000E+00  0.0000E+00  0.0000E+00
    -67.808  0.0000E+00  0.0000E+00  0.0000E+00
    -67.510  0.0000E+00  0.0000E+00  0.0000E+00
    -67.212  0.0000E+00  0.0000E+00  0.0000E+00
    -66.913  0.0000E+00  0.0000E+00  0.0000E+00
    -66.615  0.0000E+00  0.0000E+00  0.0000E+00
    -66.317  0.0000E+00  0.0000E+00  0.0000E+00
    -66.018  0.0000E+00  0.0000E+00  0.0000E+00
    -65.720  0.0000E+00  0.0000E+00  0.0000E+00
    -65.422  0.0000E+00  0.0000E+00  0.0000E+00
    -65.123  0.0000E+00  0.0000E+00  0.0000E+00
    -64.825  0.0000E+00  0.0000E+00  0.0000E+00
    -64.527  0.0000E+00  0.0000E+00  0.0000E+00
    -64.228  0.0000E+00  0.0000E+00  0.0000E+00
    -63.930  0.0000E+00  0.0000E+00  0.0000E+00
    -63.632  0.0000E+00  0.0000E+00  0.0000E+00
    -63.334  0.0000E+00  0.0000E+00  0.0000E+00
    -63.035  0.0000E+00  0.0000E+00  0.0000E+00
    -62.737  0.0000E+00  0.0000E+00  0.0000E+00
    -62.439  0.0000E+00  0.0000E+00  0.0000E+00
    -62.140  0.0000E+00  0.0000E+00  0.0000E+00
    -61.842  0.0000E+00  0.0000E+00  0.0000E+00
    -61.544  0.0000E+00  0.0000E+00  0.0000E+00
    -61.245  0.0000E+00  0.0000E+00  0.0000E+00
    -60.947  0.0000E+00  0.0000E+00  0.0000E+00
    -60.649  0.0000E+00  0.0000E+00  0.0000E+00
    -60.350  0.0000E+00  0.0000E+00  0.0000E+00
    -60.052  0.0000E+00  0.0000E+00  0.0000E+00
    -59.754  0.0000E+00  0.0000E+00  0.0000E+00
    -59.455  0.0000E+00  0.0000E+00  0.0000E+00
    -59.157  0.0000E+00  0.0000E+00  0.0000E+00
    -58.859  0.0000E+00  0.0000E+00  0.0000E+00
    -58.560  0.0000E+00  0.0000E+00  0.0000E+00
    -58.262  0.0000E+00  0.0000E+00  0.0000E+00
    -57.964  0.0000E+00  0.0000E+00  0.0000E+00
    -57.665  0.0000E+00  0.0000E+00  0.0000E+00
    -57.367  0.0000E+00  0.0000E+00  0.0000E+00
    -57.069  0.0000E+00  0.0000E+00  0.0000E+00
    -56.770  0.0000E+00  0.0000E+00  0.0000E+00
    -56.472  0.0000E+00  0.0000E+00  0.0000E+00
    -56.174  0.0000E+00  0.0000E+00  0.0000E+00
    -55.876  0.0000E+00  0.0000E+00  0.0000E+00
    -55.577  0.0000E+00  0.0000E+00  0.0000E+00
    -55.279  0.0000E+00  0.0000E+00  0.0000E+00
    -54.981  0.0000E+00  0.0000E+00  0.0000E+00
    -54.682  0.0000E+00  0.0000E+00  0.0000E+00
    -54.384  0.0000E+00  0.0000E+00  0.0000E+00
    -54.086  0.0000E+00  0.0000E+00  0.0000E+00
    -53.787  0.0000E+00  0.0000E+00  0.0000E+00
    -53.489  0.0000E+00  0.0000E+00  0.0000E+00
    -53.191  0.0000E+00  0.0000E+00  0.0000E+00
    -52.892  0.0000E+00  0.0000E+00  0.0000E+00
    -52.594  0.0000E+00  0.0000E+00  0.0000E+00
    -52.296  0.0000E+00  0.0000E+00  0.0000E+00
    -51.997  0.0000E+00  0.0000E+00  0.0000E+00
    -51.699  0.0000E+00  0.0000E+00  0.0000E+00
    -51.401  0.0000E+00  0.0000E+00  0.0000E+00
    -51.102  0.0000E+00  0.0000E+00  0.0000E+00
    -50.804  0.0000E+00  0.0000E+00  0.0000E+00
    -50.506  0.0000E+00  0.0000E+00  0.0000E+00
    -50.207  0.0000E+00  0.0000E+00  0.0000E+00
    -49.909  0.0000E+00  0.0000E+00  0.0000E+00
    -49.611  0.0000E+00  0.0000E+00  0.0000E+00
    -49.313  0.0000E+00  0.0000E+00  0.0000E+00
    -49.014  0.0000E+00  0.0000E+00  0.0000E+00
    -48.716  0.0000E+00  0.0000E+00  0.0000E+00
    -48.418  0.0000E+00  0.0000E+00  0.0000E+00
    -48.119  0.0000E+00  0.0000E+00  0.0000E+00
    -47.821  0.0000E+00  0.0000E+00  0.0000E+00
    -47.523  0.0000E+00  0.0000E+00  0.0000E+00
    -47.224  0.0000E+00  0.0000E+00  0.0000E+00
    -46.926  0.0000E+00  0.0000E+00  0.0000E+00
    -46.628  0.0000E+00  0.0000E+00  0.0000E+00
    -46.329  0.0000E+00  0.0000E+00  0.0000E+00
    -46.031  0.0000E+00  0.0000E+00  0.0000E+00
    -45.733  0.0000E+00  0.0000E+00  0.0000E+00
    -45.434  0.0000E+00  0.0000E+00  0.0000E+00
    -45.136  0.0000E+00  0.0000E+00  0.0000E+00
    -44.838  0.0000E+00  0.0000E+00  0.0000E+00
    -44.539  0.0000E+00  0.0000E+00  0.0000E+00
    -44.241  0.0000E+00  0.0000E+00  0.0000E+00
    -43.943  0.0000E+00  0.0000E+00  0.0000E+00
    -43.644  0.0000E+00  0.0000E+00  0.0000E+00
    -43.346  0.0000E+00  0.0000E+00  0.0000E+00
    -43.048  0.0000E+00  0.0000E+00  0.0000E+00
    -42.749  0.0000E+00  0.0000E+00  0.0000E+00
    -42.451  0.0000E+00  0.0000E+00  0.0000E+00
    -42.153  0.0000E+00  0.0000E+00  0.0000E+00
    -41.855  0.0000E+00  0.0000E+00  0.0000E+00
    -41.556  0.0000E+00  0.0000E+00  0.0000E+00
    -41.258  0.0000E+00  0.0000E+00  0.0000E+00
    -40.960  0.0000E+00  0.0000E+00  0.0000E+00
    -40.661  0.0000E+00  0.0000E+00  0.0000E+00
    -40.363  0.0000E+00  0.0000E+00  0.0000E+00
    -40.065  0.0000E+00  0.0000E+00  0.0000E+00
    -39.766  0.0000E+00  0.0000E+00  0.0000E+00
    -39.468  0.0000E+00  0.0000E+00  0.0000E+00
    -39.170  0.0000E+00  0.0000E+00  0.0000E+00
    -38.871  0.0000E+00  0.0000E+00  0.0000E+00
    -38.573  0.0000E+00  0.0000E+00  0.0000E+00
    -38.275  0.0000E+00  0.0000E+00  0.0000E+00
    -37.976  0.0000E+00  0.0000E+00  0.0000E+00
    -37.678  0.0000E+00  0.0000E+00  0.0000E+00
    -37.380  0.0000E+00  0.0000E+00  0.0000E+00
    -37.081  0.0000E+00  0.0000E+00  0.0000E+00
    -36.783  0.0000E+00  0.0000E+00  0.0000E+00
    -36.485  0.0000E+00  0.0000E+00  0.0000E+00
    -36.186  0.0000E+00  0.0000E+00  0.0000E+00
    -35.888  0.0000E+00  0.0000E+00  0.0000E+00
    -35.590  0.0000E+00  0.0000E+00  0.0000E+00
    -35.291  0.0000E+00  0.0000E+00  0.0000E+00
    -34.993  0.0000E+00  0.0000E+00  0.0000E+00
    -34.695  0.0000E+00  0.0000E+00  0.0000E+00
    -34.397  0.0000E+00  0.0000E+00  0.0000E+00
    -34.098  0.0000E+00  0.0000E+00  0.0000E+00
    -33.800  0.0000E+00  0.0000E+00  0.0000E+00
    -33.502  0.0000E+00  0.0000E+00  0.0000E+00
    -33.203  0.0000E+00  0.0000E+00  0.0000E+00
    -32.905  0.0000E+00  0.0000E+00  0.0000E+00
    -32.607  0.0000E+00  0.0000E+00  0.0000E+00
    -32.308  0.0000E+00  0.0000E+00  0.0000E+00
    -32.010  0.0000E+00  0.0000E+00  0.0000E+00
    -31.712  0.0000E+00  0.0000E+00  0.0000E+00
    -31.413  0.0000E+00  0.0000E+00  0.0000E+00
    -31.115  0.0000E+00  0.0000E+00  0.0000E+00
    -30.817  0.0000E+00  0.0000E+00  0.0000E+00
    -30.518  0.0000E+00  0.0000E+00  0.0000E+00
    -30.220  0.0000E+00  0.0000E+00  0.0000E+00
    -29.922  0.0000E+00  0.0000E+00  0.0000E+00
    -29.623  0.0000E+00  0.0000E+00  0.0000E+00
    -29.325  0.0000E+00  0.0000E+00  0.0000E+00
    -29.027  0.0000E+00  0.0000E+00  0.0000E+00
    -28.728  0.0000E+00  0.0000E+00  0.0000E+00
    -28.430  0.0000E+00  0.0000E+00  0.0000E+00
    -28.132  0.0000E+00  0.0000E+00  0.0000E+00
    -27.833  0.0000E+00  0.0000E+00  0.0000E+00
    -27.535  0.0000E+00  0.0000E+00  0.0000E+00
    -27.237  0.0000E+00  0.0000E+00  0.0000E+00
    -26.939  0.0000E+00  0.0000E+00  0.0000E+00
    -26.640  0.0000E+00  0.0000E+00  0.0000E+00
    -26.342  0.0000E+00  0.0000E+00  0.0000E+00
    -26.044  0.0000E+00  0.0000E+00  0.0000E+00
    -25.745  0.0000E+00  0.0000E+00  0.0000E+00
    -25.447  0.0000E+00  0.0000E+00  0.0000E+00
    -25.149  0.0000E+00  0.0000E+00  0.0000E+00
    -24.850  0.0000E+00  0.0000E+00  0.0000E+00
    -24.552  0.0000E+00  0.0000E+00  0.0000E+00
    -24.254  0.0000E+00  0.0000E+00  0.0000E+00
    -23.955  0.0000E+00  0.0000E+00  0.0000E+00
    -23.657  0.0000E+00  0.0000E+00  0.0000E+00
    -23.359  0.0000E+00  0.0000E+00  0.0000E+00
    -23.060  0.0000E+00  0.0000E+00  0.0000E+00
    -22.762  0.0000E+00  0.0000E+00  0.0000E+00
    -22.464  0.0000E+00  0.0000E+00  0.0000E+00
    -22.165  0.0000E+00  0.0000E+00  0.0000E+00
    -21.867  0.0000E+00  0.0000E+00  0.0000E+00
    -21.569  0.0000E+00  0.0000E+00  0.0000E+00
    -21.270  0.0000E+00  0.0000E+00  0.0000E+00
    -20.972  0.0000E+00  0.0000E+00  0.0000E+00
    -20.674  0.0000E+00  0.0000E+00  0.0000E+00
    -20.376  0.0000E+00  0.0000E+00  0.0000E+00
    -20.077  0.3378E-04  0.3052E-04  0.2851E-04
    -19.779  0.0000E+00  0.0000E+00  0.0000E+00
    -19.481  0.0000E+00  0.0000E+00  0.0000E+00
    -19.182  0.0000E+00  0.0000E+00  0.0000E+00
    -18.884  0.0000E+00  0.0000E+00  0.0000E+00
    -18.586  0.0000E+00  0.0000E+00  0.0000E+00
    -18.287  0.0000E+00  0.0000E+00  0.0000E+00
    -17.989  0.0000E+00  0.0000E+00  0.0000E+00
    -17.691  0.0000E+00  0.0000E+00  0.0000E+00
    -17.392  0.0000E+00  0.0000E+00  0.0000E+00
    -17.094  0.0000E+00  0.0000E+00  0.0000E+00
    -16.796  0.0000E+00  0.0000E+00  0.0000E+00
    -16.497  0.0000E+00  0.0000E+00  0.0000E+00
    -16.199  0.0000E+00  0.0000E+00  0.0000E+00
    -15.901  0.0000E+00  0.0000E+00  0.0000E+00
    -15.602  0.0000E+00  0.0000E+00  0.0000E+00
    -15.304  0.0000E+00  0.0000E+00  0.0000E+00
    -15.006  0.0000E+00  0.0000E+00  0.0000E+00
    -14.707  0.0000E+00  0.0000E+00  0.0000E+00
    -14.409  0.0000E+00  0.0000E+00  0.0000E+00
    -14.111  0.0000E+00  0.0000E+00  0.0000E+00
    -13.812  0.0000E+00  0.0000E+00  0.0000E+00
    -13.514  0.0000E+00  0.0000E+00  0.0000E+00
    -13.216  0.0000E+00  0.0000E+00  0.0000E+00
    -12.918  0.0000E+00  0.0000E+00  0.0000E+00
    -12.619  0.0000E+00  0.0000E+00  0.0000E+00
    -12.321  0.0000E+00  0.0000E+00  0.0000E+00
    -12.023  0.0000E+00  0.0000E+00  0.0000E+00
    -11.724  0.1258E-03  0.8764E-11  0.2552E-08
    -11.426  0.6154E-03  0.4483E-04  0.4682E-04
    -11.128  0.2866E-02  0.1213E-02  0.1443E-02
    -10.829  0.6339E-12  0.4207E-19  0.1249E-14
    -10.531  0.6530E-02  0.2102E-02  0.2791E-02
    -10.233  0.7212E-02  0.5079E-02  0.7730E-02
     -9.934  0.0000E+00  0.0000E+00  0.0000E+00
     -9.636  0.0000E+00  0.0000E+00  0.0000E+00
     -9.338  0.0000E+00  0.0000E+00  0.0000E+00
     -9.039  0.0000E+00  0.0000E+00  0.0000E+00
     -8.741  0.0000E+00  0.0000E+00  0.0000E+00
     -8.443  0.0000E+00  0.0000E+00  0.0000E+00
     -8.144  0.0000E+00  0.0000E+00  0.0000E+00
     -7.846  0.0000E+00  0.0000E+00  0.0000E+00
     -7.548  0.0000E+00  0.0000E+00  0.0000E+00
     -7.249  0.0000E+00  0.0000E+00  0.0000E+00
     -6.951  0.0000E+00  0.0000E+00  0.0000E+00
     -6.653  0.0000E+00  0.0000E+00  0.0000E+00
     -6.354  0.0000E+00  0.0000E+00  0.0000E+00
     -6.056  0.0000E+00  0.0000E+00  0.0000E+00
     -5.758  0.0000E+00  0.0000E+00  0.0000E+00
     -5.460  0.0000E+00  0.0000E+00  0.0000E+00
     -5.161  0.0000E+00  0.0000E+00  0.0000E+00
     -4.863  0.3459E-03  0.1542E-02  0.5449E-02
     -4.565  0.4079E-02  0.2519E-02  0.8426E-02
     -4.266  0.1572E-05  0.1801E-11  0.7033E-06
     -3.968  0.4328E-02  0.3532E-02  0.9993E-02
     -3.670  0.6864E-03  0.8664E-03  0.6823E-02
     -3.371  0.0000E+00  0.0000E+00  0.0000E+00
     -3.073  0.0000E+00  0.0000E+00  0.0000E+00
     -2.775  0.0000E+00  0.0000E+00  0.0000E+00
     -2.476  0.3312E-02  0.8893E-03  0.1697E-02
     -2.178  0.5271E-02  0.5543E-03  0.4753E-02
     -1.880  0.1743E-01  0.1466E-02  0.2017E-01
     -1.581  0.2940E-01  0.2049E-02  0.2047E-01
     -1.283  0.2293E-01  0.6011E-03  0.2006E-01
     -0.985  0.8223E-02  0.1469E-02  0.2925E-01
     -0.686  0.6499E-02  0.5958E-02  0.7205E-01
     -0.388  0.1157E-01  0.1134E-01  0.1811E+00
     -0.090  0.9309E-02  0.1490E-01  0.3696E+00
      0.209  0.1183E-02  0.1213E-02  0.5196E-01
      0.507  0.4299E-02  0.9396E-02  0.4179E+00
      0.805  0.2115E-02  0.1037E-02  0.1319E+00
      1.104  0.0000E+00  0.0000E+00  0.0000E+00
      1.402  0.2336E-04  0.1181E-04  0.4122E-01
      1.700  0.5536E-02  0.2620E-02  0.2016E+01
      1.998  0.6359E-03  0.3192E-02  0.7455E+00
      2.297  0.1684E-02  0.1617E-01  0.1254E+01
      2.595  0.3250E-02  0.9671E-02  0.5894E+00
      2.893  0.3803E-02  0.1311E-01  0.5869E+00
      3.192  0.8013E-03  0.1274E-01  0.3705E+00
      3.490  0.2658E-03  0.3835E-02  0.1219E+00
      3.788  0.2553E-05  0.5371E-03  0.2185E-01
      4.087  0.0000E+00  0.0000E+00  0.0000E+00
      4.385  0.0000E+00  0.0000E+00  0.0000E+00
      4.683  0.0000E+00  0.0000E+00  0.0000E+00
      4.982  0.0000E+00  0.0000E+00  0.0000E+00
      5.280  0.0000E+00  0.0000E+00  0.0000E+00
      5.578  0.0000E+00  0.0000E+00  0.0000E+00
      5.877  0.2133E-06  0.2313E-03  0.1537E-02
      6.175  0.2790E-02  0.1090E-02  0.9415E-02
      6.473  0.2315E-02  0.1762E-02  0.1913E-01
      6.772  0.2127E-03  0.4221E-03  0.5376E-02
      7.070  0.1268E-05  0.1116E-02  0.5456E-02
      7.368  0.0000E+00  0.0000E+00  0.0000E+00
      7.667  0.1608E-02  0.2629E-02  0.1042E-01
      7.965  0.1772E-01  0.3864E-02  0.9916E-02
      8.263  0.1522E-01  0.1044E-01  0.3101E-01
      8.561  0.1902E-01  0.5270E-02  0.2626E-01
      8.860  0.2015E-01  0.5761E-02  0.1929E-01
      9.158  0.5463E-02  0.2438E-02  0.8634E-02
      9.456  0.9950E-02  0.2728E-02  0.7444E-02
      9.755  0.1998E-01  0.2463E-02  0.1509E-02
     10.053  0.5290E-01  0.1569E-01  0.1890E-01
     10.351  0.3265E-01  0.5987E-02  0.7230E-02
     10.650  0.2779E-01  0.1371E-01  0.1135E-01
     10.948  0.2139E-01  0.2134E-01  0.1582E-01
     11.246  0.1284E-01  0.1851E-01  0.1065E-01
     11.545  0.1669E-01  0.1684E-01  0.1127E-01
     11.843  0.2741E-01  0.2295E-01  0.1029E-01
     12.141  0.6377E-02  0.9183E-02  0.5138E-02
     12.440  0.1851E-02  0.2645E-02  0.1140E-02
     12.738  0.1055E-03  0.1219E-03  0.4769E-04
     13.036  0.0000E+00  0.0000E+00  0.0000E+00
     13.335  0.0000E+00  0.0000E+00  0.0000E+00
     13.633  0.0000E+00  0.0000E+00  0.0000E+00
     13.931  0.0000E+00  0.0000E+00  0.0000E+00
     14.230  0.0000E+00  0.0000E+00  0.0000E+00
     14.528  0.0000E+00  0.0000E+00  0.0000E+00
     14.826  0.0000E+00  0.0000E+00  0.0000E+00
     15.125  0.0000E+00  0.0000E+00  0.0000E+00
     15.423  0.0000E+00  0.0000E+00  0.0000E+00
     15.721  0.0000E+00  0.0000E+00  0.0000E+00
     16.019  0.0000E+00  0.0000E+00  0.0000E+00
     16.318  0.0000E+00  0.0000E+00  0.0000E+00
     16.616  0.0000E+00  0.0000E+00  0.0000E+00
     16.914  0.0000E+00  0.0000E+00  0.0000E+00
     16.91444790    -72.58143501  301      4.16128458      1.00000000
    -72.581  0.0000E+00  0.0000E+00  0.0000E+00
    -72.283  0.0000E+00  0.0000E+00  0.0000E+00
    -71.985  0.0000E+00  0.0000E+00  0.0000E+00
    -71.686  0.0000E+00  0.0000E+00  0.0000E+00
    -71.388  0.0000E+00  0.0000E+00  0.0000E+00
    -71.090  0.0000E+00  0.0000E+00  0.0000E+00
    -70.792  0.0000E+00  0.0000E+00  0.0000E+00
    -70.493  0.0000E+00  0.0000E+00  0.0000E+00
    -70.195  0.0000E+00  0.0000E+00  0.0000E+00
    -69.897  0.0000E+00  0.0000E+00  0.0000E+00
    -69.598  0.0000E+00  0.0000E+00  0.0000E+00
    -69.300  0.0000E+00  0.0000E+00  0.0000E+00
    -69.002  0.0000E+00  0.0000E+00  0.0000E+00
    -68.703  0.0000E+00  0.0000E+00  0.0000E+00
    -68.405  0.1917E-07  0.1338E+02  0.3627E-05
    -68.107  0.0000E+00  0.0000E+00  0.0000E+00
    -67.808  0.0000E+00  0.0000E+00  0.0000E+00
    -67.510  0.0000E+00  0.0000E+00  0.0000E+00
    -67.212  0.0000E+00  0.0000E+00  0.0000E+00
    -66.913  0.0000E+00  0.0000E+00  0.0000E+00
    -66.615  0.0000E+00  0.0000E+00  0.0000E+00
    -66.317  0.0000E+00  0.0000E+00  0.0000E+00
    -66.018  0.0000E+00  0.0000E+00  0.0000E+00
    -65.720  0.0000E+00  0.0000E+00  0.0000E+00
    -65.422  0.0000E+00  0.0000E+00  0.0000E+00
    -65.123  0.0000E+00  0.0000E+00  0.0000E+00
    -64.825  0.0000E+00  0.0000E+00  0.0000E+00
    -64.527  0.0000E+00  0.0000E+00  0.0000E+00
    -64.228  0.0000E+00  0.0000E+00  0.0000E+00
    -63.930  0.0000E+00  0.0000E+00  0.0000E+00
    -63.632  0.0000E+00  0.0000E+00  0.0000E+00
    -63.334  0.0000E+00  0.0000E+00  0.0000E+00
    -63.035  0.0000E+00  0.0000E+00  0.0000E+00
    -62.737  0.0000E+00  0.0000E+00  0.0000E+00
    -62.439  0.0000E+00  0.0000E+00  0.0000E+00
    -62.140  0.0000E+00  0.0000E+00  0.0000E+00
    -61.842  0.0000E+00  0.0000E+00  0.0000E+00
    -61.544  0.0000E+00  0.0000E+00  0.0000E+00
    -61.245  0.0000E+00  0.0000E+00  0.0000E+00
    -60.947  0.0000E+00  0.0000E+00  0.0000E+00
    -60.649  0.0000E+00  0.0000E+00  0.0000E+00
    -60.350  0.0000E+00  0.0000E+00  0.0000E+00
    -60.052  0.0000E+00  0.0000E+00  0.0000E+00
    -59.754  0.0000E+00  0.0000E+00  0.0000E+00
    -59.455  0.0000E+00  0.0000E+00  0.0000E+00
    -59.157  0.0000E+00  0.0000E+00  0.0000E+00
    -58.859  0.0000E+00  0.0000E+00  0.0000E+00
    -58.560  0.0000E+00  0.0000E+00  0.0000E+00
    -58.262  0.0000E+00  0.0000E+00  0.0000E+00
    -57.964  0.0000E+00  0.0000E+00  0.0000E+00
    -57.665  0.0000E+00  0.0000E+00  0.0000E+00
    -57.367  0.0000E+00  0.0000E+00  0.0000E+00
    -57.069  0.0000E+00  0.0000E+00  0.0000E+00
    -56.770  0.0000E+00  0.0000E+00  0.0000E+00
    -56.472  0.0000E+00  0.0000E+00  0.0000E+00
    -56.174  0.0000E+00  0.0000E+00  0.0000E+00
    -55.876  0.0000E+00  0.0000E+00  0.0000E+00
    -55.577  0.0000E+00  0.0000E+00  0.0000E+00
    -55.279  0.0000E+00  0.0000E+00  0.0000E+00
    -54.981  0.0000E+00  0.0000E+00  0.0000E+00
    -54.682  0.0000E+00  0.0000E+00  0.0000E+00
    -54.384  0.0000E+00  0.0000E+00  0.0000E+00
    -54.086  0.0000E+00  0.0000E+00  0.0000E+00
    -53.787  0.0000E+00  0.0000E+00  0.0000E+00
    -53.489  0.0000E+00  0.0000E+00  0.0000E+00
    -53.191  0.0000E+00  0.0000E+00  0.0000E+00
    -52.892  0.0000E+00  0.0000E+00  0.0000E+00
    -52.594  0.0000E+00  0.0000E+00  0.0000E+00
    -52.296  0.0000E+00  0.0000E+00  0.0000E+00
    -51.997  0.0000E+00  0.0000E+00  0.0000E+00
    -51.699  0.0000E+00  0.0000E+00  0.0000E+00
    -51.401  0.0000E+00  0.0000E+00  0.0000E+00
    -51.102  0.0000E+00  0.0000E+00  0.0000E+00
    -50.804  0.0000E+00  0.0000E+00  0.0000E+00
    -50.506  0.0000E+00  0.0000E+00  0.0000E+00
    -50.207  0.0000E+00  0.0000E+00  0.0000E+00
    -49.909  0.0000E+00  0.0000E+00  0.0000E+00
    -49.611  0.0000E+00  0.0000E+00  0.0000E+00
    -49.313  0.0000E+00  0.0000E+00  0.0000E+00
    -49.014  0.0000E+00  0.0000E+00  0.0000E+00
    -48.716  0.0000E+00  0.0000E+00  0.0000E+00
    -48.418  0.0000E+00  0.0000E+00  0.0000E+00
    -48.119  0.0000E+00  0.0000E+00  0.0000E+00
    -47.821  0.0000E+00  0.0000E+00  0.0000E+00
    -47.523  0.0000E+00  0.0000E+00  0.0000E+00
    -47.224  0.0000E+00  0.0000E+00  0.0000E+00
    -46.926  0.0000E+00  0.0000E+00  0.0000E+00
    -46.628  0.0000E+00  0.0000E+00  0.0000E+00
    -46.329  0.0000E+00  0.0000E+00  0.0000E+00
    -46.031  0.0000E+00  0.0000E+00  0.0000E+00