    8    8    1    1
  0.2002677E+02  0.5435300E-09  0.5435300E-09  0.6646963E-09  0.5000000E-15
  1.000000000000000E-004
  CAR 
 Name                                    
     84    122     52
 
  0.0000000E+00  0.0000000E+00  0.0000000E+00  0.6944444E-02
    1      -68.513158
    2      -68.479869
    3      -68.479643
    4      -68.457893
    5      -68.458370
    6      -68.459882
    7      -20.159210
    8      -20.155261
    9      -20.155260
   10      -20.061663
   11      -20.056236
   12      -11.721181
   13      -10.076783
   14      -10.066390
   15      -10.066384
   16       -4.702398
   17       -4.642462
   18       -4.597053
   19       -4.597052
   20       -4.589709
   21       -4.252013
   22       -1.860329
   23       -1.230284
   24       -1.180890
   25       -0.744784
   26       -0.615504
   27       -0.615478
   28       -0.001853
   29       -0.001673
   30        0.345402
   31        0.380019
   32        0.380031
   33        1.410258
   34        1.474660
   35        1.627463
   36        1.955109
   37        2.015294
   38        2.015232
   39        2.173353
   40        3.913749
   41        3.913808
   42        3.972624
   43        5.373706
   44        6.998856
   45        8.044712
   46        8.931222
   47        8.936382
   48       10.294232
   49       10.468322
   50       10.623313
   51       11.308688
   52       11.795282
 
  0.1666667E+00  0.0000000E+00  0.0000000E+00  0.2777778E-01
    1      -68.513274
    2      -68.479819
    3      -68.479779
    4      -68.459727
    5      -68.458084
    6      -68.458166
    7      -20.159369
    8      -20.155413
    9      -20.155254
   10      -20.061551
   11      -20.056183
   12      -11.621661
   13      -10.153979
   14      -10.110298
   15      -10.095771
   16       -4.765832
   17       -4.620608
   18       -4.608058
   19       -4.586765
   20       -4.580996
   21       -4.151433
   22       -1.929209
   23       -1.371531
   24       -1.178223
   25       -0.842509
   26       -0.465391
   27       -0.390165
   28       -0.106507
   29       -0.019297
   30        0.324313
   31        0.363696
   32        0.540943
   33        1.451048
   34        1.560353
   35        1.665713
   36        1.819131
   37        1.976018
   38        2.169599
   39        2.284413
   40        3.320472
   41        3.670245
   42        3.851561
   43        5.989527
   44        7.435391
   45        8.258488
   46        8.690194
   47        8.790849
   48        9.942741
   49       10.429891
   50       10.658737
   51       10.850215
   52       11.514643
 
  0.3333333E+00  0.0000000E+00  0.0000000E+00  0.2777778E-01
    1      -68.513281
    2      -68.479941
    3      -68.479951
    4      -68.460062
    5      -68.457996
    6      -68.458206
    7      -20.159637
    8      -20.155653
    9      -20.155241
   10      -20.061269
   11      -20.056042
   12      -11.353885
   13      -10.413673
   14      -10.181886
   15      -10.138795
   16       -4.838435
   17       -4.638657
   18       -4.620299
   19       -4.575099
   20       -4.554448
   21       -3.939120
   22       -1.968650
   23       -1.478745
   24       -1.157290
   25       -0.732883
   26       -0.583790
   27       -0.358728
   28       -0.175408
   29       -0.028080
   30        0.313371
   31        0.439388
   32        0.677701
   33        1.538733
   34        1.646513
   35        1.734472
   36        1.824445
   37        2.002222
   38        2.294692
   39        2.451479
   40        2.810607
   41        3.130042
   42        3.589497
   43        6.636382
   44        8.145811
   45        8.429497
   46        8.534796
   47        9.253624
   48       10.011812
   49       10.507365
   50       10.989218
   51       11.279118
   52       12.295899
 
  0.5000000E+00  0.0000000E+00  0.0000000E+00  0.2777778E-01
    1      -68.513365
    2      -68.479898
    3      -68.479902
    4      -68.459196
    5      -68.458230
    6      -68.458694
    7      -20.159731
    8      -20.155741
    9      -20.155223
   10      -20.061095
   11      -20.055950
   12      -11.113173
   13      -10.656852
   14      -10.213903
   15      -10.159632
   16       -4.869132
   17       -4.643272
   18       -4.626933
   19       -4.571311
   20       -4.545335
   21       -3.827514
   22       -1.922653
   23       -1.511279
   24       -1.099434
   25       -0.873098
   26       -0.619798
   27       -0.403106
   28       -0.103983
   29        0.022473
   30        0.241752
   31        0.530536
   32        0.655483
   33        1.559226
   34        1.648857
   35        1.727517
   36        1.912915
   37        2.036994
   38        2.453331
   39        2.582068
   40        2.668100
   41        2.757752
   42        3.387074
   43        6.877753
   44        8.284513
   45        8.483535
   46        9.383637
   47        9.672411
   48        9.829664
   49       10.436764
   50       10.882428
   51       11.120041
   52       11.850509
 
  0.1666667E+00  0.1666667E+00  0.0000000E+00  0.1388889E-01
    1      -68.513239
    2      -68.479827
    3      -68.479788
    4      -68.459040
    5      -68.458117
    6      -68.458857
    7      -20.159553
    8      -20.155393
    9      -20.155368
   10      -20.061440
   11      -20.056126
   12      -11.490756
   13      -10.240449
   14      -10.157268
   15      -10.151203
   16       -4.840524
   17       -4.630253
   18       -4.623328
   19       -4.575119
   20       -4.561307
   21       -4.031420
   22       -2.051804
   23       -1.523192
   24       -1.018519
   25       -0.662010
   26       -0.618676
   27       -0.337113
   28       -0.062376
   29       -0.000535
   30        0.297224
   31        0.467890
   32        0.581822
   33        1.487332
   34        1.641683
   35        1.708087
   36        1.809970
   37        1.996906
   38        2.239833
   39        2.370770
   40        2.844591
   41        3.687621
   42        3.721437
   43        6.177735
   44        7.739899
   45        8.046785
   46        8.326764
   47        8.893152
   48       10.052113
   49       10.425847
   50       10.707715
   51       11.052183
   52       11.170071
 
  0.3333333E+00  0.1666667E+00  0.0000000E+00  0.2777778E-01
    1      -68.513329
    2      -68.479878
    3      -68.479986
    4      -68.458530
    5      -68.458311
    6      -68.459312
    7      -20.159835
    8      -20.155631
    9      -20.155368
   10      -20.061147
   11      -20.055995
   12      -11.222017
   13      -10.454462
   14      -10.260328
   15      -10.178076
   16       -4.882027
   17       -4.653071
   18       -4.627392
   19       -4.566963
   20       -4.546829
   21       -3.903604
   22       -2.098862
   23       -1.666074
   24       -1.130507
   25       -0.789907
   26       -0.437384
   27       -0.250050
   28       -0.057175
   29       -0.016200
   30        0.328840
   31        0.532642
   32        0.620306
   33        1.523220
   34        1.651340
   35        1.748747
   36        1.857361
   37        2.100856
   38        2.399926
   39        2.466896
   40        2.717680
   41        3.256109
   42        3.543273
   43        6.441226
   44        7.985209
   45        8.240089
   46        8.575791
   47        9.242407
   48       10.459076
   49       10.677176
   50       11.222783
   51       11.571345
   52       11.908372
 
  0.5000000E+00  0.1666667E+00  0.0000000E+00  0.2777778E-01
    1      -68.513313
    2      -68.479896
    3      -68.479930
    4      -68.458994
    5      -68.458314
    6      -68.458820
    7      -20.159928
    8      -20.155755
    9      -20.155376
   10      -20.060965
   11      -20.055911
   12      -11.076863
   13      -10.600255
   14      -10.293765
   15      -10.157934
   16       -4.877063
   17       -4.647638
   18       -4.626176
   19       -4.563803
   20       -4.544312
   21       -3.894816
   22       -2.115873
   23       -1.724127
   24       -1.215074
   25       -0.911775
   26       -0.410460
   27       -0.197335
   28       -0.118339
   29        0.043906
   30        0.331762
   31        0.532547
   32        0.703617
   33        1.552421
   34        1.639685
   35        1.702019
   36        1.844813
   37        2.270625
   38        2.437141
   39        2.624104
   40        2.743614
   41        3.050529
   42        3.305254
   43        6.632985
   44        8.185730
   45        8.523106
   46        9.181205
   47        9.565852
   48       10.169179
   49       10.437083
   50       10.870188
   51       11.523563
   52       12.217137
 
 -0.3333333E+00  0.1666667E+00  0.0000000E+00  0.1388889E-01
    1      -68.513254
    2      -68.479906
    3      -68.479932
    4      -68.457896
    5      -68.459640
    6      -68.458563
    7      -20.159804
    8      -20.155687
    9      -20.155403
   10      -20.061131
   11      -20.056003
   12      -11.338119
   13      -10.375997
   14      -10.240967
   15      -10.109245
   16       -4.808379
   17       -4.630290
   18       -4.622410
   19       -4.568212
   20       -4.556328
   21       -4.037061
   22       -2.170659
   23       -1.667019
   24       -1.083065
   25       -0.953951
   26       -0.497776
   27       -0.230195
   28       -0.082548
   29        0.002508
   30        0.331673
   31        0.449628
   32        0.767013
   33        1.529806
   34        1.635522
   35        1.767251
   36        1.818531
   37        2.127133
   38        2.296146
   39        2.566112
   40        2.732743
   41        3.330897
   42        3.537161
   43        6.506059
   44        8.235346
   45        8.391069
   46        8.617548
   47        9.428060
   48       10.007268
   49       10.409242
   50       11.035934
   51       11.726804
   52       12.178447
 
 -0.1666667E+00  0.1666667E+00  0.0000000E+00  0.1388889E-01
    1      -68.513197
    2      -68.479883
    3      -68.479883
    4      -68.458703
    5      -68.458452
    6      -68.458863
    7      -20.159527
    8      -20.155476
    9      -20.155387
   10      -20.061427
   11      -20.056134
   12      -11.565008
   13      -10.203046
   14      -10.147372
   15      -10.076870
   16       -4.721843
   17       -4.636094
   18       -4.608576
   19       -4.592372
   20       -4.570929
   21       -4.169728
   22       -2.035234
   23       -1.533985
   24       -1.127226
   25       -0.796647
   26       -0.664079
   27       -0.214219
   28       -0.086538
   29       -0.003235
   30        0.247863
   31        0.465591
   32        0.609863
   33        1.472077
   34        1.622731
   35        1.701418
   36        1.770484
   37        1.924119
   38        2.267034
   39        2.413649
   40        3.027226
   41        3.612828
   42        3.838844
   43        6.130155
   44        7.621752
   45        8.479279
   46        8.824127
   47        9.016214
   48        9.955392
   49       10.255876
   50       10.741026
   51       10.997309
   52       11.181263
 
  0.1666667E+00  0.3333333E+00  0.0000000E+00  0.2777778E-01
    1      -68.513310
    2      -68.479988
    3      -68.479865
    4      -68.459510
    5      -68.457728
    6      -68.458923
    7      -20.159835
    8      -20.155632
    9      -20.155368
   10      -20.061147
   11      -20.055995
   12      -11.222019
   13      -10.454426
   14      -10.260436
   15      -10.178004
   16       -4.880752
   17       -4.653161
   18       -4.630315
   19       -4.566631
   20       -4.546799
   21       -3.900836
   22       -2.097168
   23       -1.701238
   24       -1.079936
   25       -0.729998
   26       -0.482862
   27       -0.329550
   28       -0.076988
   29        0.053848
   30        0.301390
   31        0.530414
   32        0.640806
   33        1.535774
   34        1.644187
   35        1.770599
   36        1.840143
   37        2.194564
   38        2.261363
   39        2.508393
   40        2.700640
   41        3.268029
   42        3.548047
   43        6.436926
   44        7.993537
   45        8.222303
   46        8.566326
   47        9.335122
   48       10.068017
   49       10.772181
   50       10.837744
   51       11.259483
   52       11.793625
 
  0.3333333E+00  0.3333333E+00  0.0000000E+00  0.1388889E-01
    1      -68.513248
    2      -68.479886
    3      -68.479876
    4      -68.460159
    5      -68.458041
    6      -68.457965
    7      -20.160145
    8      -20.155723
    9      -20.155525
   10      -20.060831
   11      -20.055875
   12      -11.021433
   13      -10.467940
   14      -10.329990
   15      -10.303917
   16       -4.905176
   17       -4.665616
   18       -4.637062
   19       -4.553034
   20       -4.542799
   21       -3.923447
   22       -2.286669
   23       -1.868034
   24       -1.544124
   25       -0.502431
   26       -0.253415
   27       -0.193306
   28       -0.065392
   29        0.099823
   30        0.343287
   31        0.529719
   32        0.671601
   33        1.526680
   34        1.600230
   35        1.816431
   36        1.863847
   37        2.217693
   38        2.543310
   39        2.750430
   40        2.849913
   41        3.336493
   42        3.373225
   43        6.191386
   44        7.944655
   45        8.532120
   46        8.717186
   47        9.261323
   48       10.208340
   49       10.587301
   50       11.198204
   51       11.605107
   52       12.216064
 
  0.5000000E+00  0.3333333E+00  0.0000000E+00  0.2777778E-01
    1      -68.513298
    2      -68.479992
    3      -68.479915
    4      -68.459153
    5      -68.457983
    6      -68.459068
    7      -20.160263
    8      -20.155875
    9      -20.155525
   10      -20.060642
   11      -20.055812
   12      -10.981561
   13      -10.491736
   14      -10.372281
   15      -10.253962
   16       -4.891770
   17       -4.648555
   18       -4.627612
   19       -4.549881
   20       -4.541924
   21       -4.028305
   22       -2.476436
   23       -1.906266
   24       -1.490213
   25       -0.828901
   26       -0.252465
   27       -0.048331
   28        0.039918
   29        0.131065
   30        0.400671
   31        0.507479
   32        0.740095
   33        1.561664
   34        1.592768
   35        1.773911
   36        1.873306
   37        2.342286
   38        2.621777
   39        2.873085
   40        2.949510
   41        3.222890
   42        3.398798
   43        6.167791
   44        7.901370
   45        8.535396
   46        9.088999
   47        9.664706
   48        9.902443
   49       10.686631
   50       10.948946
   51       11.446602
   52       11.596507
 
 -0.3333333E+00  0.3333333E+00  0.0000000E+00  0.1388889E-01
    1      -68.513313
    2      -68.479851
    3      -68.479947
    4      -68.458259
    5      -68.459023
    6      -68.458915
    7      -20.160119
    8      -20.155832
    9      -20.155515
   10      -20.060819
   11      -20.055894
   12      -11.178031
   13      -10.431634
   14      -10.300959
   15      -10.156766
   16       -4.824034
   17       -4.642786
   18       -4.611787
   19       -4.557260
   20       -4.548964
   21       -4.112908
   22       -2.464118
   23       -1.747692
   24       -1.261309
   25       -1.133596
   26       -0.230474
   27       -0.145242
   28        0.039776
   29        0.090747
   30        0.383601
   31        0.531122
   32        0.799751
   33        1.551106
   34        1.629756
   35        1.746045
   36        1.850030
   37        2.403185
   38        2.484793
   39        2.597291
   40        2.762795
   41        3.205404
   42        3.634389
   43        6.344235
   44        8.191378
   45        8.286193
   46        8.936527
   47        9.356904
   48       10.032535
   49       10.675623
   50       10.965879
   51       11.162328
   52       11.829946
 
 -0.1666667E+00  0.3333333E+00  0.0000000E+00  0.1388889E-01
    1      -68.513250
    2      -68.479915
    3      -68.479905
    4      -68.457888
    5      -68.458700
    6      -68.459526
    7      -20.159804
    8      -20.155693
    9      -20.155397
   10      -20.061132
   11      -20.056003
   12      -11.338045
   13      -10.376345
   14      -10.240725
   15      -10.109287
   16       -4.790776
   17       -4.646398
   18       -4.615719
   19       -4.567713
   20       -4.558960
   21       -4.049821
   22       -2.178949
   23       -1.597433
   24       -1.212744
   25       -0.877935
   26       -0.506740
   27       -0.184557
   28       -0.069104
   29       -0.035601
   30        0.308885
   31        0.549767
   32        0.668463
   33        1.517017
   34        1.647670
   35        1.722714
   36        1.895787
   37        2.050124
   38        2.339208
   39        2.526204
   40        2.790679
   41        3.337379
   42        3.522628
   43        6.516395
   44        8.286885
   45        8.365010
   46        8.594664
   47        9.296866
   48       10.034280
   49       10.449765
   50       11.113973
   51       11.235048
   52       11.656346
 
  0.1666667E+00  0.5000000E+00  0.0000000E+00  0.2777778E-01
    1      -68.513312
    2      -68.479941
    3      -68.479867
    4      -68.459392
    5      -68.458409
    6      -68.458322
    7      -20.159928
    8      -20.155760
    9      -20.155371
   10      -20.060965
   11      -20.055911
   12      -11.076653
   13      -10.600663
   14      -10.293702
   15      -10.157869
   16       -4.863992
   17       -4.659188
   18       -4.624318
   19       -4.563795
   20       -4.544630
   21       -3.902697
   22       -2.134104
   23       -1.686554
   24       -1.261018
   25       -0.816432
   26       -0.474119
   27       -0.210845
   28       -0.065741
   29        0.009149
   30        0.320285
   31        0.590285
   32        0.640900
   33        1.548373
   34        1.637801
   35        1.710071
   36        1.880241
   37        2.215776
   38        2.475641
   39        2.548653
   40        2.818179
   41        3.024055
   42        3.324715
   43        6.638935
   44        8.187018
   45        8.499536
   46        9.190648
   47        9.507181
   48       10.167605
   49       10.368815
   50       10.644944
   51       11.707458
   52       12.357131
 
  0.3333333E+00  0.5000000E+00  0.0000000E+00  0.2777778E-01
    1      -68.513317
    2      -68.479940
    3      -68.479929
    4      -68.459746
    5      -68.458061
    6      -68.458408
    7      -20.160262
    8      -20.155878
    9      -20.155521
   10      -20.060642
   11      -20.055812
   12      -10.981259
   13      -10.493000
   14      -10.371379
   15      -10.253962
   16       -4.876583
   17       -4.668947
   18       -4.619993
   19       -4.549611
   20       -4.542445
   21       -4.034149
   22       -2.484266
   23       -1.894094
   24       -1.501629
   25       -0.765455
   26       -0.300335
   27       -0.037960
   28       -0.012981
   29        0.175838
   30        0.394000
   31        0.535077
   32        0.700710
   33        1.551856
   34        1.607637
   35        1.736275
   36        1.930160
   37        2.430460
   38        2.483878
   39        2.803321
   40        3.048112
   41        3.232345
   42        3.397605
   43        6.175899
   44        7.900742
   45        8.558510
   46        9.041607
   47        9.574186
   48       10.032614
   49       10.550532
   50       11.040502
   51       11.455794
   52       11.492470
 
  0.5000000E+00  0.5000000E+00  0.0000000E+00  0.1388889E-01
    1      -68.513268
    2      -68.479833
    3      -68.479881
    4      -68.459431
    5      -68.458941
    6      -68.457550
    7      -20.160394
    8      -20.155968
    9      -20.155524
   10      -20.060449
   11      -20.055742
   12      -10.917212
   13      -10.424289
   14      -10.376207
   15      -10.366922
   16       -4.897267
   17       -4.659182
   18       -4.609880
   19       -4.544668
   20       -4.540246
   21       -4.108537
   22       -2.649832
   23       -1.965151
   24       -1.519580
   25       -0.642666
   26       -0.474788
   27       -0.002529
   28        0.039737
   29        0.302248
   30        0.435146
   31        0.457002
   32        0.681336
   33        1.568193
   34        1.604016
   35        1.825342
   36        1.894612
   37        2.448703
   38        2.572160
   39        3.042583
   40        3.153892
   41        3.377155
   42        3.478068
   43        5.848586
   44        7.546083
   45        8.382510
   46        9.350550
   47        9.715661
   48       10.245228
   49       10.561157
   50       11.012975
   51       11.393714
   52       11.811823
 
  0.0000000E+00  0.0000000E+00  0.2500000E+00  0.1388889E-01
    1      -68.513400
    2      -68.479776
    3      -68.479783
    4      -68.460027
    5      -68.457895
    6      -68.457994
    7      -20.159293
    8      -20.155133
    9      -20.155135
   10      -20.061702
   11      -20.056219
   12      -11.542574
   13      -10.356336
   14      -10.073853
   15      -10.073852
   16       -4.947947
   17       -4.612133
   18       -4.612639
   19       -4.612633
   20       -4.557171
   21       -3.960679
   22       -2.081315
   23       -1.278451
   24       -0.809768
   25       -0.485953
   26       -0.485949
   27       -0.413039
   28       -0.008580
   29       -0.008564
   30        0.315156
   31        0.423235
   32        0.423250
   33        1.350997
   34        1.564568
   35        1.737597
   36        1.775985
   37        2.190855
   38        2.261803
   39        2.261802
   40        3.218888
   41        3.512427
   42        3.512395
   43        6.221261
   44        7.229901
   45        7.854897
   46        7.855173
   47        8.195121
   48        9.153579
   49        9.739938
   50       10.121832
   51       10.964406
   52       10.962519
 
  0.1666667E+00  0.0000000E+00  0.2500000E+00  0.2777778E-01
    1      -68.513197
    2      -68.479879
    3      -68.479785
    4      -68.458299
    5      -68.459424
    6      -68.458205
    7      -20.159396
    8      -20.155369
    9      -20.155214
   10      -20.061564
   11      -20.056173
   12      -11.563513
   13      -10.214048
   14      -10.149228
   15      -10.093311
   16       -4.850895
   17       -4.628192
   18       -4.607865
   19       -4.587564
   20       -4.563882
   21       -4.046521
   22       -1.982801
   23       -1.339249
   24       -1.133361
   25       -0.721048
   26       -0.447881
   27       -0.351894
   28       -0.118981
   29       -0.013920
   30        0.332966
   31        0.386299
   32        0.525822
   33        1.451880
   34        1.591022
   35        1.683768
   36        1.813848
   37        2.047254
   38        2.162557
   39        2.295950
   40        3.107804
   41        3.529386
   42        3.860723
   43        6.139808
   44        7.518007
   45        8.045933
   46        8.404441
   47        8.578850
   48        9.804897
   49       10.452413
   50       10.581345
   51       10.918536
   52       11.818226
 
  0.3333333E+00  0.0000000E+00  0.2500000E+00  0.2777778E-01
    1      -68.513204
    2      -68.479915
    3      -68.479875
    4      -68.458099
    5      -68.459475
    6      -68.458489
    7      -20.159619
    8      -20.155671
    9      -20.155255
   10      -20.061261
   11      -20.056042
   12      -11.402517
   13      -10.360456
   14      -10.213156
   15      -10.088638
   16       -4.791930
   17       -4.641213
   18       -4.617619
   19       -4.572536
   20       -4.562928
   21       -3.997941
   22       -1.978412
   23       -1.525651
   24       -1.080376
   25       -0.841640
   26       -0.565036
   27       -0.380752
   28       -0.183206
   29       -0.068976
   30        0.334057
   31        0.402091
   32        0.716434
   33        1.528365
   34        1.650520
   35        1.711725
   36        1.818450
   37        1.984952
   38        2.297993
   39        2.470454
   40        2.908325
   41        3.241381
   42        3.501979
   43        6.641369
   44        8.284286
   45        8.429806
   46        8.525294
   47        9.353319
   48       10.051608
   49       10.526979
   50       10.970945
   51       11.421922
   52       11.814332
 
  0.5000000E+00  0.0000000E+00  0.2500000E+00  0.2777778E-01
    1      -68.513341
    2      -68.479844
    3      -68.479942
    4      -68.459731
    5      -68.457682
    6      -68.458685
    7      -20.159737
    8      -20.155743
    9      -20.155221
   10      -20.061097
   11      -20.055952
   12      -11.131846
   13      -10.528373
   14      -10.418946
   15      -10.064990
   16       -4.854802
   17       -4.683837
   18       -4.613648
   19       -4.571230
   20       -4.544870
   21       -3.801093
   22       -1.981539
   23       -1.408766
   24       -1.083535
   25       -0.858048
   26       -0.692489
   27       -0.348815
   28       -0.236198
   29       -0.054713
   30        0.335736
   31        0.514706
   32        0.718695
   33        1.570807
   34        1.630600
   35        1.705677
   36        1.946818
   37        2.081805
   38        2.197792
   39        2.403740
   40        2.830673
   41        3.108538
   42        3.335996
   43        6.847415
   44        7.884275
   45        8.446345
   46        9.283495
   47        9.657181
   48       10.356704
   49       10.706800
   50       11.119863
   51       11.684573
   52       12.089541
 
 -0.3333333E+00  0.0000000E+00  0.2500000E+00  0.2777778E-01
    1      -68.513357
    2      -68.479864
    3      -68.480023
    4      -68.459717
    5      -68.457929
    6      -68.458552
    7      -20.159693
    8      -20.155562
    9      -20.155144
   10      -20.061295
   11      -20.056026
   12      -11.091210
   13      -10.572797
   14      -10.435454
   15      -10.075692
   16       -4.937138
   17       -4.687664
   18       -4.618337
   19       -4.583728
   20       -4.540111
   21       -3.715359
   22       -1.977885
   23       -1.252951
   24       -1.075651
   25       -0.885572
   26       -0.530259
   27       -0.245917
   28       -0.097148
   29       -0.019315
   30        0.289511
   31        0.585715
   32        0.590206
   33        1.561392
   34        1.624104
   35        1.693988
   36        1.886386
   37        2.104630
   38        2.227182
   39        2.444846
   40        2.701640
   41        2.961599
   42        3.455823
   43        6.718509
   44        7.560593
   45        8.119065
   46        8.937919
   47        9.067612
   48        9.870972
   49       10.332464
   50       10.664403
   51       10.890286
   52       11.200056
 
 -0.1666667E+00  0.0000000E+00  0.2500000E+00  0.2777778E-01
    1      -68.513440
    2      -68.479830
    3      -68.479873
    4      -68.460791
    5      -68.457653
    6      -68.457599
    7      -20.159472
    8      -20.155259
    9      -20.155099
   10      -20.061594
   11      -20.056161
   12      -11.350780
   13      -10.503318
   14      -10.187246
   15      -10.081006
   16       -4.975523
   17       -4.654332
   18       -4.618885
   19       -4.599676
   20       -4.547866
   21       -3.819504
   22       -2.093036
   23       -1.240638
   24       -0.840433
   25       -0.624116
   26       -0.441155
   27       -0.238558
   28       -0.094351
   29       -0.010264
   30        0.356496
   31        0.471690
   32        0.511268
   33        1.468047
   34        1.581049
   35        1.714601
   36        1.763810
   37        2.154652
   38        2.306437
   39        2.510109
   40        2.767005
   41        3.118843
   42        3.537181
   43        6.470651
   44        7.536058
   45        7.559475
   46        7.790707
   47        8.586815
   48        9.211042
   49        9.821620
   50       10.146881
   51       11.230895
   52       12.750627
 
  0.1666667E+00  0.1666667E+00  0.2500000E+00  0.1388889E-01
    1      -68.513257
    2      -68.479869
    3      -68.479846
    4      -68.458025
    5      -68.459839
    6      -68.458170
    7      -20.159534
    8      -20.155433
    9      -20.155405
   10      -20.061430
   11      -20.056136
   12      -11.546170
   13      -10.208747
   14      -10.148957
   15      -10.101207
   16       -4.765917
   17       -4.627488
   18       -4.613273
   19       -4.582096
   20       -4.570772
   21       -4.129939
   22       -2.039554
   23       -1.533507
   24       -1.099300
   25       -0.755787
   26       -0.652026
   27       -0.258505
   28       -0.072949
   29       -0.001712
   30        0.263064
   31        0.465744
   32        0.602260
   33        1.475238
   34        1.631365
   35        1.700666
   36        1.783262
   37        1.946658
   38        2.255795
   39        2.397855
   40        2.960566
   41        3.667623
   42        3.799726
   43        6.135862
   44        7.651443
   45        8.336878
   46        8.686667
   47        8.951639
   48       10.015527
   49       10.329243
   50       10.742344
   51       10.916718
   52       11.158571
 
  0.3333333E+00  0.1666667E+00  0.2500000E+00  0.1388889E-01
    1      -68.513229
    2      -68.479940
    3      -68.479870
    4      -68.458305
    5      -68.459480
    6      -68.458309
    7      -20.159800
    8      -20.155709
    9      -20.155395
   10      -20.061132
   11      -20.056005
   12      -11.353609
   13      -10.358895
   14      -10.253202
   15      -10.090869
   16       -4.767587
   17       -4.655045
   18       -4.611320
   19       -4.568441
   20       -4.560946
   21       -4.072816
   22       -2.195747
   23       -1.543643
   24       -1.269976
   25       -0.916899
   26       -0.486509
   27       -0.153070
   28       -0.074643
   29       -0.053423
   30        0.304509
   31        0.548390
   32        0.681321
   33        1.520688
   34        1.637872
   35        1.707699