       N       E                     dE             d eps       ncg     rms          ort
DAV:   1     0.485591485504E+04    0.48559E+04   -0.15913E+05  6344   0.709E+03
DAV:   2     0.132669065517E+04   -0.35292E+04   -0.34528E+04  6344   0.210E+03
DAV:   3     0.383845964237E+03   -0.94284E+03   -0.91565E+03  6344   0.502E+02
DAV:   4     0.208804619539E+03   -0.17504E+03   -0.16548E+03  6344   0.206E+02
DAV:   5     0.188948809269E+03   -0.19856E+02   -0.18970E+02  6344   0.650E+01
SDA:   6     0.184041291045E+03   -0.49075E+01   -0.18970E+02  6344   0.491E+04 0.000E+00
CGA:   7     0.757377272193E+01   -0.17647E+03   -0.47522E+03  6344   0.397E+03-0.900E+03
CGA:   8    -0.311147522927E+02   -0.38689E+02   -0.33751E+02  6344   0.238E+02 0.346E+02
CGA:   9    -0.344476564848E+02   -0.33329E+01   -0.32825E+01  6344   0.138E+02-0.446E-01
CGA:  10    -0.370421072427E+02   -0.25945E+01   -0.25926E+01  6344   0.633E+01 0.723E+00
CGA:  11    -0.379297672093E+02   -0.88766E+00   -0.91336E+00  6344   0.151E+01 0.800E-01
CGA:  12    -0.383100566151E+02   -0.38029E+00   -0.38022E+00  6344   0.909E+00-0.503E-03
CGA:  13    -0.384950414033E+02   -0.18498E+00   -0.18500E+00  6344   0.245E+00-0.147E-02
CGA:  14    -0.385454258119E+02   -0.50384E-01   -0.50335E-01  6344   0.112E+00 0.209E-02
CGA:  15    -0.385720999539E+02   -0.26674E-01   -0.26597E-01  6344   0.392E-01 0.163E-02
CGA:  16    -0.385807640057E+02   -0.86641E-02   -0.86425E-02  6344   0.125E-01 0.817E-03
CGA:  17    -0.385843489895E+02   -0.35850E-02   -0.35629E-02  6344   0.483E-02 0.247E-03
CGA:  18    -0.385857138355E+02   -0.13648E-02   -0.13926E-02  6344   0.201E-02-0.331E-03
CGA:  19    -0.385861291102E+02   -0.41527E-03   -0.41626E-03  6344   0.935E-03-0.474E-04
CGA:  20    -0.385862823240E+02   -0.15321E-03   -0.15672E-03  6344   0.248E-03 0.113E-03
CGA:  21    -0.385863230504E+02   -0.40726E-04   -0.44178E-04  6344   0.808E-04 0.817E-04
CGA:  22    -0.385863311304E+02   -0.80800E-05   -0.12319E-04  6344   0.311E-04 0.504E-04
CGA:  23    -0.385863315426E+02   -0.41214E-06   -0.28654E-05  6344   0.190E-04 0.239E-04
CGA:  24    -0.385863315431E+02   -0.56025E-09   -0.16620E-05  6344   0.138E-04 0.163E-04
CGA:  25    -0.385863314101E+02    0.13300E-06   -0.11353E-05  6344   0.109E-04 0.124E-04
   1 F= -.38586331E+02 E0= -.38586331E+02  d E =-.385863E+02
