 vasp.5.3.5 31Mar14 (build Apr 15 2015 10:45:18) complex                        
  
 executed on             LinuxIFC date 2016.02.25  13:33:14
 running on  128 total cores
 distrk:  each k-point on   16 cores,    8 groups
 distr:  one band on NCORES_PER_BAND=   4 cores,    4 groups


--------------------------------------------------------------------------------------------------------


 INCAR:
 POTCAR:    PAW_PBE Cu_pv 06Sep2000               
 POTCAR:    PAW_PBE Zn 06Sep2000                  
 POTCAR:    PAW_PBE Sn_d 06Sep2000                
 POTCAR:    PAW_PBE S 06Sep2000                   

 ----------------------------------------------------------------------------- 
|                                                                             |
|           W    W    AA    RRRRR   N    N  II  N    N   GGGG   !!!           |
|           W    W   A  A   R    R  NN   N  II  NN   N  G    G  !!!           |
|           W    W  A    A  R    R  N N  N  II  N N  N  G       !!!           |
|           W WW W  AAAAAA  RRRRR   N  N N  II  N  N N  G  GGG   !            |
|           WW  WW  A    A  R   R   N   NN  II  N   NN  G    G                |
|           W    W  A    A  R    R  N    N  II  N    N   GGGG   !!!           |
|                                                                             |
|      For optimal performance we recommend to set                            |
|        NCORE= 4 - approx SQRT( number of cores)                             |
|      NCORE specifies how many cores store one orbital (NPAR=cpu/NCORE).     |
|      This setting can  greatly improve the performance of VASP for DFT.     |
|      The default, NPAR=number of cores might be grossly inefficient         |
|      on modern multi-core architectures or massively parallel machines.     |
|      Do your own testing !!!!                                               |
|      Unfortunately you need to use the default for GW and RPA calculations. |
|      (for HF NCORE is supported but not extensively tested yet)             |
|                                                                             |
 ----------------------------------------------------------------------------- 


 ----------------------------------------------------------------------------- 
|                                                                             |
|           W    W    AA    RRRRR   N    N  II  N    N   GGGG   !!!           |
|           W    W   A  A   R    R  NN   N  II  NN   N  G    G  !!!           |
|           W    W  A    A  R    R  N N  N  II  N N  N  G       !!!           |
|           W WW W  AAAAAA  RRRRR   N  N N  II  N  N N  G  GGG   !            |
|           WW  WW  A    A  R   R   N   NN  II  N   NN  G    G                |
|           W    W  A    A  R    R  N    N  II  N    N   GGGG   !!!           |
|                                                                             |
|      You have enabled k-point parallelism (KPAR>1).                         |
|      This developmental code was originally  written by Paul Kent at ORNL,  |
|      and carefully double checked in Vienna.                                |
|      GW as well as linear response parallelism added by Martijn Marsman     |
|      and Georg Kresse.                                                      |
|      Carefully verify results versus KPAR=1.                                |
|      Report problems to Paul Kent and Vienna.                               |
|                                                                             |
 ----------------------------------------------------------------------------- 


 ----------------------------------------------------------------------------- 
|                                                                             |
|           W    W    AA    RRRRR   N    N  II  N    N   GGGG   !!!           |
|           W    W   A  A   R    R  NN   N  II  NN   N  G    G  !!!           |
|           W    W  A    A  R    R  N N  N  II  N N  N  G       !!!           |
|           W WW W  AAAAAA  RRRRR   N  N N  II  N  N N  G  GGG   !            |
|           WW  WW  A    A  R   R   N   NN  II  N   NN  G    G                |
|           W    W  A    A  R    R  N    N  II  N    N   GGGG   !!!           |
|                                                                             |
|      You have selected ISYM=2 for HF type calculation. This will symmetrize |
|      the charge density but not the exchange potential.                     |
|      I suggest to use ISYM=3 instead. This uses symmetry to obtain          |
|      the orbitals at all k-points in the Brillouine zone, but does not      |
|      apply symmetry to the Hartree potential directly.                      |
|      The resultant charge might have lower symmetry than the crystal,       |
|      but at least, Hartree and exchange are fully compatible.               |
|                                                                             |
 ----------------------------------------------------------------------------- 

 POTCAR:    PAW_PBE Cu_pv 06Sep2000               
   VRHFIN =Cu: d10 p1                                                           
   LEXCH  = PE                                                                  
   EATOM  =  4120.1201 eV,  302.8203 Ry                                         
                                                                                
   TITEL  = PAW_PBE Cu_pv 06Sep2000                                             
   LULTRA =        F    use ultrasoft PP ?                                      
   IUNSCR =        1    unscreen: 0-lin 1-nonlin 2-no                           
   RPACOR =    1.500    partial core radius                                     
   POMASS =   63.546; ZVAL   =   17.000    mass and valenz                      
   RCORE  =    2.000    outmost cutoff radius                                   
   RWIGS  =    2.000; RWIGS  =    1.058    wigner-seitz radius (au A)           
   ENMAX  =  368.648; ENMIN  =  276.486 eV                                      
   RCLOC  =    1.304    cutoff for local pot                                    
   LCOR   =        T    correct aug charges                                     
   LPAW   =        T    paw PP                                                  
   EAUG   =  758.233                                                            
   DEXC   =    0.000                                                            
   RMAX   =    2.046    core radius for proj-oper                               
   RAUG   =    1.300    factor for augmentation sphere                          
   RDEP   =    2.025    radius for radial grids                                 
   RDEPT  =    1.558    core radius for aug-charge                              
                                                                                
   Atomic configuration                                                         
    8 entries                                                                   
     n  l   j            E        occ.                                          
     1  0  0.50     -8850.2467   2.0000                                         
     2  0  0.50     -1062.3498   2.0000                                         
     2  1  1.50      -916.8226   6.0000                                         
     3  0  0.50      -114.6929   2.0000                                         
     3  1  1.50       -72.1325   6.0000                                         
     3  2  2.50        -5.0394  10.0000                                         
     4  0  0.50        -4.6097   1.0000                                         
     4  3  2.50        -1.3606   0.0000                                         
   Description                                                                  
     l       E           TYP  RCUT    TYP  RCUT                                 
     1    -72.1324777     23  1.700                                             
     1     -1.3605826     23  1.700                                             
     2     -5.0393776     23  2.000                                             
     2     -6.3999602     23  2.000                                             
     0     -4.6097062     23  1.800                                             
     0     14.1620818     23  1.800                                             
  local pseudopotential read in
  partial core-charges read in
  partial kinetic energy density read in
  atomic valenz-charges read in
  non local Contribution for L=           1  read in
    real space projection operators read in
  non local Contribution for L=           1  read in
    real space projection operators read in
  non local Contribution for L=           2  read in
    real space projection operators read in
  non local Contribution for L=           2  read in
    real space projection operators read in
  non local Contribution for L=           0  read in
    real space projection operators read in
  non local Contribution for L=           0  read in
    real space projection operators read in
    PAW grid and wavefunctions read in
 
   number of l-projection  operators is LMAX  =           6
   number of lm-projection operators is LMMAX =          18
 
 POTCAR:    PAW_PBE Zn 06Sep2000                  
   VRHFIN =Zn: d10 p2                                                           
   LEXCH  = PE                                                                  
   EATOM  =  1748.8345 eV,  128.5357 Ry                                         
                                                                                
   TITEL  = PAW_PBE Zn 06Sep2000                                                
   LULTRA =        F    use ultrasoft PP ?                                      
   IUNSCR =        1    unscreen: 0-lin 1-nonlin 2-no                           
   RPACOR =    2.000    partial core radius                                     
   POMASS =   65.390; ZVAL   =   12.000    mass and valenz                      
   RCORE  =    2.300    outmost cutoff radius                                   
   RWIGS  =    2.400; RWIGS  =    1.270    wigner-seitz radius (au A)           
   ENMAX  =  276.723; ENMIN  =  207.542 eV                                      
   RCLOC  =    1.828    cutoff for local pot                                    
   LCOR   =        T    correct aug charges                                     
   LPAW   =        T    paw PP                                                  
   EAUG   =  575.892                                                            
   DEXC   =    0.000                                                            
   RMAX   =    2.347    core radius for proj-oper                               
   RAUG   =    1.300    factor for augmentation sphere                          
   RDEP   =    2.324    radius for radial grids                                 
   RDEPT  =    1.788    core radius for aug-charge                              
                                                                                
   Atomic configuration                                                         
    9 entries                                                                   
     n  l   j            E        occ.                                          
     1  0  0.50     -9524.6913   2.0000                                         
     2  0  0.50     -1158.1882   2.0000                                         
     2  1  1.50     -1003.8506   6.0000                                         
     3  0  0.50      -129.2194   2.0000                                         
     3  1  1.50       -83.3890   6.0000                                         
     3  2  2.50       -10.1410  10.0000                                         
     4  0  0.50        -5.9785   2.0000                                         
     4  1  0.50        -4.0817   0.0000                                         
     4  3  2.50        -1.3606   0.0000                                         
   Description                                                                  
     l       E           TYP  RCUT    TYP  RCUT                                 
     2    -10.1410010     23  2.300                                             
     2    -11.5015836     23  2.300                                             
     0     -5.9785163     23  2.300                                             
     0      1.1858015     23  2.300                                             
     1     -2.7211652     23  2.300                                             
     1     13.2444212     23  2.300                                             
  local pseudopotential read in
  partial core-charges read in
  partial kinetic energy density read in
  atomic valenz-charges read in
  non local Contribution for L=           2  read in
    real space projection operators read in
  non local Contribution for L=           2  read in
    real space projection operators read in
  non local Contribution for L=           0  read in
    real space projection operators read in
  non local Contribution for L=           0  read in
    real space projection operators read in
  non local Contribution for L=           1  read in
    real space projection operators read in
  non local Contribution for L=           1  read in
    real space projection operators read in
    PAW grid and wavefunctions read in
 
   number of l-projection  operators is LMAX  =           6
   number of lm-projection operators is LMMAX =          18
 
 POTCAR:    PAW_PBE Sn_d 06Sep2000                
   VRHFIN =Sn: s2p2                                                             
   LEXCH  = PE                                                                  
   EATOM  =  1893.1092 eV,  139.1396 Ry                                         
                                                                                
   TITEL  = PAW_PBE Sn_d 06Sep2000                                              
   LULTRA =        F    use ultrasoft PP ?                                      
   IUNSCR =        1    unscreen: 0-lin 1-nonlin 2-no                           
   RPACOR =    2.300    partial core radius                                     
   POMASS =  118.710; ZVAL   =   14.000    mass and valenz                      
   RCORE  =    2.500    outmost cutoff radius                                   
   RWIGS  =    2.960; RWIGS  =    1.566    wigner-seitz radius (au A)           
   ENMAX  =  241.083; ENMIN  =  180.812 eV                                      
   ICORE  =        3    local potential                                         
   LCOR   =        T    correct aug charges                                     
   LPAW   =        T    paw PP                                                  
   EAUG   =  439.825                                                            
   DEXC   =    0.000                                                            
   RMAX   =    2.560    core radius for proj-oper                               
   RAUG   =    1.300    factor for augmentation sphere                          
   RDEP   =    2.659    radius for radial grids                                 
   RDEPT  =    2.046    core radius for aug-charge                              
                                                                                
   Atomic configuration                                                         
   12 entries                                                                   
     n  l   j            E        occ.                                          
     1  0  0.50    -29007.2859   2.0000                                         
     2  0  0.50     -4378.8056   2.0000                                         
     2  1  1.50     -3930.4293   6.0000                                         
     3  0  0.50      -845.0264   2.0000                                         
     3  1  1.50      -698.5725   6.0000                                         
     3  2  2.50      -473.2839  10.0000                                         
     4  0  0.50      -133.9036   2.0000                                         
     4  1  1.50       -89.6752   6.0000                                         
     4  2  2.50       -25.8375  10.0000                                         
     5  0  0.50       -10.5484   2.0000                                         
     5  1  0.50        -3.6940   2.0000                                         
     4  3  2.50        -2.7416   0.0000                                         
   Description                                                                  
     l       E           TYP  RCUT    TYP  RCUT                                 
     2    -25.8374624     23  2.500                                             
     2     -5.4423304     23  2.500                                             
     0    -10.5483727     23  2.500                                             
     0     13.6058260     23  2.500                                             
     1     -3.6939829     23  2.500                                             
     1      1.9821976     23  2.500                                             
     3     -1.3605826      7  2.500                                             
  local pseudopotential read in
  partial core-charges read in
  partial kinetic energy density read in
  atomic valenz-charges read in
  non local Contribution for L=           2  read in
    real space projection operators read in
  non local Contribution for L=           2  read in
    real space projection operators read in
  non local Contribution for L=           0  read in
    real space projection operators read in
  non local Contribution for L=           0  read in
    real space projection operators read in
  non local Contribution for L=           1  read in
    real space projection operators read in
  non local Contribution for L=           1  read in
    real space projection operators read in
    PAW grid and wavefunctions read in
 
   number of l-projection  operators is LMAX  =           6
   number of lm-projection operators is LMMAX =          18
 
 POTCAR:    PAW_PBE S 06Sep2000                   
   VRHFIN =S : s2p4                                                             
   LEXCH  = PE                                                                  
   EATOM  =   276.8230 eV,   20.3459 Ry                                         
                                                                                
   TITEL  = PAW_PBE S 06Sep2000                                                 
   LULTRA =        F    use ultrasoft PP ?                                      
   IUNSCR =        1    unscreen: 0-lin 1-nonlin 2-no                           
   RPACOR =    1.500    partial core radius                                     
   POMASS =   32.066; ZVAL   =    6.000    mass and valenz                      
   RCORE  =    1.900    outmost cutoff radius                                   
   RWIGS  =    2.200; RWIGS  =    1.164    wigner-seitz radius (au A)           
   ENMAX  =  258.689; ENMIN  =  194.016 eV                                      
   ICORE  =        2    local potential                                         
   LCOR   =        T    correct aug charges                                     
   LPAW   =        T    paw PP                                                  
   EAUG   =  335.092                                                            
   DEXC   =    0.000                                                            
   RMAX   =    1.942    core radius for proj-oper                               
   RAUG   =    1.300    factor for augmentation sphere                          
   RDEP   =    1.954    radius for radial grids                                 
   RDEPT  =    1.744    core radius for aug-charge                              
                                                                                
   Atomic configuration                                                         
    6 entries                                                                   
     n  l   j            E        occ.                                          
     1  0  0.50     -2405.8406   2.0000                                         
     2  0  0.50      -211.7007   2.0000                                         
     2  1  1.50      -156.4958   6.0000                                         
     3  0  0.50       -17.2562   2.0000                                         
     3  1  0.50        -7.0085   4.0000                                         
     3  2  1.50        -6.8029   0.0000                                         
   Description                                                                  
     l       E           TYP  RCUT    TYP  RCUT                                 
     0    -17.2561641     23  1.900                                             
     0    -15.8743224     23  1.900                                             
     1     -7.0085400     23  1.900                                             
     1     -2.7779785     23  1.900                                             
     2     -6.8029130     23  1.900                                             
  local pseudopotential read in
  partial core-charges read in
  partial kinetic energy density read in
  atomic valenz-charges read in
  non local Contribution for L=           0  read in
    real space projection operators read in
  non local Contribution for L=           0  read in
    real space projection operators read in
  non local Contribution for L=           1  read in
    real space projection operators read in
  non local Contribution for L=           1  read in
    real space projection operators read in
    PAW grid and wavefunctions read in
 
   number of l-projection  operators is LMAX  =           4
   number of lm-projection operators is LMMAX =           8
 
  PAW_PBE Cu_pv 06Sep2000               :
 energy of atom  1       EATOM=-4120.1201
 kinetic energy error for atom=    0.0655 (will be added to EATOM!!)
  PAW_PBE Zn 06Sep2000                  :
 energy of atom  2       EATOM=-1748.8345
 kinetic energy error for atom=    0.0029 (will be added to EATOM!!)
  PAW_PBE Sn_d 06Sep2000                :
 energy of atom  3       EATOM=-1893.1092
 kinetic energy error for atom=    0.0032 (will be added to EATOM!!)
  PAW_PBE S 06Sep2000                   :
 energy of atom  4       EATOM= -276.8230
 kinetic energy error for atom=    0.0020 (will be added to EATOM!!)
 
 
 POSCAR: Cu2ZnSnS4 (LaFond 2014, 293 K)          
  positions in direct lattice
  velocities in cartesian coordinates
 exchange correlation table for  LEXCH =        8
   RHO(1)=    0.500       N(1)  =     2000
   RHO(2)=  100.500       N(2)  =     4000
 


--------------------------------------------------------------------------------------------------------


 ion  position               nearest neighbor table
   1  0.000  0.000  0.000-   5 2.32   6 2.32   7 2.32   8 2.32
   2  0.750  0.250  0.500-   8 2.32   6 2.32   7 2.32   5 2.32
   3  0.500  0.500  0.000-   8 2.35   6 2.35   7 2.35   5 2.35
   4  0.250  0.750  0.500-   8 2.42   6 2.42   7 2.42   5 2.42
   5  0.118  0.134  0.244-   1 2.32   2 2.32   3 2.35   4 2.42
   6  0.639  0.623  0.244-   1 2.32   2 2.32   3 2.35   4 2.42
   7  0.866  0.361  0.756-   1 2.32   2 2.32   3 2.35   4 2.42
   8  0.377  0.882  0.756-   1 2.32   2 2.32   3 2.35   4 2.42
 
  LATTYP: Found a body centered tetragonal cell.
 ALAT       =     5.4353000000
 C/A-ratio  =     1.9955400000
  
  Lattice vectors:
  
 A1 = (   2.7176500000,  -2.7176500000,   5.4231792810)
 A2 = (  -2.7176500000,   2.7176500000,   5.4231792810)
 A3 = (  -2.7176500000,  -2.7176500000,  -5.4231792810)


Analysis of symmetry for initial positions (statically):
=====================================================================
 Subroutine PRICEL returns:
 Original cell was already a primitive cell.
 

 Routine SETGRP: Setting up the symmetry group for a 
 body centered tetragonal supercell.


 Subroutine GETGRP returns: Found  4 space group operations
 (whereof  4 operations were pure point group operations)
 out of a pool of 16 trial point group operations.


The static configuration has the point symmetry S_4 .


Analysis of symmetry for dynamics (positions and initial velocities):
=====================================================================
 Subroutine PRICEL returns:
 Original cell was already a primitive cell.
 

 Routine SETGRP: Setting up the symmetry group for a 
 body centered tetragonal supercell.


 Subroutine GETGRP returns: Found  4 space group operations
 (whereof  4 operations were pure point group operations)
 out of a pool of 16 trial point group operations.


The dynamic configuration has the point symmetry S_4 .
 
 
 KPOINTS: Automatically generated mesh (51 to igno
  k-points in reciprocal lattice
Space group operators:
 irot       det(A)        alpha          n_x          n_y          n_z        tau_x        tau_y        tau_z
    1     1.000000     0.000000     1.000000     0.000000     0.000000     0.000000     0.000000     0.000000
    2    -1.000000    90.000000     0.000000     0.000000    -1.000000     0.000000     0.000000     0.000000
    3     1.000000   180.000000     0.000000     0.000000     1.000000     0.000000     0.000000     0.000000
    4    -1.000000    90.000000     0.000000     0.000000     1.000000     0.000000     0.000000     0.000000

 ----------------------------------------------------------------------------- 
|                                                                             |
|           W    W    AA    RRRRR   N    N  II  N    N   GGGG   !!!           |
|           W    W   A  A   R    R  NN   N  II  NN   N  G    G  !!!           |
|           W    W  A    A  R    R  N N  N  II  N N  N  G       !!!           |
|           W WW W  AAAAAA  RRRRR   N  N N  II  N  N N  G  GGG   !            |
|           WW  WW  A    A  R   R   N   NN  II  N   NN  G    G                |
|           W    W  A    A  R    R  N    N  II  N    N   GGGG   !!!           |
|                                                                             |
|      Your generating k-point grid is not commensurate to the symmetry       |
|      of the lattice.  This can cause   slow convergence with respect        |
|      to k-points for HF type calculations                                   |
|      suggested SOLUTIONS:                                                   |
|       ) if not already the case, use automatic k-point generation           |
|       ) shift your grid to Gamma (G) (e.g. required for hex or fcc lattice) |
|                                                                             |
 ----------------------------------------------------------------------------- 

 
 Subroutine IBZKPT_HF returns following result:
 ==============================================
 
 Found    407 k-points in 1st BZ
 the following    407 k-points will be used (e.g. in the exchange kernel)
 Following reciprocal coordinates:   # in IRBZ
  0.000000  0.000000  0.000000       1 t-inv F
  0.166667  0.000000  0.000000       2 t-inv F
  0.333333  0.000000  0.000000       3 t-inv F
  0.500000  0.000000  0.000000       4 t-inv F
  0.166667  0.166667  0.000000       5 t-inv F
  0.333333  0.166667  0.000000       6 t-inv F
  0.500000  0.166667  0.000000       7 t-inv F
 -0.333333  0.166667  0.000000       8 t-inv F
 -0.166667  0.166667  0.000000       9 t-inv F
  0.166667  0.333333  0.000000      10 t-inv F
  0.333333  0.333333  0.000000      11 t-inv F
  0.500000  0.333333  0.000000      12 t-inv F
 -0.333333  0.333333  0.000000      13 t-inv F
 -0.166667  0.333333  0.000000      14 t-inv F
  0.166667  0.500000  0.000000      15 t-inv F
  0.333333  0.500000  0.000000      16 t-inv F
  0.500000  0.500000  0.000000      17 t-inv F
  0.000000  0.000000  0.250000      18 t-inv F
  0.166667  0.000000  0.250000      19 t-inv F
  0.333333  0.000000  0.250000      20 t-inv F
  0.500000  0.000000  0.250000      21 t-inv F
 -0.333333  0.000000  0.250000      22 t-inv F
 -0.166667  0.000000  0.250000      23 t-inv F
  0.166667  0.166667  0.250000      24 t-inv F
  0.333333  0.166667  0.250000      25 t-inv F
  0.500000  0.166667  0.250000      26 t-inv F
 -0.333333  0.166667  0.250000      27 t-inv F
 -0.166667  0.166667  0.250000      28 t-inv F
  0.166667  0.333333  0.250000      29 t-inv F
  0.333333  0.333333  0.250000      30 t-inv F
  0.500000  0.333333  0.250000      31 t-inv F
 -0.333333  0.333333  0.250000      32 t-inv F
 -0.166667  0.333333  0.250000      33 t-inv F
  0.166667  0.500000  0.250000      34 t-inv F
  0.333333  0.500000  0.250000      35 t-inv F
  0.500000  0.500000  0.250000      36 t-inv F
  0.166667 -0.333333  0.250000      37 t-inv F
 -0.333333 -0.333333  0.250000      38 t-inv F
 -0.166667 -0.333333  0.250000      39 t-inv F
  0.333333 -0.166667  0.250000      40 t-inv F
 -0.333333 -0.166667  0.250000      41 t-inv F
 -0.166667 -0.166667  0.250000      42 t-inv F
  0.000000  0.000000  0.500000      43 t-inv F
  0.166667  0.000000  0.500000      44 t-inv F
  0.333333  0.000000  0.500000      45 t-inv F
  0.166667  0.166667  0.500000      46 t-inv F
 -0.333333  0.166667  0.500000      47 t-inv F
 -0.166667  0.166667  0.500000      48 t-inv F
  0.333333  0.333333  0.500000      49 t-inv F
 -0.333333  0.333333  0.500000      50 t-inv F
 -0.166667  0.333333  0.500000      51 t-inv F
  0.000000  0.050000  0.000000      52 t-inv F
  0.000000  0.100000  0.000000      53 t-inv F
  0.000000  0.150000  0.000000      54 t-inv F
  0.000000  0.200000  0.000000      55 t-inv F
  0.000000  0.250000  0.000000      56 t-inv F
  0.000000  0.300000  0.000000      57 t-inv F
  0.000000  0.350000  0.000000      58 t-inv F
  0.000000  0.400000  0.000000      59 t-inv F
  0.000000  0.450000  0.000000      60 t-inv F
  0.000000  0.500000  0.000000      61 t-inv F
  0.050000  0.500000  0.000000      62 t-inv F
  0.100000  0.500000  0.000000      63 t-inv F
  0.150000  0.500000  0.000000      64 t-inv F
  0.200000  0.500000  0.000000      65 t-inv F
  0.250000  0.500000  0.000000      66 t-inv F
  0.300000  0.500000  0.000000      67 t-inv F
  0.350000  0.500000  0.000000      68 t-inv F
  0.400000  0.500000  0.000000      69 t-inv F
  0.450000  0.500000  0.000000      70 t-inv F
  0.500000  0.500000  0.000000      71 t-inv F
  0.428571  0.428571  0.000000      72 t-inv F
  0.392857  0.392857  0.000000      73 t-inv F
  0.357143  0.357143  0.000000      74 t-inv F
  0.321429  0.321429  0.000000      75 t-inv F
  0.285714  0.285714  0.000000      76 t-inv F
  0.250000  0.250000  0.000000      77 t-inv F
  0.214286  0.214286  0.000000      78 t-inv F
  0.178571  0.178571  0.000000      79 t-inv F
  0.142857  0.142857  0.000000      80 t-inv F
  0.107143  0.107143  0.000000      81 t-inv F
  0.071429  0.071429  0.000000      82 t-inv F
  0.035714  0.035714  0.000000      83 t-inv F
  0.000000  0.000000  0.000000      84 t-inv F
  0.000000  0.000000  0.125000      85 t-inv F
  0.000000  0.000000  0.187500      86 t-inv F
  0.000000  0.000000  0.250000      87 t-inv F
  0.000000  0.000000  0.312500      88 t-inv F
  0.000000  0.000000  0.375000      89 t-inv F
  0.000000  0.000000  0.437500      90 t-inv F
  0.000000  0.000000  0.500000      91 t-inv F
  0.000000  0.100000  0.500000      92 t-inv F
  0.000000  0.150000  0.500000      93 t-inv F
  0.000000  0.200000  0.500000      94 t-inv F
  0.000000  0.250000  0.500000      95 t-inv F
  0.000000  0.300000  0.500000      96 t-inv F
  0.000000  0.350000  0.500000      97 t-inv F
  0.000000  0.400000  0.500000      98 t-inv F
  0.000000  0.450000  0.500000      99 t-inv F
  0.000000  0.500000  0.500000     100 t-inv F
  0.100000  0.500000  0.500000     101 t-inv F
  0.150000  0.500000  0.500000     102 t-inv F
  0.200000  0.500000  0.500000     103 t-inv F
  0.250000  0.500000  0.500000     104 t-inv F
  0.300000  0.500000  0.500000     105 t-inv F
  0.350000  0.500000  0.500000     106 t-inv F
  0.400000  0.500000  0.500000     107 t-inv F
  0.450000  0.500000  0.500000     108 t-inv F
  0.500000  0.500000  0.500000     109 t-inv F
  0.428571  0.428571  0.500000     110 t-inv F
  0.392857  0.392857  0.500000     111 t-inv F
  0.357143  0.357143  0.500000     112 t-inv F
  0.321429  0.321429  0.500000     113 t-inv F
  0.285714  0.285714  0.500000     114 t-inv F
  0.250000  0.250000  0.500000     115 t-inv F
  0.214286  0.214286  0.500000     116 t-inv F
  0.178571  0.178571  0.500000     117 t-inv F
  0.142857  0.142857  0.500000     118 t-inv F
  0.107143  0.107143  0.500000     119 t-inv F
  0.071429  0.071429  0.500000     120 t-inv F
  0.035714  0.035714  0.500000     121 t-inv F
  0.000000  0.000000  0.500000     122 t-inv F
  0.000000 -0.166667  0.000000       2 t-inv F
 -0.166667  0.000000 -0.166667       2 t-inv F
  0.000000  0.166667  0.166667       2 t-inv F
  0.000000 -0.333333  0.000000       3 t-inv F
 -0.333333  0.000000 -0.333333       3 t-inv F
  0.000000  0.333333  0.333333       3 t-inv F
  0.000000 -0.500000  0.000000       4 t-inv F
 -0.500000  0.000000 -0.500000       4 t-inv F
  0.000000  0.500000  0.500000       4 t-inv F
  0.166667 -0.166667  0.166667       5 t-inv F
 -0.166667 -0.166667 -0.333333       5 t-inv F
 -0.166667  0.166667  0.166667       5 t-inv F
  0.166667 -0.333333  0.166667       6 t-inv F
 -0.333333 -0.166667 -0.500000       6 t-inv F
 -0.166667  0.333333  0.333333       6 t-inv F
  0.166667 -0.500000  0.166667       7 t-inv F
 -0.500000 -0.166667 -0.666667       7 t-inv F
 -0.166667  0.500000  0.500000       7 t-inv F
  0.166667  0.333333  0.166667       8 t-inv F
  0.333333 -0.166667  0.166667       8 t-inv F
 -0.166667 -0.333333 -0.333333       8 t-inv F
  0.166667  0.166667  0.166667       9 t-inv F
  0.166667 -0.166667  0.000000       9 t-inv F
 -0.166667 -0.166667 -0.166667       9 t-inv F
  0.333333 -0.166667  0.333333      10 t-inv F
 -0.166667 -0.333333 -0.500000      10 t-inv F
 -0.333333  0.166667  0.166667      10 t-inv F
  0.333333 -0.333333  0.333333      11 t-inv F
 -0.333333 -0.333333 -0.666667      11 t-inv F
 -0.333333  0.333333  0.333333      11 t-inv F
  0.333333 -0.500000  0.333333      12 t-inv F
 -0.500000 -0.333333 -0.833333      12 t-inv F
 -0.333333  0.500000  0.500000      12 t-inv F
  0.333333  0.333333  0.333333      13 t-inv F
  0.333333 -0.333333  0.000000      13 t-inv F
 -0.333333 -0.333333 -0.333333      13 t-inv F
  0.333333  0.166667  0.333333      14 t-inv F
  0.166667 -0.333333 -0.166667      14 t-inv F
 -0.333333 -0.166667 -0.166667      14 t-inv F
  0.500000 -0.166667  0.500000      15 t-inv F
 -0.166667 -0.500000 -0.666667      15 t-inv F
 -0.500000  0.166667  0.166667      15 t-inv F
  0.500000 -0.333333  0.500000      16 t-inv F
 -0.333333 -0.500000 -0.833333      16 t-inv F
 -0.500000  0.333333  0.333333      16 t-inv F
  0.500000 -0.500000  0.500000      17 t-inv F
  0.000000  0.000000 -0.250000      18 t-inv F
  0.000000 -0.166667 -0.250000      19 t-inv F
 -0.166667  0.000000  0.083333      19 t-inv F
  0.000000  0.166667 -0.083333      19 t-inv F
  0.000000 -0.333333 -0.250000      20 t-inv F
 -0.333333  0.000000 -0.083333      20 t-inv F
  0.000000  0.333333  0.083333      20 t-inv F
  0.000000 -0.500000 -0.250000      21 t-inv F
 -0.500000  0.000000 -0.250000      21 t-inv F
  0.000000  0.500000  0.250000      21 t-inv F
  0.000000  0.333333 -0.250000      22 t-inv F
  0.333333  0.000000  0.583333      22 t-inv F
  0.000000 -0.333333 -0.583333      22 t-inv F
  0.000000  0.166667 -0.250000      23 t-inv F
  0.166667  0.000000  0.416667      23 t-inv F
  0.000000 -0.166667 -0.416667      23 t-inv F
  0.166667 -0.166667 -0.083333      24 t-inv F
 -0.166667 -0.166667 -0.083333      24 t-inv F
 -0.166667  0.166667 -0.083333      24 t-inv F
  0.166667 -0.333333 -0.083333      25 t-inv F
 -0.333333 -0.166667 -0.250000      25 t-inv F
 -0.166667  0.333333  0.083333      25 t-inv F
  0.166667 -0.500000 -0.083333      26 t-inv F
 -0.500000 -0.166667 -0.416667      26 t-inv F
 -0.166667  0.500000  0.250000      26 t-inv F
  0.166667  0.333333 -0.083333      27 t-inv F
  0.333333 -0.166667  0.416667      27 t-inv F
 -0.166667 -0.333333 -0.583333      27 t-inv F
  0.166667  0.166667 -0.083333      28 t-inv F
  0.166667 -0.166667  0.250000      28 t-inv F
 -0.166667 -0.166667 -0.416667      28 t-inv F
  0.333333 -0.166667  0.083333      29 t-inv F
 -0.166667 -0.333333 -0.250000      29 t-inv F
 -0.333333  0.166667 -0.083333      29 t-inv F
  0.333333 -0.333333  0.083333      30 t-inv F
 -0.333333 -0.333333 -0.416667      30 t-inv F
 -0.333333  0.333333  0.083333      30 t-inv F
  0.333333 -0.500000  0.083333      31 t-inv F
 -0.500000 -0.333333 -0.583333      31 t-inv F
 -0.333333  0.500000  0.250000      31 t-inv F
  0.333333  0.333333  0.083333      32 t-inv F
  0.333333 -0.333333  0.250000      32 t-inv F
 -0.333333 -0.333333 -0.583333      32 t-inv F
  0.333333  0.166667  0.083333      33 t-inv F
  0.166667 -0.333333  0.083333      33 t-inv F
 -0.333333 -0.166667 -0.416667      33 t-inv F
  0.500000 -0.166667  0.250000      34 t-inv F
 -0.166667 -0.500000 -0.416667      34 t-inv F
 -0.500000  0.166667 -0.083333      34 t-inv F
  0.500000 -0.333333  0.250000      35 t-inv F
 -0.333333 -0.500000 -0.583333      35 t-inv F
 -0.500000  0.333333  0.083333      35 t-inv F
 -0.333333 -0.166667 -0.583333      37 t-inv F
 -0.166667  0.333333  0.416667      37 t-inv F
  0.333333  0.166667 -0.083333      37 t-inv F
 -0.333333  0.333333 -0.583333      38 t-inv F
  0.333333  0.333333  0.916667      38 t-inv F
  0.333333 -0.333333 -0.583333      38 t-inv F
 -0.333333  0.166667 -0.583333      39 t-inv F
  0.166667  0.333333  0.750000      39 t-inv F
  0.333333 -0.166667 -0.416667      39 t-inv F
 -0.166667 -0.333333 -0.416667      40 t-inv F
 -0.333333  0.166667  0.083333      40 t-inv F
  0.166667  0.333333  0.083333      40 t-inv F
 -0.166667  0.333333 -0.416667      41 t-inv F
  0.333333  0.166667  0.750000      41 t-inv F
  0.166667 -0.333333 -0.583333      41 t-inv F
 -0.166667  0.166667 -0.416667      42 t-inv F
  0.166667  0.166667  0.583333      42 t-inv F
  0.166667 -0.166667 -0.416667      42 t-inv F
  0.000000 -0.166667 -0.500000      44 t-inv F
 -0.166667  0.000000  0.333333      44 t-inv F
  0.000000  0.166667 -0.333333      44 t-inv F
  0.000000 -0.333333 -0.500000      45 t-inv F
 -0.333333  0.000000  0.166667      45 t-inv F
  0.000000  0.333333 -0.166667      45 t-inv F
  0.166667 -0.166667 -0.333333      46 t-inv F
 -0.166667 -0.166667  0.166667      46 t-inv F
 -0.166667  0.166667 -0.333333      46 t-inv F
  0.166667  0.333333 -0.333333      47 t-inv F
  0.333333 -0.166667  0.666667      47 t-inv F
 -0.166667 -0.333333 -0.833333      47 t-inv F
  0.166667  0.166667 -0.333333      48 t-inv F
  0.166667 -0.166667  0.500000      48 t-inv F
 -0.166667 -0.166667 -0.666667      48 t-inv F
  0.333333 -0.333333 -0.166667      49 t-inv F
 -0.333333 -0.333333 -0.166667      49 t-inv F
 -0.333333  0.333333 -0.166667      49 t-inv F
  0.333333  0.333333 -0.166667      50 t-inv F
  0.333333 -0.333333  0.500000      50 t-inv F
 -0.333333 -0.333333 -0.833333      50 t-inv F
  0.333333  0.166667 -0.166667      51 t-inv F
  0.166667 -0.333333  0.333333      51 t-inv F
 -0.333333 -0.166667 -0.666667      51 t-inv F
 -0.166667  0.000000  0.000000       2 t-inv T
  0.000000  0.166667  0.000000       2 t-inv T
  0.166667  0.000000  0.166667       2 t-inv T
  0.000000 -0.166667 -0.166667       2 t-inv T
 -0.333333  0.000000  0.000000       3 t-inv T
  0.000000  0.333333  0.000000       3 t-inv T
  0.333333  0.000000  0.333333       3 t-inv T
  0.000000 -0.333333 -0.333333       3 t-inv T
 -0.166667 -0.166667  0.000000       5 t-inv T
 -0.166667  0.166667 -0.166667       5 t-inv T
  0.166667  0.166667  0.333333       5 t-inv T
  0.166667 -0.166667 -0.166667       5 t-inv T
 -0.333333 -0.166667  0.000000       6 t-inv T
 -0.166667  0.333333 -0.166667       6 t-inv T
  0.333333  0.166667  0.500000       6 t-inv T
  0.166667 -0.333333 -0.333333       6 t-inv T
 -0.500000 -0.166667  0.000000       7 t-inv T
 -0.166667  0.500000 -0.166667       7 t-inv T
  0.500000  0.166667  0.666667       7 t-inv T
  0.166667 -0.500000 -0.500000       7 t-inv T
  0.333333 -0.166667  0.000000       8 t-inv T
 -0.166667 -0.333333 -0.166667       8 t-inv T
 -0.333333  0.166667 -0.166667       8 t-inv T
  0.166667  0.333333  0.333333       8 t-inv T
 -0.166667 -0.333333  0.000000      10 t-inv T
 -0.333333  0.166667 -0.333333      10 t-inv T
  0.166667  0.333333  0.500000      10 t-inv T
  0.333333 -0.166667 -0.166667      10 t-inv T
 -0.333333 -0.333333  0.000000      11 t-inv T
 -0.333333  0.333333 -0.333333      11 t-inv T
  0.333333  0.333333  0.666667      11 t-inv T
  0.333333 -0.333333 -0.333333      11 t-inv T
 -0.500000 -0.333333  0.000000      12 t-inv T
 -0.333333  0.500000 -0.333333      12 t-inv T
  0.500000  0.333333  0.833333      12 t-inv T
  0.333333 -0.500000 -0.500000      12 t-inv T
  0.166667 -0.333333  0.000000      14 t-inv T
 -0.333333 -0.166667 -0.333333      14 t-inv T
 -0.166667  0.333333  0.166667      14 t-inv T
  0.333333  0.166667  0.166667      14 t-inv T
 -0.166667 -0.500000  0.000000      15 t-inv T
 -0.500000  0.166667 -0.500000      15 t-inv T
  0.166667  0.500000  0.666667      15 t-inv T
  0.500000 -0.166667 -0.166667      15 t-inv T
 -0.333333 -0.500000  0.000000      16 t-inv T
 -0.500000  0.333333 -0.500000      16 t-inv T
  0.333333  0.500000  0.833333      16 t-inv T
  0.500000 -0.333333 -0.333333      16 t-inv T
 -0.166667  0.000000 -0.250000      19 t-inv T
  0.000000  0.166667  0.250000      19 t-inv T
  0.166667  0.000000 -0.083333      19 t-inv T
  0.000000 -0.166667  0.083333      19 t-inv T
 -0.333333  0.000000 -0.250000      20 t-inv T
  0.000000  0.333333  0.250000      20 t-inv T
  0.333333  0.000000  0.083333      20 t-inv T
  0.000000 -0.333333 -0.083333      20 t-inv T
  0.333333  0.000000 -0.250000      22 t-inv T
  0.000000 -0.333333  0.250000      22 t-inv T
 -0.333333  0.000000 -0.583333      22 t-inv T
  0.000000  0.333333  0.583333      22 t-inv T
  0.166667  0.000000 -0.250000      23 t-inv T
  0.000000 -0.166667  0.250000      23 t-inv T
 -0.166667  0.000000 -0.416667      23 t-inv T
  0.000000  0.166667  0.416667      23 t-inv T
 -0.166667 -0.166667 -0.250000      24 t-inv T
 -0.166667  0.166667  0.083333      24 t-inv T
  0.166667  0.166667  0.083333      24 t-inv T
  0.166667 -0.166667  0.083333      24 t-inv T
 -0.500000 -0.166667 -0.250000      26 t-inv T
 -0.166667  0.500000  0.083333      26 t-inv T
  0.500000  0.166667  0.416667      26 t-inv T
  0.166667 -0.500000 -0.250000      26 t-inv T
  0.333333 -0.166667 -0.250000      27 t-inv T
 -0.166667 -0.333333  0.083333      27 t-inv T
 -0.333333  0.166667 -0.416667      27 t-inv T
  0.166667  0.333333  0.583333      27 t-inv T
  0.166667 -0.166667 -0.250000      28 t-inv T
 -0.166667 -0.166667  0.083333      28 t-inv T
 -0.166667  0.166667 -0.250000      28 t-inv T
  0.166667  0.166667  0.416667      28 t-inv T
 -0.333333 -0.333333 -0.250000      30 t-inv T
 -0.333333  0.333333 -0.083333      30 t-inv T
  0.333333  0.333333  0.416667      30 t-inv T
  0.333333 -0.333333 -0.083333      30 t-inv T
 -0.500000 -0.333333 -0.250000      31 t-inv T
 -0.333333  0.500000 -0.083333      31 t-inv T
  0.500000  0.333333  0.583333      31 t-inv T
  0.333333 -0.500000 -0.250000      31 t-inv T
  0.333333 -0.333333 -0.250000      32 t-inv T
 -0.333333 -0.333333 -0.083333      32 t-inv T
 -0.333333  0.333333 -0.250000      32 t-inv T
  0.333333  0.333333  0.583333      32 t-inv T
  0.166667 -0.333333 -0.250000      33 t-inv T
 -0.333333 -0.166667 -0.083333      33 t-inv T
 -0.166667  0.333333 -0.083333      33 t-inv T
  0.333333  0.166667  0.416667      33 t-inv T
 -0.166667 -0.500000 -0.250000      34 t-inv T
 -0.500000  0.166667 -0.250000      34 t-inv T
  0.166667  0.500000  0.416667      34 t-inv T
  0.500000 -0.166667  0.083333      34 t-inv T
 -0.333333 -0.500000 -0.250000      35 t-inv T
 -0.500000  0.333333 -0.250000      35 t-inv T
  0.333333  0.500000  0.583333      35 t-inv T
  0.500000 -0.333333 -0.083333      35 t-inv T
 -0.500000 -0.500000 -0.250000      36 t-inv T
 -0.166667  0.333333 -0.250000      37 t-inv T
  0.333333  0.166667  0.583333      37 t-inv T
  0.166667 -0.333333 -0.416667      37 t-inv T
 -0.333333 -0.166667  0.083333      37 t-inv T
  0.333333  0.333333 -0.250000      38 t-inv T
  0.333333 -0.333333  0.583333      38 t-inv T
 -0.333333 -0.333333 -0.916667      38 t-inv T
 -0.333333  0.333333  0.583333      38 t-inv T
 -0.333333  0.166667 -0.250000      40 t-inv T
  0.166667  0.333333  0.416667      40 t-inv T
  0.333333 -0.166667 -0.083333      40 t-inv T
 -0.166667 -0.333333 -0.083333      40 t-inv T
  0.166667  0.166667 -0.250000      42 t-inv T
  0.166667 -0.166667  0.416667      42 t-inv T
 -0.166667 -0.166667 -0.583333      42 t-inv T
 -0.166667  0.166667  0.416667      42 t-inv T
 -0.166667  0.000000 -0.500000      44 t-inv T
  0.000000  0.166667  0.500000      44 t-inv T
  0.166667  0.000000 -0.333333      44 t-inv T
  0.000000 -0.166667  0.333333      44 t-inv T
 -0.333333  0.000000 -0.500000      45 t-inv T
  0.000000  0.333333  0.500000      45 t-inv T
  0.333333  0.000000 -0.166667      45 t-inv T
  0.000000 -0.333333  0.166667      45 t-inv T
 -0.166667 -0.166667 -0.500000      46 t-inv T
 -0.166667  0.166667  0.333333      46 t-inv T
  0.166667  0.166667 -0.166667      46 t-inv T
  0.166667 -0.166667  0.333333      46 t-inv T
  0.333333 -0.166667 -0.500000      47 t-inv T
 -0.166667 -0.333333  0.333333      47 t-inv T
 -0.333333  0.166667 -0.666667      47 t-inv T
  0.166667  0.333333  0.833333      47 t-inv T
 -0.333333 -0.333333 -0.500000      49 t-inv T
 -0.333333  0.333333  0.166667      49 t-inv T
  0.333333  0.333333  0.166667      49 t-inv T
  0.333333 -0.333333  0.166667      49 t-inv T
  0.166667 -0.333333 -0.500000      51 t-inv T
 -0.333333 -0.166667  0.166667      51 t-inv T
 -0.166667  0.333333 -0.333333      51 t-inv T
  0.333333  0.166667  0.666667      51 t-inv T


--------------------------------------------------------------------------------------------------------




 Dimension of arrays:
   k-points           NKPTS =    122   k-points in BZ     NKDIM =    407   number of bands    NBANDS=     52
   number of dos      NEDOS =    301   number of ions     NIONS =      8
   non local maximal  LDIM  =      6   non local SUM 2l+1 LMDIM =     18
   total plane-waves  NPLWV =  76800
   max r-space proj   IRMAX =      1   max aug-charges    IRDMAX=  21604
   dimension x,y,z NGX =    40 NGY =   40 NGZ =   48
   dimension x,y,z NGXF=    80 NGYF=   80 NGZF=   96
   support grid    NGXF=    80 NGYF=   80 NGZF=   96
   ions per type =               2   1   1   4
 NGX,Y,Z   is equivalent  to a cutoff of  12.23, 12.23, 12.01 a.u.
 NGXF,Y,Z  is equivalent  to a cutoff of  24.47, 24.47, 24.01 a.u.


 I would recommend the setting:
   dimension x,y,z NGX =    40 NGY =   40 NGZ =   48
 SYSTEM =  Name                                    
 POSCAR =  Cu2ZnSnS4 (LaFond 2014, 293 K)          

 Startparameter for this run:
   NWRITE =      2    write-flag & timer
   PREC   = accura    normal or accurate (medium, high low for compatibility)
   ISTART =      0    job   : 0-new  1-cont  2-samecut
   ICHARG =      2    charge: 1-file 2-atom 10-const
   ISPIN  =      1    spin polarized calculation?
   LNONCOLLINEAR =      F non collinear calculations
   LSORBIT =      F    spin-orbit coupling
   INIWAV =      1    electr: 0-lowe 1-rand  2-diag
   LASPH  =      F    aspherical Exc in radial PAW
   METAGGA=      F    non-selfconsistent MetaGGA calc.

 Electronic Relaxation 1
   ENCUT  =  500.0 eV  36.75 Ry    6.06 a.u.   9.91  9.91 12.12*2*pi/ulx,y,z
   ENINI  =  500.0     initial cutoff
   ENAUG  =  758.2 eV  augmentation charge cutoff
   NELM   =     60;   NELMIN=  2; NELMDL=  0     # of ELM steps 
   EDIFF  = 0.1E-05   stopping-criterion for ELM
   LREAL  =      F    real-space projection
   NLSPLINE    = F    spline interpolate recip. space projectors
   LCOMPAT=      F    compatible to vasp.4.4
   GGA_COMPAT  = T    GGA compatible to vasp.4.4-vasp.4.6
   LMAXPAW     = -100 max onsite density
   LMAXMIX     =    2 max onsite mixed and CHGCAR
   VOSKOWN=      0    Vosko Wilk Nusair interpolation
   ROPT   =    0.00000   0.00000   0.00000   0.00000
 Ionic relaxation
   EDIFFG = -.5E-02   stopping-criterion for IOM
   NSW    =      1    number of steps for IOM
   NBLOCK =      1;   KBLOCK =      1    inner block; outer block 
   IBRION =      2    ionic relax: 0-MD 1-quasi-New 2-CG
   NFREE  =      1    steps in history (QN), initial steepest desc. (CG)
   ISIF   =      3    stress and relaxation
   IWAVPR =     11    prediction:  0-non 1-charg 2-wave 3-comb
   ISYM   =      2    0-nonsym 1-usesym 2-fastsym
   LCORR  =      T    Harris-Foulkes like correction to forces

   POTIM  = 0.5000    time-step for ionic-motion
   TEIN   =    0.0    initial temperature
   TEBEG  =    0.0;   TEEND  =   0.0 temperature during run
   SMASS  =  -3.00    Nose mass-parameter (am)
   estimated Nose-frequenzy (Omega)   =  0.10E-29 period in steps =****** mass=  -0.675E-27a.u.
   SCALEE = 1.0000    scale energy and forces
   NPACO  =    256;   APACO  = 16.0  distance and # of slots for P.C.
   PSTRESS=    0.0 pullay stress

  Mass of Ions in am
   POMASS =  63.55 65.39118.71 32.07
  Ionic Valenz
   ZVAL   =  17.00 12.00 14.00  6.00
  Atomic Wigner-Seitz radii
   RWIGS  =  -1.00 -1.00 -1.00 -1.00
  virtual crystal weights 
   VCA    =   1.00  1.00  1.00  1.00
   NELECT =      84.0000    total number of electrons
   NUPDOWN=      -1.0000    fix difference up-down

 DOS related values:
   EMIN   =  10.00;   EMAX   =-10.00  energy-range for DOS
   EFERMI =   0.00
   ISMEAR =     0;   SIGMA  =   0.01  broadening in eV -4-tet -1-fermi 0-gaus

 Electronic relaxation 2 (details)
   IALGO  =     58    algorithm
   LDIAG  =      T    sub-space diagonalisation (order eigenvalues)
   LSUBROT=      F    optimize rotation matrix (better conditioning)
   TURBO    =      0    0=normal 1=particle mesh
   IRESTART =      0    0=no restart 2=restart with 2 vectors
   NREBOOT  =      0    no. of reboots
   NMIN     =      0    reboot dimension
   EREF     =   0.00    reference energy to select bands
   IMIX   =      4    mixing-type and parameters
     AMIX     =   0.40;   BMIX     =  1.00
     AMIX_MAG =   1.60;   BMIX_MAG =  1.00
     AMIN     =   0.01
     WC   =   100.;   INIMIX=   1;  MIXPRE=   1;  MAXMIX= -45

 Intra band minimization:
   WEIMIN = 0.0010     energy-eigenvalue tresh-hold
   EBREAK =  0.48E-08  absolut break condition
   DEPER  =   0.30     relativ break condition  

   TIME   =   0.40     timestep for ELM

  volume/ion in A,a.u.               =      20.03       135.15
  Fermi-wavevector in a.u.,A,eV,Ry     =   1.320082  2.494593 23.709739  1.742617
  Thomas-Fermi vector in A             =   2.449934
 
 Write flags
   LWAVE  =      T    write WAVECAR
   LCHARG =      T    write CHGCAR
   LVTOT  =      F    write LOCPOT, total local potential
   LVHAR  =      F    write LOCPOT, Hartree potential only
   LELF   =      F    write electronic localiz. function (ELF)
   LORBIT =     10    0 simple, 1 ext, 2 COOP (PROOUT)


 Dipole corrections
   LMONO  =      F    monopole corrections only (constant potential shift)
   LDIPOL =      F    correct potential (dipole corrections)
   IDIPOL =      0    1-x, 2-y, 3-z, 4-all directions 
   EPSILON=  1.0000000 bulk dielectric constant

 Core level calculations are selected ICORELEVEL =  1
 Exchange correlation treatment:
   GGA     =    PE    GGA type
   LEXCH   =     8    internal setting for exchange type
   VOSKOWN=      0    Vosko Wilk Nusair interpolation
   EXXOEP  =     0    0=HF, 1=EXX-LHF (local Hartree Fock) 2=EXX OEP
   LHFCALC =     T    Hartree Fock is set to
   LSYMGRAD=     F    symmetrize gradient (conserves proper symmetry)
   PRECFOCK=fast      Normal, Fast or Accurate (Low or Medium for compatibility)
   LRHFCALC=     F    long range Hartree Fock
   LRSCOR  =     F    long range correlation only (use DFT for short range part)
   LTHOMAS =     F    Thomas Fermi screening in HF
   LMODELHF=     F    short range full HF, long range fraction AEXX
   ENCUT4O =  -1.0   cutoff for four orbital integrals eV
   LMAXFOCK=     4    L truncation for augmentation on plane wave grid
   LMAXFOCKAE=  -1    L truncation for all-electron charge restoration on plane wave grid
   NMAXFOCKAE=   1    number of basis functions for all-electron charge restoration
   LFOCKAEDFT=     F  apply the AE augmentation even for DFT
   NKREDX  =     1    reduce k-point grid by
   NKREDY  =     1    reduce k-point grid by
   NKREDZ  =     1    reduce k-point grid by
   SHIFTRED=     F    shift reduced grid of Gamma
   HFKIDENT=     F    idential grid for each k-point
   ODDONLY =     F    use only odd q-grid points
   EVENONLY=     F    use only even q-grid points
   HFALPHA =   -1.0000 decay constant for conv. correction
   MCALPHA =    0.0000 extent of test-charge in conv. correction in multipole expansion
   AEXX    =    0.2500 exact exchange contribution
   HFSCREEN=    0.2070 screening length (either q_TF or 0.3 A-1)
   HFSCREENC=   0.2070 screening length for correlation (either q_TF or 0.3 A-1)
   HFRCUT  =    0.0000 spherical cutoff for potential kernel
   ALDAX   =    0.7500 LDA exchange part
   AGGAX   =    0.7500 GGA exchange part
   ALDAC   =    1.0000 LDA correlation
   AGGAC   =    1.0000 GGA correlation
   NBANDSGWLOW=     1    first orbital included in HF term
   ENCUTFOCK=  -1.0 apply spherical cutoff to Coloumb kernel
 Linear response parameters
   LEPSILON=     F    determine dielectric tensor
   LRPA    =     F    only Hartree local field effects (RPA)
   LNABLA  =     F    use nabla operator in PAW spheres
   LVEL    =     F    velocity operator in full k-point grid
   LINTERFAST=   F  fast interpolation
   KINTER  =     0    interpolate to denser k-point grid
   CSHIFT  =0.1000    complex shift for real part using Kramers Kronig
   OMEGAMAX=  -1.0    maximum frequency
   DEG_THRESHOLD= 0.2000000E-02 threshold for treating states as degnerate
   RTIME   =    0.100 relaxation time in fs

 Orbital magnetization related:
   ORBITALMAG=     F  switch on orbital magnetization
   LCHIMAG   =     F  perturbation theory with respect to B field
   DQ        =  0.001000  dq finite difference perturbation B field



--------------------------------------------------------------------------------------------------------


 conjugate gradient relaxation of ions
 charge density and potential will be updated during run
 non-spin polarized calculation
 Conjugate gradient for all bands (Freysoldt, et al. PRB 79, 241103 (2009))
 preconditioned conjugated gradient                                        
 perform sub-space diagonalisation
    before iterative eigenvector-optimisation
 modified Broyden-mixing scheme, WC =      100.0
 initial mixing is a Kerker type mixing with AMIX =  0.4000 and BMIX =      1.0000
 Hartree-type preconditioning will be used
 using additional bands           10
 reciprocal scheme for non local part
 use partial core corrections
 no Harris-corrections to forces 
 use gradient corrections 
 use of overlap-Matrix (Vanderbilt PP)
 Gauss-broadening in eV      SIGMA  =   0.01


--------------------------------------------------------------------------------------------------------


  energy-cutoff  :      500.00
  volume of cell :      160.21
      direct lattice vectors                 reciprocal lattice vectors
     5.435300000  0.000000000  0.000000000     0.183982485  0.000000000 -0.092196841
     0.000000000  5.435300000  0.000000000     0.000000000  0.183982485 -0.092196841
     2.717650000  2.717650000  5.423179281     0.000000000  0.000000000  0.184393683

  length of vectors
     5.435300000  5.435300000  6.646962958     0.205790700  0.205790700  0.184393683


 
 k-points in units of 2pi/SCALE and weight: Automatically generated mesh (51 to igno
   0.00000000  0.00000000  0.00000000       0.007
   0.16666667  0.00000000 -0.08351958       0.028
   0.33333333  0.00000000 -0.16703916       0.028
   0.50000000  0.00000000 -0.25055875       0.028
   0.16666667  0.16666667 -0.16703916       0.014
   0.33333333  0.16666667 -0.25055875       0.028
   0.50000000  0.16666667 -0.33407833       0.028
  -0.33333333  0.16666667  0.08351958       0.014
  -0.16666667  0.16666667  0.00000000       0.014
   0.16666667  0.33333333 -0.25055875       0.028
   0.33333333  0.33333333 -0.33407833       0.014
   0.50000000  0.33333333 -0.41759791       0.028
  -0.33333333  0.33333333  0.00000000       0.014
  -0.16666667  0.33333333 -0.08351958       0.014
   0.16666667  0.50000000 -0.33407833       0.028
   0.33333333  0.50000000 -0.41759791       0.028
   0.50000000  0.50000000 -0.50111749       0.014
   0.00000000  0.00000000  0.25055875       0.014
   0.16666667  0.00000000  0.16703916       0.028
   0.33333333  0.00000000  0.08351958       0.028
   0.50000000  0.00000000  0.00000000       0.028
  -0.33333333  0.00000000  0.41759791       0.028
  -0.16666667  0.00000000  0.33407833       0.028
   0.16666667  0.16666667  0.08351958       0.014
   0.33333333  0.16666667  0.00000000       0.014
   0.50000000  0.16666667 -0.08351958       0.028
  -0.33333333  0.16666667  0.33407833       0.014
  -0.16666667  0.16666667  0.25055875       0.028
   0.16666667  0.33333333  0.00000000       0.014
   0.33333333  0.33333333 -0.08351958       0.014
   0.50000000  0.33333333 -0.16703916       0.028
  -0.33333333  0.33333333  0.25055875       0.028
  -0.16666667  0.33333333  0.16703916       0.014
   0.16666667  0.50000000 -0.08351958       0.028
   0.33333333  0.50000000 -0.16703916       0.028
   0.50000000  0.50000000 -0.25055875       0.014
   0.16666667 -0.33333333  0.33407833       0.014
  -0.33333333 -0.33333333  0.58463707       0.014
  -0.16666667 -0.33333333  0.50111749       0.014
   0.33333333 -0.16666667  0.16703916       0.014
  -0.33333333 -0.16666667  0.50111749       0.014
  -0.16666667 -0.16666667  0.41759791       0.014
   0.00000000  0.00000000  0.50111749       0.007
   0.16666667  0.00000000  0.41759791       0.028
   0.33333333  0.00000000  0.33407833       0.028
   0.16666667  0.16666667  0.33407833       0.014
  -0.33333333  0.16666667  0.58463707       0.014
  -0.16666667  0.16666667  0.50111749       0.014
   0.33333333  0.33333333  0.16703916       0.014
  -0.33333333  0.33333333  0.50111749       0.014
  -0.16666667  0.33333333  0.41759791       0.014
   0.00000000  0.05000000 -0.02505587       0.000
   0.00000000  0.10000000 -0.05011175       0.000
   0.00000000  0.15000001 -0.07516763       0.000
   0.00000000  0.20000000 -0.10022350       0.000
   0.00000000  0.25000000 -0.12527937       0.000
   0.00000000  0.30000001 -0.15033525       0.000
   0.00000000  0.34999999 -0.17539112       0.000
   0.00000000  0.40000001 -0.20044700       0.000
   0.00000000  0.45000002 -0.22550288       0.000
   0.00000000  0.50000000 -0.25055875       0.000
   0.05000000  0.50000000 -0.27561462       0.000
   0.10000000  0.50000000 -0.30067050       0.000
   0.15000001  0.50000000 -0.32572637       0.000
   0.20000000  0.50000000 -0.35078224       0.000
   0.25000000  0.50000000 -0.37583812       0.000
   0.30000001  0.50000000 -0.40089400       0.000
   0.34999999  0.50000000 -0.42594986       0.000
   0.40000001  0.50000000 -0.45100575       0.000
   0.45000002  0.50000000 -0.47606163       0.000
   0.50000000  0.50000000 -0.50111749       0.000
   0.42857143  0.42857143 -0.42952928       0.000
   0.39285713  0.39285713 -0.39373516       0.000
   0.35714287  0.35714287 -0.35794108       0.000
   0.32142857  0.32142857 -0.32214696       0.000
   0.28571430  0.28571430 -0.28635287       0.000
   0.25000000  0.25000000 -0.25055875       0.000
   0.21428570  0.21428570 -0.21476463       0.000
   0.17857140  0.17857140 -0.17897050       0.000
   0.14285713  0.14285713 -0.14317641       0.000
   0.10714287  0.10714287 -0.10738233       0.000
   0.07142860  0.07142860 -0.07158824       0.000
   0.03571427  0.03571427 -0.03579409       0.000
   0.00000000  0.00000000  0.00000000       0.000
   0.00000000  0.00000000  0.12527937       0.000
   0.00000000  0.00000000  0.18791906       0.000
   0.00000000  0.00000000  0.25055875       0.000
   0.00000000  0.00000000  0.31319843       0.000
   0.00000000  0.00000000  0.37583812       0.000
   0.00000000  0.00000000  0.43847781       0.000
   0.00000000  0.00000000  0.50111749       0.000
   0.00000000  0.10000000  0.45100574       0.000
   0.00000000  0.15000001  0.42594986       0.000
   0.00000000  0.20000000  0.40089399       0.000
   0.00000000  0.25000000  0.37583812       0.000
   0.00000000  0.30000001  0.35078224       0.000
   0.00000000  0.34999999  0.32572637       0.000
   0.00000000  0.40000001  0.30067049       0.000
   0.00000000  0.45000002  0.27561461       0.000
   0.00000000  0.50000000  0.25055875       0.000
   0.10000000  0.50000000  0.20044700       0.000
   0.15000001  0.50000000  0.17539112       0.000
   0.20000000  0.50000000  0.15033525       0.000
   0.25000000  0.50000000  0.12527937       0.000
   0.30000001  0.50000000  0.10022349       0.000
   0.34999999  0.50000000  0.07516763       0.000
   0.40000001  0.50000000  0.05011174       0.000
   0.45000002  0.50000000  0.02505586       0.000
   0.50000000  0.50000000  0.00000000       0.000
   0.42857143  0.42857143  0.07158821       0.000
   0.39285713  0.39285713  0.10738233       0.000
   0.35714287  0.35714287  0.14317641       0.000
   0.32142857  0.32142857  0.17897053       0.000
   0.28571430  0.28571430  0.21476463       0.000
   0.25000000  0.25000000  0.25055875       0.000
   0.21428570  0.21428570  0.28635287       0.000
   0.17857140  0.17857140  0.32214699       0.000
   0.14285713  0.14285713  0.35794108       0.000
   0.10714287  0.10714287  0.39373516       0.000
   0.07142860  0.07142860  0.42952925       0.000
   0.03571427  0.03571427  0.46532340       0.000
   0.00000000  0.00000000  0.50111749       0.000
 
 k-points in reciprocal lattice and weights: Automatically generated mesh (51 to igno
   0.00000000  0.00000000  0.00000000       0.007
   0.16666667  0.00000000  0.00000000       0.028
   0.33333333  0.00000000  0.00000000       0.028
   0.50000000  0.00000000  0.00000000       0.028
   0.16666667  0.16666667  0.00000000       0.014
   0.33333333  0.16666667  0.00000000       0.028
   0.50000000  0.16666667  0.00000000       0.028
  -0.33333333  0.16666667  0.00000000       0.014
  -0.16666667  0.16666667  0.00000000       0.014
   0.16666667  0.33333333  0.00000000       0.028
   0.33333333  0.33333333  0.00000000       0.014
   0.50000000  0.33333333  0.00000000       0.028
  -0.33333333  0.33333333  0.00000000       0.014
  -0.16666667  0.33333333  0.00000000       0.014
   0.16666667  0.50000000  0.00000000       0.028
   0.33333333  0.50000000  0.00000000       0.028
   0.50000000  0.50000000  0.00000000       0.014
   0.00000000  0.00000000  0.25000000       0.014
   0.16666667  0.00000000  0.25000000       0.028
   0.33333333  0.00000000  0.25000000       0.028
   0.50000000  0.00000000  0.25000000       0.028
  -0.33333333  0.00000000  0.25000000       0.028
  -0.16666667  0.00000000  0.25000000       0.028
   0.16666667  0.16666667  0.25000000       0.014
   0.33333333  0.16666667  0.25000000       0.014
   0.50000000  0.16666667  0.25000000       0.028
  -0.33333333  0.16666667  0.25000000       0.014
  -0.16666667  0.16666667  0.25000000       0.028
   0.16666667  0.33333333  0.25000000       0.014
   0.33333333  0.33333333  0.25000000       0.014
   0.50000000  0.33333333  0.25000000       0.028
  -0.33333333  0.33333333  0.25000000       0.028
  -0.16666667  0.33333333  0.25000000       0.014
   0.16666667  0.50000000  0.25000000       0.028
   0.33333333  0.50000000  0.25000000       0.028
   0.50000000  0.50000000  0.25000000       0.014
   0.16666667 -0.33333333  0.25000000       0.014
  -0.33333333 -0.33333333  0.25000000       0.014
  -0.16666667 -0.33333333  0.25000000       0.014
   0.33333333 -0.16666667  0.25000000       0.014
  -0.33333333 -0.16666667  0.25000000       0.014
  -0.16666667 -0.16666667  0.25000000       0.014
   0.00000000  0.00000000  0.50000000       0.007
   0.16666667  0.00000000  0.50000000       0.028
   0.33333333  0.00000000  0.50000000       0.028
   0.16666667  0.16666667  0.50000000       0.014
  -0.33333333  0.16666667  0.50000000       0.014
  -0.16666667  0.16666667  0.50000000       0.014
   0.33333333  0.33333333  0.50000000       0.014
  -0.33333333  0.33333333  0.50000000       0.014
  -0.16666667  0.33333333  0.50000000       0.014
   0.00000000  0.05000000  0.00000000       0.000
   0.00000000  0.10000000  0.00000000       0.000
   0.00000000  0.15000001  0.00000000       0.000
   0.00000000  0.20000000  0.00000000       0.000
   0.00000000  0.25000000  0.00000000       0.000
   0.00000000  0.30000001  0.00000000       0.000
   0.00000000  0.34999999  0.00000000       0.000
   0.00000000  0.40000001  0.00000000       0.000
   0.00000000  0.45000002  0.00000000       0.000
   0.00000000  0.50000000  0.00000000       0.000
   0.05000000  0.50000000  0.00000000       0.000
   0.10000000  0.50000000  0.00000000       0.000
   0.15000001  0.50000000  0.00000000       0.000
   0.20000000  0.50000000  0.00000000       0.000
   0.25000000  0.50000000  0.00000000       0.000
   0.30000001  0.50000000  0.00000000       0.000
   0.34999999  0.50000000  0.00000000       0.000
   0.40000001  0.50000000  0.00000000       0.000
   0.45000002  0.50000000  0.00000000       0.000
   0.50000000  0.50000000  0.00000000       0.000
   0.42857143  0.42857143  0.00000000       0.000
   0.39285713  0.39285713  0.00000000       0.000
   0.35714287  0.35714287  0.00000000       0.000
   0.32142857  0.32142857  0.00000000       0.000
   0.28571430  0.28571430  0.00000000       0.000
   0.25000000  0.25000000  0.00000000       0.000
   0.21428570  0.21428570  0.00000000       0.000
   0.17857140  0.17857140  0.00000000       0.000
   0.14285713  0.14285713  0.00000000       0.000
   0.10714287  0.10714287  0.00000000       0.000
   0.07142860  0.07142860  0.00000000       0.000
   0.03571427  0.03571427  0.00000000       0.000
   0.00000000  0.00000000  0.00000000       0.000
   0.00000000  0.00000000  0.12500000       0.000
   0.00000000  0.00000000  0.18750000       0.000
   0.00000000  0.00000000  0.25000000       0.000
   0.00000000  0.00000000  0.31250000       0.000
   0.00000000  0.00000000  0.37500000       0.000
   0.00000000  0.00000000  0.43750000       0.000
   0.00000000  0.00000000  0.50000000       0.000
   0.00000000  0.10000000  0.50000000       0.000
   0.00000000  0.15000001  0.50000000       0.000
   0.00000000  0.20000000  0.50000000       0.000
   0.00000000  0.25000000  0.50000000       0.000
   0.00000000  0.30000001  0.50000000       0.000
   0.00000000  0.34999999  0.50000000       0.000
   0.00000000  0.40000001  0.50000000       0.000
   0.00000000  0.45000002  0.50000000       0.000
   0.00000000  0.50000000  0.50000000       0.000
   0.10000000  0.50000000  0.50000000       0.000
   0.15000001  0.50000000  0.50000000       0.000
   0.20000000  0.50000000  0.50000000       0.000
   0.25000000  0.50000000  0.50000000       0.000
   0.30000001  0.50000000  0.50000000       0.000
   0.34999999  0.50000000  0.50000000       0.000
   0.40000001  0.50000000  0.50000000       0.000
   0.45000002  0.50000000  0.50000000       0.000
   0.50000000  0.50000000  0.50000000       0.000
   0.42857143  0.42857143  0.50000000       0.000
   0.39285713  0.39285713  0.50000000       0.000
   0.35714287  0.35714287  0.50000000       0.000
   0.32142857  0.32142857  0.50000000       0.000
   0.28571430  0.28571430  0.50000000       0.000
   0.25000000  0.25000000  0.50000000       0.000
   0.21428570  0.21428570  0.50000000       0.000
   0.17857140  0.17857140  0.50000000       0.000
   0.14285713  0.14285713  0.50000000       0.000
   0.10714287  0.10714287  0.50000000       0.000
   0.07142860  0.07142860  0.50000000       0.000
   0.03571427  0.03571427  0.50000000       0.000
   0.00000000  0.00000000  0.50000000       0.000
 
 position of ions in fractional coordinates (direct lattice) 
   0.00000000  0.00000000  0.00000000
   0.75000000  0.25000000  0.50000000
   0.50000000  0.50000000  0.00000000
   0.25000000  0.75000000  0.50000000
   0.11777234  0.13390109  0.24359300
   0.63863466  0.62250591  0.24359300
   0.86609891  0.36136534  0.75640700
   0.37749409  0.88222766  0.75640700
 
 position of ions in cartesian coordinates  (Angst):
   0.00000000  0.00000000  0.00000000
   5.43530000  2.71765000  2.71158964
   2.71765000  2.71765000  0.00000000
   2.71765000  5.43530000  2.71158964
   1.30212853  1.38979311  1.32104849
   4.13317147  4.04550689  1.32104849
   6.76315689  4.01977853  4.10213079
   4.10744311  6.85082147  4.10213079
 


--------------------------------------------------------------------------------------------------------


 k-point  1 :   0.0000 0.0000 0.0000  plane waves:    4055
 k-point  2 :   0.1667 0.0000 0.0000  plane waves:    4054
 k-point  3 :   0.3333 0.0000 0.0000  plane waves:    4078
 k-point  4 :   0.5000 0.0000 0.0000  plane waves:    4072
 k-point  5 :   0.1667 0.1667 0.0000  plane waves:    4054
 k-point  6 :   0.3333 0.1667 0.0000  plane waves:    4071
 k-point  7 :   0.5000 0.1667 0.0000  plane waves:    4069
 k-point  8 :  -0.3333 0.1667 0.0000  plane waves:    4066
 k-point  9 :  -0.1667 0.1667 0.0000  plane waves:    4058
 k-point 10 :   0.1667 0.3333 0.0000  plane waves:    4071
 k-point 11 :   0.3333 0.3333 0.0000  plane waves:    4064
 k-point 12 :   0.5000 0.3333 0.0000  plane waves:    4074
 k-point 13 :  -0.3333 0.3333 0.0000  plane waves:    4068
 k-point 14 :  -0.1667 0.3333 0.0000  plane waves:    4066
 k-point 15 :   0.1667 0.5000 0.0000  plane waves:    4069
 k-point 16 :   0.3333 0.5000 0.0000  plane waves:    4074
 k-point 17 :   0.5000 0.5000 0.0000  plane waves:    4054
 k-point 18 :   0.0000 0.0000 0.2500  plane waves:    4056
 k-point 19 :   0.1667 0.0000 0.2500  plane waves:    4052
 k-point 20 :   0.3333 0.0000 0.2500  plane waves:    4063
 k-point 21 :   0.5000 0.0000 0.2500  plane waves:    4072
 k-point 22 :  -0.3333 0.0000 0.2500  plane waves:    4078
 k-point 23 :  -0.1667 0.0000 0.2500  plane waves:    4068
 k-point 24 :   0.1667 0.1667 0.2500  plane waves:    4060
 k-point 25 :   0.3333 0.1667 0.2500  plane waves:    4064
 k-point 26 :   0.5000 0.1667 0.2500  plane waves:    4070
 k-point 27 :  -0.3333 0.1667 0.2500  plane waves:    4071
 k-point 28 :  -0.1667 0.1667 0.2500  plane waves:    4057
 k-point 29 :   0.1667 0.3333 0.2500  plane waves:    4064
 k-point 30 :   0.3333 0.3333 0.2500  plane waves:    4061
 k-point 31 :   0.5000 0.3333 0.2500  plane waves:    4074
 k-point 32 :  -0.3333 0.3333 0.2500  plane waves:    4055
 k-point 33 :  -0.1667 0.3333 0.2500  plane waves:    4063
 k-point 34 :   0.1667 0.5000 0.2500  plane waves:    4070
 k-point 35 :   0.3333 0.5000 0.2500  plane waves:    4074
 k-point 36 :   0.5000 0.5000 0.2500  plane waves:    4080
 k-point 37 :   0.1667-0.3333 0.2500  plane waves:    4071
 k-point 38 :  -0.3333-0.3333 0.2500  plane waves:    4085
 k-point 39 :  -0.1667-0.3333 0.2500  plane waves:    4082
 k-point 40 :   0.3333-0.1667 0.2500  plane waves:    4063
 k-point 41 :  -0.3333-0.1667 0.2500  plane waves:    4082
 k-point 42 :  -0.1667-0.1667 0.2500  plane waves:    4064
 k-point 43 :   0.0000 0.0000 0.5000  plane waves:    4040
 k-point 44 :   0.1667 0.0000 0.5000  plane waves:    4060
 k-point 45 :   0.3333 0.0000 0.5000  plane waves:    4074
 k-point 46 :   0.1667 0.1667 0.5000  plane waves:    4069
 k-point 47 :  -0.3333 0.1667 0.5000  plane waves:    4077
 k-point 48 :  -0.1667 0.1667 0.5000  plane waves:    4058
 k-point 49 :   0.3333 0.3333 0.5000  plane waves:    4050
 k-point 50 :  -0.3333 0.3333 0.5000  plane waves:    4094
 k-point 51 :  -0.1667 0.3333 0.5000  plane waves:    4077
 k-point 52 :   0.0000 0.0500 0.0000  plane waves:    4049
 k-point 53 :   0.0000 0.1000 0.0000  plane waves:    4050
 k-point 54 :   0.0000 0.1500 0.0000  plane waves:    4048
 k-point 55 :   0.0000 0.2000 0.0000  plane waves:    4060
 k-point 56 :   0.0000 0.2500 0.0000  plane waves:    4062
 k-point 57 :   0.0000 0.3000 0.0000  plane waves:    4073
 k-point 58 :   0.0000 0.3500 0.0000  plane waves:    4078
 k-point 59 :   0.0000 0.4000 0.0000  plane waves:    4082
 k-point 60 :   0.0000 0.4500 0.0000  plane waves:    4075
 k-point 61 :   0.0000 0.5000 0.0000  plane waves:    4072
 k-point 62 :   0.0500 0.5000 0.0000  plane waves:    4061
 k-point 63 :   0.1000 0.5000 0.0000  plane waves:    4066
 k-point 64 :   0.1500 0.5000 0.0000  plane waves:    4074
 k-point 65 :   0.2000 0.5000 0.0000  plane waves:    4071
 k-point 66 :   0.2500 0.5000 0.0000  plane waves:    4073
 k-point 67 :   0.3000 0.5000 0.0000  plane waves:    4071
 k-point 68 :   0.3500 0.5000 0.0000  plane waves:    4074
 k-point 69 :   0.4000 0.5000 0.0000  plane waves:    4070
 k-point 70 :   0.4500 0.5000 0.0000  plane waves:    4070
 k-point 71 :   0.5000 0.5000 0.0000  plane waves:    4054
 k-point 72 :   0.4286 0.4286 0.0000  plane waves:    4085
 k-point 73 :   0.3929 0.3929 0.0000  plane waves:    4080
 k-point 74 :   0.3571 0.3571 0.0000  plane waves:    4072
 k-point 75 :   0.3214 0.3214 0.0000  plane waves:    4057
 k-point 76 :   0.2857 0.2857 0.0000  plane waves:    4072
 k-point 77 :   0.2500 0.2500 0.0000  plane waves:    4051
 k-point 78 :   0.2143 0.2143 0.0000  plane waves:    4059
 k-point 79 :   0.1786 0.1786 0.0000  plane waves:    4054
 k-point 80 :   0.1429 0.1429 0.0000  plane waves:    4041
 k-point 81 :   0.1071 0.1071 0.0000  plane waves:    4045
 k-point 82 :   0.0714 0.0714 0.0000  plane waves:    4050
 k-point 83 :   0.0357 0.0357 0.0000  plane waves:    4044
 k-point 84 :   0.0000 0.0000 0.0000  plane waves:    4055
 k-point 85 :   0.0000 0.0000 0.1250  plane waves:    4052
 k-point 86 :   0.0000 0.0000 0.1875  plane waves:    4052
 k-point 87 :   0.0000 0.0000 0.2500  plane waves:    4056
 k-point 88 :   0.0000 0.0000 0.3125  plane waves:    4048
 k-point 89 :   0.0000 0.0000 0.3750  plane waves:    4036
 k-point 90 :   0.0000 0.0000 0.4375  plane waves:    4060
 k-point 91 :   0.0000 0.0000 0.5000  plane waves:    4040
 k-point 92 :   0.0000 0.1000 0.5000  plane waves:    4034
 k-point 93 :   0.0000 0.1500 0.5000  plane waves:    4052
 k-point 94 :   0.0000 0.2000 0.5000  plane waves:    4076
 k-point 95 :   0.0000 0.2500 0.5000  plane waves:    4079
 k-point 96 :   0.0000 0.3000 0.5000  plane waves:    4058
 k-point 97 :   0.0000 0.3500 0.5000  plane waves:    4071
 k-point 98 :   0.0000 0.4000 0.5000  plane waves:    4085
 k-point 99 :   0.0000 0.4500 0.5000  plane waves:    4077
 k-point ** :   0.0000 0.5000 0.5000  plane waves:    4072
 k-point ** :   0.1000 0.5000 0.5000  plane waves:    4066
 k-point ** :   0.1500 0.5000 0.5000  plane waves:    4074
 k-point ** :   0.2000 0.5000 0.5000  plane waves:    4071
 k-point ** :   0.2500 0.5000 0.5000  plane waves:    4073
 k-point ** :   0.3000 0.5000 0.5000  plane waves:    4071
 k-point ** :   0.3500 0.5000 0.5000  plane waves:    4074
 k-point ** :   0.4000 0.5000 0.5000  plane waves:    4070
 k-point ** :   0.4500 0.5000 0.5000  plane waves:    4070
 k-point ** :   0.5000 0.5000 0.5000  plane waves:    4054
 k-point ** :   0.4286 0.4286 0.5000  plane waves:    4062
 k-point ** :   0.3929 0.3929 0.5000  plane waves:    4054
 k-point ** :   0.3571 0.3571 0.5000  plane waves:    4060
 k-point ** :   0.3214 0.3214 0.5000  plane waves:    4056
 k-point ** :   0.2857 0.2857 0.5000  plane waves:    4051
 k-point ** :   0.2500 0.2500 0.5000  plane waves:    4051
 k-point ** :   0.2143 0.2143 0.5000  plane waves:    4069
 k-point ** :   0.1786 0.1786 0.5000  plane waves:    4071
 k-point ** :   0.1429 0.1429 0.5000  plane waves:    4063
 k-point ** :   0.1071 0.1071 0.5000  plane waves:    4058
 k-point ** :   0.0714 0.0714 0.5000  plane waves:    4047
 k-point ** :   0.0357 0.0357 0.5000  plane waves:    4043
 k-point ** :   0.0000 0.0000 0.5000  plane waves:    4040

 maximum and minimum number of plane-waves per node :      1048      986

 maximum number of plane-waves:      4094
 maximum index in each direction: 
   IXMAX=   10   IYMAX=   10   IZMAX=   12
   IXMIN=  -10   IYMIN=  -10   IZMIN=  -12

 WARNING: aliasing errors must be expected set NGX to  42 to avoid them
 WARNING: aliasing errors must be expected set NGY to  42 to avoid them
 WARNING: aliasing errors must be expected set NGZ to  50 to avoid them
 aliasing errors are usually negligible using standard VASP settings
 and one can safely disregard these warnings

 parallel 3D FFT for wavefunctions:
    minimum data exchange during FFTs selected (reduces bandwidth)
 parallel 3D FFT for charge:
    minimum data exchange during FFTs selected (reduces bandwidth)


 FFT grid for exact exchange (Hartree Fock) 
  NGX = 24; NGY = 24; NGZ = 28

 
 Radii for the augmentation spheres in the non-local exchange
 for species   1 augmentation radius   1.120 (default was   0.830)
       energy cutoff for augmentation   2000.0
 for species   2 augmentation radius   1.285 (default was   0.952)
       energy cutoff for augmentation   2000.0
 for species   3 augmentation radius   1.471 (default was   1.089)
       energy cutoff for augmentation   2000.0
 for species   4 augmentation radius   1.309 (default was   0.970)
       energy cutoff for augmentation   2000.0

 real space projection operators:
  total allocation   :        933.92 KBytes
  max/ min on nodes  :        237.07        230.05


 total amount of memory used by VASP on root node   195572. kBytes
========================================================================

   base      :      30000. kBytes
   nonl-proj :      75468. kBytes
   fftplans  :       2141. kBytes
   grid      :       3584. kBytes
   one-center:         31. kBytes
   HF        :        129. kBytes
   nonlr-proj:        480. kBytes
   wavefun   :      83739. kBytes
 
     INWAV:  cpu time    0.00: real time    0.00
 Broyden mixing: mesh for mixing (old mesh)
   NGX = 19   NGY = 19   NGZ = 25
  (NGX  = 80   NGY  = 80   NGZ  = 96)
  gives a total of   9025 points

 initial charge density was supplied:
 charge density of overlapping atoms calculated
 number of electron      84.0000000 magnetization 
 charge density for first step will be calculated from the start-wavefunctions


--------------------------------------------------------------------------------------------------------


 Maximum index for augmentation-charges         1303 (set IRDMAX)


--------------------------------------------------------------------------------------------------------


 First call to EWALD:  gamma=   0.326
 Maximum number of real-space cells 3x 3x 3
 Maximum number of reciprocal cells 3x 3x 3

 FEWALD executed in parallel
    FEWALD:  cpu time    0.00: real time    0.00


----------------------------------------- Iteration    1(   1)  ---------------------------------------


    POTLOK:  cpu time    0.14: real time    0.14
    SETDIJ:  cpu time    0.22: real time    0.22
    TRIAL :  cpu time    1.44: real time    1.47
    CORREC:  cpu time    0.00: real time    0.00
    --------------------------------------------
      LOOP:  cpu time    1.83: real time    1.86

[...]
     19      -4.5868      2.00000
     20      -4.5460      2.00000
     21      -3.7884      2.00000
     22      -2.0993      2.00000
     23      -1.3272      2.00000
     24      -0.8123      2.00000
     25      -0.6279      2.00000
     26      -0.4318      2.00000
     27      -0.2565      2.00000
     28      -0.0676      2.00000
     29      -0.0175      2.00000
     30       0.3459      2.00000
     31       0.4703      2.00000
     32       0.5304      2.00000
     33       1.5263      2.00000
     34       1.5852      2.00000
     35       1.7244      2.00000
     36       1.7567      2.00000
     37       2.1095      2.00000
     38       2.3765      2.00000
     39       2.5197      2.00000
     40       2.7006      2.00000
     41       3.2656      2.00000
     42       3.3760      2.00000
     43       6.4501      0.00000
     44       7.5093      0.00000
     45       7.5807      0.00000
     46       7.9628      0.00000
     47       8.6175      0.00000
     48       9.3074      0.00000
     49       9.9384      0.00000
     50      10.3281      0.00000
     51      11.2211      0.00000
     52      12.2215      0.00000

 k-point   119 :       0.1071    0.1071    0.5000
  band No.  band energies     occupation 
      1     -68.5134      2.00000
      2     -68.4799      2.00000
      3     -68.4798      2.00000
      4     -68.4605      2.00000
      5     -68.4578      2.00000
      6     -68.4577      2.00000
      7     -20.1595      2.00000
      8     -20.1552      2.00000
      9     -20.1551      2.00000
     10     -20.0616      2.00000
     11     -20.0562      2.00000
     12     -11.2690      2.00000
     13     -10.6244      2.00000
     14     -10.1356      2.00000
     15     -10.1184      2.00000
     16      -5.0056      2.00000
     17      -4.6482      2.00000
     18      -4.6402      2.00000
     19      -4.5974      2.00000
     20      -4.5478      2.00000
     21      -3.7730      2.00000
     22      -2.1394      2.00000
     23      -1.1840      2.00000
     24      -0.7682      2.00000
     25      -0.5590      2.00000
     26      -0.3932      2.00000
     27      -0.2715      2.00000
     28      -0.0520      2.00000
     29      -0.0191      2.00000
     30       0.3842      2.00000
     31       0.4668      2.00000
     32       0.5166      2.00000
     33       1.4765      2.00000
     34       1.5755      2.00000
     35       1.6867      2.00000
     36       1.7248      2.00000
     37       2.2072      2.00000
     38       2.4449      2.00000
     39       2.5795      2.00000
     40       2.7217      2.00000
     41       3.1565      2.00000
     42       3.2257      2.00000
     43       6.4873      0.00000
     44       7.3494      0.00000
     45       7.3794      0.00000
     46       7.7859      0.00000
     47       8.5524      0.00000
     48       9.0168      0.00000
     49       9.7423      0.00000
     50       9.9738      0.00000
     51      11.4166      0.00000
     52      11.9845      0.00000

 k-point   120 :       0.0714    0.0714    0.5000
  band No.  band energies     occupation 
      1     -68.5133      2.00000
      2     -68.4798      2.00000
      3     -68.4797      2.00000
      4     -68.4607      2.00000
      5     -68.4576      2.00000
      6     -68.4575      2.00000
      7     -20.1594      2.00000
      8     -20.1551      2.00000
      9     -20.1550      2.00000
     10     -20.0617      2.00000
     11     -20.0562      2.00000
     12     -11.2435      2.00000
     13     -10.7046      2.00000
     14     -10.1066      2.00000
     15     -10.0983      2.00000
     16      -5.0275      2.00000
     17      -4.6443      2.00000
     18      -4.6343      2.00000
     19      -4.6086      2.00000
     20      -4.5503      2.00000
     21      -3.7681      2.00000
     22      -2.1845      2.00000
     23      -1.0450      2.00000
     24      -0.7467      2.00000
     25      -0.4830      2.00000
     26      -0.3715      2.00000
     27      -0.3090      2.00000
     28      -0.0324      2.00000
     29      -0.0177      2.00000
     30       0.4315      2.00000
     31       0.4783      2.00000
     32       0.5091      2.00000
     33       1.4206      2.00000
     34       1.5723      2.00000
     35       1.6426      2.00000
     36       1.7078      2.00000
     37       2.3284      2.00000
     38       2.5192      2.00000
     39       2.6359      2.00000
     40       2.7372      2.00000
     41       3.0562      2.00000
     42       3.0834      2.00000
     43       6.4908      0.00000
     44       7.1933      0.00000
     45       7.2046      0.00000
     46       7.6338      0.00000
     47       8.5111      0.00000
     48       8.8053      0.00000
     49       9.6256      0.00000
     50       9.7623      0.00000
     51      11.7155      0.00000
     52      12.2463      0.00000

 k-point   121 :       0.0357    0.0357    0.5000
  band No.  band energies     occupation 
      1     -68.5133      2.00000
      2     -68.4797      2.00000
      3     -68.4798      2.00000
      4     -68.4606      2.00000
      5     -68.4576      2.00000
      6     -68.4575      2.00000
      7     -20.1594      2.00000
      8     -20.1550      2.00000
      9     -20.1550      2.00000
     10     -20.0617      2.00000
     11     -20.0562      2.00000
     12     -11.2184      2.00000
     13     -10.7643      2.00000
     14     -10.0878      2.00000
     15     -10.0857      2.00000
     16      -5.0414      2.00000
     17      -4.6382      2.00000
     18      -4.6295      2.00000
     19      -4.6196      2.00000
     20      -4.5527      2.00000
     21      -3.7681      2.00000
     22      -2.2183      2.00000
     23      -0.9190      2.00000
     24      -0.7592      2.00000
     25      -0.4212      2.00000
     26      -0.3677      2.00000
     27      -0.3478      2.00000
     28      -0.0193      2.00000
     29      -0.0160      2.00000
     30       0.4624      2.00000
     31       0.5006      2.00000
     32       0.5104      2.00000
     33       1.3774      2.00000
     34       1.5606      2.00000
     35       1.6313      2.00000
     36       1.6877      2.00000
     37       2.4440      2.00000
     38       2.5876      2.00000
     39       2.6719      2.00000
     40       2.7202      2.00000
     41       2.9821      2.00000
     42       2.9865      2.00000
     43       6.4778      0.00000
     44       7.0809      0.00000
     45       7.0846      0.00000
     46       7.5354      0.00000
     47       8.4765      0.00000
     48       8.6753      0.00000
     49       9.5649      0.00000
     50       9.6464      0.00000
     51      12.0357      0.00000
     52      12.4012      0.00000

 k-point   122 :       0.0000    0.0000    0.5000
  band No.  band energies     occupation 
      1     -68.5132      2.00000
      2     -68.4798      2.00000
      3     -68.4798      2.00000
      4     -68.4605      2.00000
      5     -68.4576      2.00000
      6     -68.4576      2.00000
      7     -20.1594      2.00000
      8     -20.1550      2.00000
      9     -20.1550      2.00000
     10     -20.0617      2.00000
     11     -20.0562      2.00000
     12     -11.2074      2.00000
     13     -10.7871      2.00000
     14     -10.0813      2.00000
     15     -10.0813      2.00000
     16      -5.0461      2.00000
     17      -4.6318      2.00000
     18      -4.6276      2.00000
     19      -4.6276      2.00000
     20      -4.5536      2.00000
     21      -3.7687      2.00000
     22      -2.2307      2.00000
     23      -0.8254      2.00000
     24      -0.8114      2.00000
     25      -0.3904      2.00000
     26      -0.3697      2.00000
     27      -0.3697      2.00000
     28      -0.0151      2.00000
     29      -0.0151      2.00000
     30       0.4695      2.00000
     31       0.5137      2.00000
     32       0.5137      2.00000
     33       1.3610      2.00000
     34       1.5518      2.00000
     35       1.6390      2.00000
     36       1.6738      2.00000
     37       2.5019      2.00000
     38       2.6312      2.00000
     39       2.6811      2.00000
     40       2.6810      2.00000
     41       2.9555      2.00000
     42       2.9555      2.00000
     43       6.4696      0.00000
     44       7.0411      0.00000
     45       7.0412      0.00000
     46       7.5011      0.00000
     47       8.4611      0.00000
     48       8.6319      0.00000
     49       9.5431      0.00000
     50       9.6139      0.00000
     51      12.2475      0.00000
     52      12.4340      0.00000


--------------------------------------------------------------------------------------------------------


 soft charge-density along one line, spin component           1
         0         1         2         3         4         5         6         7         8         9
 total charge-density along one line
 
 pseudopotential strength for first ion, spin component:           1
-65.327  -0.000  -0.000   7.325   0.000   0.000   0.000  -0.002
 -0.000 -65.311  -0.000   0.000   7.319   0.000   0.023   0.000
 -0.000  -0.000 -65.327   0.000   0.000   7.325   0.000   0.023
  7.325   0.000   0.000   6.118   0.000   0.000  -0.000   0.000
  0.000   7.319   0.000   0.000   6.119   0.000  -0.003  -0.000
  0.000   0.000   7.325   0.000   0.000   6.118  -0.000  -0.003
  0.000   0.023   0.000  -0.000  -0.003  -0.000  -2.905  -0.000
 -0.002   0.000   0.023   0.000  -0.000  -0.003  -0.000  -2.895
  0.000   0.000   0.000   0.000  -0.000   0.000  -0.000  -0.000
  0.023   0.000   0.002  -0.003  -0.000  -0.000  -0.000  -0.000
 -0.000   0.002   0.000   0.000  -0.000  -0.000   0.008   0.000
  0.000   0.022   0.000  -0.000  -0.003  -0.000  -3.553  -0.000
 -0.002   0.000   0.022   0.000  -0.000  -0.003  -0.000  -3.543
  0.000   0.000   0.000   0.000  -0.000   0.000  -0.000  -0.000
  0.022   0.000   0.002  -0.003  -0.000  -0.000  -0.000  -0.000
 -0.000   0.002   0.000   0.000  -0.000  -0.000   0.008   0.000
 -0.000  -0.000  -0.000  -0.000  -0.000  -0.000   0.000   0.000
 -0.000  -0.000  -0.000  -0.000  -0.000  -0.000   0.000   0.000
 total augmentation occupancy for first ion, spin component:           1
  2.000   0.000  -0.000  -0.002   0.000   0.000   0.000  -0.001   0.000   0.008   0.000   0.000   0.001   0.000  -0.008  -0.000
  0.000   2.000   0.000  -0.000  -0.002  -0.000   0.008   0.000   0.000   0.000   0.001  -0.008   0.000   0.000   0.000  -0.001
  0.000   0.000   2.000  -0.000  -0.000  -0.002  -0.000   0.008   0.000   0.001   0.000   0.000  -0.008   0.000  -0.001   0.000
 -0.002   0.000  -0.000   0.097   0.000  -0.000   0.000   0.009   0.000  -0.426   0.000   0.000  -0.004   0.000   0.357   0.000
  0.000  -0.002  -0.000   0.000   0.095   0.000  -0.424   0.000   0.000   0.000   0.003   0.356   0.000   0.000   0.000  -0.004
  0.000   0.000  -0.002   0.000  -0.000   0.097   0.000  -0.426   0.000  -0.009   0.000   0.000   0.357   0.000   0.004   0.000
  0.000   0.008   0.000   0.000  -0.424   0.000   4.552  -0.000   0.000   0.000   0.192  -2.289   0.000   0.000   0.000  -0.111
 -0.001   0.000   0.008   0.009   0.000  -0.426   0.000   4.502  -0.000  -0.000  -0.000   0.000  -2.238   0.000  -0.000  -0.000
 -0.000   0.000  -0.000   0.000   0.000   0.000   0.000   0.000   2.860   0.000   0.000   0.000  -0.000  -0.675   0.000   0.000
  0.008   0.000   0.001  -0.426   0.000  -0.009   0.000   0.000   0.000   4.502   0.000   0.000   0.000   0.000  -2.238   0.000
  0.000   0.001   0.000  -0.000   0.003   0.000   0.192   0.000   0.000   0.000   2.754  -0.111   0.000   0.000   0.000  -0.615
  0.000  -0.008   0.000   0.000   0.356   0.000  -2.289  -0.000   0.000   0.000  -0.111   2.008  -0.000   0.000   0.000   0.046
  0.001   0.000  -0.008  -0.004   0.000   0.357   0.000  -2.238   0.000   0.000   0.000  -0.000   1.955   0.000   0.000  -0.000
 -0.000   0.000   0.000   0.000   0.000   0.000   0.000  -0.000  -0.675   0.000   0.000   0.000   0.000   0.475   0.000   0.000
 -0.008   0.000  -0.001   0.357   0.000   0.004   0.000  -0.000   0.000  -2.238   0.000   0.000  -0.000   0.000   1.955   0.000
  0.000  -0.001   0.000   0.000  -0.004   0.000  -0.111  -0.000   0.000   0.000  -0.615   0.046   0.000   0.000   0.000   0.450
  0.000   0.000   0.000   0.000   0.000   0.000   0.000   0.000   0.043   0.000   0.000   0.000   0.000  -0.026   0.000   0.000
  0.000   0.000   0.000   0.000   0.000   0.000   0.000  -0.000  -0.011   0.000   0.000   0.000  -0.000   0.003   0.000   0.000


------------------------ aborting loop because EDIFF is reached ----------------------------------------


 


 total charge     
 
# of ion     s       p       d       tot
----------------------------------------
  1        0.208   6.163   9.067  15.438
  2        0.206   6.161   9.068  15.435
  3        0.490   0.461   9.836  10.787
  4        1.084   1.141  10.121  12.346
  5        1.319   2.413   0.000   3.732
  6        1.319   2.413   0.000   3.732
  7        1.319   2.413   0.000   3.732
  8        1.319   2.412   0.000   3.731
------------------------------------------------
tot        7.264  23.577  38.091  68.932
 
    FORLOC:  cpu time    0.00: real time    0.00
    FORHF :  cpu time 3562.77: real time 3568.33
    FORNL :  cpu time    0.17: real time    0.17
    STRESS:  cpu time    1.58: real time    1.58
    FORCOR:  cpu time    0.14: real time    0.14
    OFIELD:  cpu time    0.00: real time    0.00

  FORCE on cell =-STRESS in cart. coord.  units (eV):
  Direction    XX          YY          ZZ          XY          YZ          ZX
  --------------------------------------------------------------------------------------
  Alpha Z   275.46753   275.46753   275.46753
  Ewald   -2394.86127 -2394.86127 -2366.21278     0.00000     0.00000     0.00000
  Hartree  1686.80642  1686.80642  1717.92932     0.00000     0.00017     0.00015
  E(xc)    -375.94780  -375.94779  -375.94978    -0.00004     0.00001     0.00001
  Local    -634.08687  -634.08687  -694.16816     0.00036     0.00053     0.00056
  n-local   659.48534   659.61714   659.82097     0.01932    -0.00658     0.14028
  augment   455.51795   455.51793   455.12122    -0.00029    -0.00253    -0.00252
  Kinetic   910.01809   911.94833   911.15284    -0.04141    -0.15971    -0.31526
  Fock            NaN         NaN         NaN         NaN         NaN         NaN
  -------------------------------------------------------------------------------------
  Total           NaN         NaN         NaN         NaN         NaN         NaN
  in kB           NaN         NaN         NaN         NaN         NaN         NaN
  external pressure =         NaN kB  Pullay stress =        0.00 kB


 VOLUME and BASIS-vectors are now :
 -----------------------------------------------------------------------------
  energy-cutoff  :      500.00
  volume of cell :      160.21
      direct lattice vectors                 reciprocal lattice vectors
     5.435300000  0.000000000  0.000000000     0.183982485  0.000000000 -0.092196841
     0.000000000  5.435300000  0.000000000     0.000000000  0.183982485 -0.092196841
     2.717650000  2.717650000  5.423179281     0.000000000  0.000000000  0.184393683

  length of vectors
     5.435300000  5.435300000  6.646962958     0.205790700  0.205790700  0.184393683


 FORCES acting on ions:
    Electron-Ion                     Ewald-Force                    Non-Local-Force
 -----------------------------------------------------------------------------------------------
   -.404E-05 -.853E-06 -.480E-06   0.790E-11 -.246E-11 -.851E-11   0.108E-18 0.976E-18 0.000E+00
   -.636E-07 0.264E-05 0.502E-06   -.763E-11 -.242E-11 0.874E-11   0.000E+00 -.434E-18 0.000E+00
   0.290E-05 -.200E-05 0.520E-06   0.543E-11 -.263E-11 0.605E-11   0.000E+00 0.108E-18 0.000E+00
   0.249E-05 -.194E-05 -.437E-06   -.550E-11 -.257E-11 -.620E-11   0.325E-17 -.716E-17 0.000E+00
   -.636E+02 -.715E+01 0.576E+01   0.613E+02 0.840E+01 -.704E+01   0.217E+01 -.120E+01 0.122E+01
   0.636E+02 0.715E+01 0.576E+01   -.613E+02 -.840E+01 -.704E+01   -.217E+01 0.120E+01 0.122E+01
   0.715E+01 -.636E+02 -.576E+01   -.840E+01 0.613E+02 0.704E+01   0.120E+01 0.217E+01 -.122E+01
   -.715E+01 0.636E+02 -.576E+01   0.840E+01 -.613E+02 0.704E+01   -.120E+01 -.217E+01 -.122E+01
 -----------------------------------------------------------------------------------------------
   -.998E-05 -.499E-05 0.271E-04   0.178E-14 -.711E-14 -.133E-13   0.222E-15 0.000E+00 -.444E-15
 
 
 POSITION                                       TOTAL-FORCE (eV/Angst)
 -----------------------------------------------------------------------------------
      0.00000      0.00000      0.00000              NaN           NaN           NaN
      5.43530      2.71765      2.71159              NaN           NaN           NaN
      2.71765      2.71765      0.00000              NaN           NaN           NaN
      2.71765      5.43530      2.71159              NaN           NaN           NaN
      1.30213      1.38979      1.32105              NaN           NaN           NaN
      4.13317      4.04551      1.32105              NaN           NaN           NaN
      6.76316      4.01978      4.10213              NaN           NaN           NaN
      4.10744      6.85082      4.10213              NaN           NaN           NaN
 -----------------------------------------------------------------------------------
    total drift:                                     NaN           NaN           NaN


--------------------------------------------------------------------------------------------------------



  FREE ENERGIE OF THE ION-ELECTRON SYSTEM (eV)
  ---------------------------------------------------
  free  energy   TOTEN  =       -38.58633141 eV

  energy  without entropy=      -38.58633141  energy(sigma->0) =      -38.58633141
 


--------------------------------------------------------------------------------------------------------


    POTLOK:  cpu time    0.38: real time    0.39


--------------------------------------------------------------------------------------------------------




--------------------------------------------------------------------------------------------------------


  
 reached required accuracy - stopping structural energy minimisation
 writing wavefunctions
     LOOP+:  cpu time54090.85: real time54307.48
    4ORBIT:  cpu time    0.00: real time    0.00
 


 total charge     
 
# of ion     s       p       d       tot
----------------------------------------
  1        0.208   6.163   9.067  15.438
  2        0.206   6.161   9.068  15.435
  3        0.490   0.461   9.836  10.787
  4        1.084   1.141  10.121  12.346
  5        1.319   2.413   0.000   3.732
  6        1.319   2.413   0.000   3.732
  7        1.319   2.413   0.000   3.732
  8        1.319   2.412   0.000   3.731
------------------------------------------------
tot        7.264  23.577  38.091  68.932
 

 total amount of memory used by VASP on root node   197273. kBytes
========================================================================

   base      :      30000. kBytes
   nonl-proj :      75468. kBytes
   fftplans  :       2141. kBytes
   grid      :       3584. kBytes
   one-center:         31. kBytes
   HF        :        129. kBytes
   nonlr-proj:       2181. kBytes
   wavefun   :      83739. kBytes
 
  
  
 General timing and accounting informations for this job:
 ========================================================
  
                  Total CPU time used (sec):    54189.641
                            User time (sec):    48788.796
                          System time (sec):     5400.846
                         Elapsed time (sec):    54406.881
  
                   Maximum memory used (kb):      393816.
                   Average memory used (kb):           0.
  
                          Minor page faults:      2229659
                          Major page faults:            5
                 Voluntary context switches:     46517645
