PROCAR new format
# of k-points:  122         # of bands:  52         # of ions:   8

 k-point    1 :    0.00000000 0.00000000 0.00000000     weight = 0.00694444

band   1 # energy  -68.51315792 # occ.  2.00000000
 
ion      s      p      d    tot
  1  0.000  0.003  0.000  0.003
  2  0.000  0.994  0.000  0.994
  3  0.000  0.000  0.000  0.000
  4  0.000  0.000  0.000  0.000
  5  0.000  0.000  0.000  0.000
  6  0.000  0.000  0.000  0.000
  7  0.000  0.000  0.000  0.000
  8  0.000  0.000  0.000  0.000
tot  0.000  0.998  0.000  0.998
 
band   2 # energy  -68.47986855 # occ.  2.00000000
 
ion      s      p      d    tot
  1  0.000  0.996  0.000  0.996
  2  0.000  0.001  0.000  0.001
  3  0.000  0.000  0.000  0.000
  4  0.000  0.000  0.000  0.000
  5  0.000  0.000  0.000  0.000
  6  0.000  0.000  0.000  0.000
  7  0.000  0.000  0.000  0.000
  8  0.000  0.000  0.000  0.000
tot  0.000  0.998  0.000  0.998
 
band   3 # energy  -68.47964253 # occ.  2.00000000
 
ion      s      p      d    tot
  1  0.000  0.987  0.000  0.987
  2  0.000  0.011  0.000  0.011
  3  0.000  0.000  0.000  0.000
  4  0.000  0.000  0.000  0.000
  5  0.000  0.000  0.000  0.000
  6  0.000  0.000  0.000  0.000
  7  0.000  0.000  0.000  0.000
  8  0.000  0.000  0.000  0.000
tot  0.000  0.998  0.000  0.998
 
band   4 # energy  -68.45789348 # occ.  2.00000000
 
ion      s      p      d    tot
  1  0.000  0.080  0.000  0.080
  2  0.000  0.918  0.000  0.918
  3  0.000  0.000  0.000  0.000
  4  0.000  0.000  0.000  0.000
  5  0.000  0.000  0.000  0.000
  6  0.000  0.000  0.000  0.000
  7  0.000  0.000  0.000  0.000
  8  0.000  0.000  0.000  0.000
tot  0.000  0.998  0.000  0.998
 
band   5 # energy  -68.45837047 # occ.  2.00000000
 
ion      s      p      d    tot
  1  0.000  0.153  0.000  0.153
  2  0.000  0.845  0.000  0.845
  3  0.000  0.000  0.000  0.000
  4  0.000  0.000  0.000  0.000
  5  0.000  0.000  0.000  0.000
  6  0.000  0.000  0.000  0.000
  7  0.000  0.000  0.000  0.000
  8  0.000  0.000  0.000  0.000
tot  0.000  0.998  0.000  0.998
 
band   6 # energy  -68.45988219 # occ.  2.00000000
 
ion      s      p      d    tot
  1  0.000  0.774  0.000  0.774
  2  0.000  0.224  0.000  0.224
  3  0.000  0.000  0.000  0.000
  4  0.000  0.000  0.000  0.000
  5  0.000  0.000  0.000  0.000
  6  0.000  0.000  0.000  0.000
  7  0.000  0.000  0.000  0.000
  8  0.000  0.000  0.000  0.000
tot  0.000  0.998  0.000  0.998
 
band   7 # energy  -20.15920951 # occ.  2.00000000
 
ion      s      p      d    tot
  1  0.000  0.000  0.000  0.000
  2  0.000  0.000  0.000  0.000
  3  0.000  0.000  0.000  0.000
  4  0.000  0.000  0.984  0.984
  5  0.001  0.000  0.000  0.001
  6  0.001  0.000  0.000  0.001
  7  0.001  0.000  0.000  0.001
  8  0.001  0.000  0.000  0.001
tot  0.003  0.002  0.984  0.989
 
band   8 # energy  -20.15526125 # occ.  2.00000000
 
ion      s      p      d    tot
  1  0.000  0.000  0.000  0.000
  2  0.000  0.000  0.000  0.000
  3  0.000  0.000  0.000  0.000
  4  0.000  0.000  0.984  0.984
  5  0.001  0.001  0.000  0.002
  6  0.001  0.001  0.000  0.002
  7  0.000  0.000  0.000  0.001
  8  0.000  0.000  0.000  0.001
tot  0.003  0.002  0.984  0.989
 
band   9 # energy  -20.15526019 # occ.  2.00000000
 
ion      s      p      d    tot
  1  0.000  0.000  0.000  0.000
  2  0.000  0.000  0.000  0.000
  3  0.000  0.000  0.000  0.000
  4  0.000  0.000  0.984  0.984
  5  0.000  0.000  0.000  0.001
  6  0.000  0.000  0.000  0.001
  7  0.001  0.001  0.000  0.002
  8  0.001  0.001  0.000  0.002
tot  0.003  0.002  0.984  0.989
 
band  10 # energy  -20.06166340 # occ.  2.00000000
 
ion      s      p      d    tot
  1  0.000  0.000  0.000  0.000
  2  0.000  0.000  0.000  0.000
  3  0.000  0.000  0.000  0.000
  4  0.000  0.000  0.991  0.991
  5  0.000  0.000  0.000  0.000
  6  0.000  0.000  0.000  0.000
  7  0.000  0.000  0.000  0.000
  8  0.000  0.000  0.000  0.000
tot  0.000  0.000  0.991  0.991
 
band  11 # energy  -20.05623603 # occ.  2.00000000
 
ion      s      p      d    tot
  1  0.000  0.000  0.000  0.000
  2  0.000  0.000  0.000  0.000
  3  0.000  0.000  0.000  0.000
  4  0.000  0.000  0.991  0.991
  5  0.000  0.000  0.000  0.000
  6  0.000  0.000  0.000  0.000
  7  0.000  0.000  0.000  0.000
  8  0.000  0.000  0.000  0.000
tot  0.000  0.000  0.991  0.991
 
band  12 # energy  -11.72118055 # occ.  2.00000000
 
ion      s      p      d    tot
  1  0.008  0.000  0.000  0.008
  2  0.008  0.000  0.000  0.008
  3  0.022  0.000  0.000  0.022
  4  0.085  0.000  0.000  0.085
  5  0.130  0.001  0.000  0.131
  6  0.130  0.001  0.000  0.131
  7  0.130  0.001  0.000  0.131
  8  0.130  0.001  0.000  0.131
tot  0.644  0.003  0.000  0.646
 
band  13 # energy  -10.07678254 # occ.  2.00000000
 
ion      s      p      d    tot
  1  0.000  0.003  0.004  0.007
  2  0.000  0.003  0.004  0.007
  3  0.000  0.009  0.016  0.024
  4  0.000  0.022  0.010  0.032
  5  0.163  0.000  0.000  0.163
  6  0.161  0.000  0.000  0.161
  7  0.160  0.000  0.000  0.160
  8  0.164  0.000  0.000  0.164
tot  0.647  0.037  0.034  0.718
 
band  14 # energy  -10.06639006 # occ.  2.00000000
 
ion      s      p      d    tot
  1  0.000  0.003  0.004  0.007
  2  0.000  0.003  0.004  0.007
  3  0.000  0.009  0.016  0.024
  4  0.000  0.022  0.011  0.032
  5  0.304  0.000  0.000  0.304
  6  0.306  0.000  0.000  0.307
  7  0.019  0.000  0.000  0.019
  8  0.020  0.000  0.000  0.020
tot  0.648  0.036  0.035  0.720
 
band  15 # energy  -10.06638429 # occ.  2.00000000
 
ion      s      p      d    tot
  1  0.000  0.003  0.004  0.007
  2  0.000  0.003  0.004  0.007
  3  0.000  0.009  0.016  0.024
  4  0.000  0.022  0.011  0.032
  5  0.020  0.000  0.000  0.020
  6  0.019  0.000  0.000  0.019
  7  0.307  0.000  0.000  0.307
  8  0.303  0.000  0.000  0.303
tot  0.648  0.036  0.035  0.720
 
band  16 # energy   -4.70239825 # occ.  2.00000000
 
ion      s      p      d    tot
  1  0.006  0.000  0.002  0.007
  2  0.001  0.000  0.003  0.004
  3  0.015  0.000  0.449  0.464
  4  0.197  0.000  0.000  0.197
  5  0.005  0.028  0.000  0.032
  6  0.005  0.028  0.000  0.032
  7  0.005  0.028  0.000  0.032
  8  0.005  0.028  0.000  0.032
tot  0.237  0.111  0.454  0.802
 
band  17 # energy   -4.64246210 # occ.  2.00000000
 
ion      s      p      d    tot
  1  0.000  0.000  0.000  0.000
  2  0.000  0.000  0.001  0.001
  3  0.000  0.000  0.913  0.914
  4  0.000  0.004  0.001  0.005
  5  0.002  0.006  0.000  0.008
  6  0.002  0.006  0.000  0.008
  7  0.002  0.006  0.000  0.008
  8  0.002  0.006  0.000  0.008
tot  0.006  0.029  0.915  0.951
 
band  18 # energy   -4.59705309 # occ.  2.00000000
 
ion      s      p      d    tot
  1  0.000  0.000  0.001  0.002
  2  0.000  0.000  0.001  0.001
  3  0.000  0.000  0.923  0.923
  4  0.000  0.002  0.001  0.002
  5  0.002  0.004  0.000  0.006
  6  0.002  0.004  0.000  0.006
  7  0.003  0.006  0.000  0.009
  8  0.003  0.006  0.000  0.009
tot  0.009  0.023  0.926  0.958
 
band  19 # energy   -4.59705194 # occ.  2.00000000
 
ion      s      p      d    tot
  1  0.000  0.000  0.001  0.002
  2  0.000  0.000  0.001  0.001
  3  0.000  0.000  0.923  0.923
  4  0.000  0.002  0.001  0.002
  5  0.003  0.006  0.000  0.009
  6  0.003  0.006  0.000  0.009
  7  0.002  0.004  0.000  0.006
  8  0.002  0.004  0.000  0.006
tot  0.009  0.023  0.926  0.958
 
band  20 # energy   -4.58970883 # occ.  2.00000000
 
ion      s      p      d    tot
  1  0.000  0.000  0.001  0.001
  2  0.000  0.000  0.000  0.001
  3  0.000  0.000  0.932  0.932
  4  0.000  0.001  0.000  0.001
  5  0.000  0.003  0.000  0.004
  6  0.000  0.003  0.000  0.004
  7  0.000  0.003  0.000  0.004
  8  0.000  0.003  0.000  0.004
tot  0.001  0.015  0.933  0.950
 
band  21 # energy   -4.25201269 # occ.  2.00000000
 
ion      s      p      d    tot
  1  0.002  0.000  0.001  0.002
  2  0.004  0.000  0.003  0.007
  3  0.017  0.000  0.498  0.515
  4  0.208  0.000  0.000  0.208
  5  0.005  0.023  0.000  0.028
  6  0.005  0.023  0.000  0.028
  7  0.005  0.023  0.000  0.028
  8  0.005  0.023  0.000  0.028
tot  0.250  0.091  0.501  0.842
 
band  22 # energy   -1.86032945 # occ.  2.00000000
 
ion      s      p      d    tot
  1  0.009  0.000  0.020  0.029
  2  0.037  0.000  0.000  0.038
  3  0.150  0.000  0.001  0.150
  4  0.013  0.000  0.003  0.016
  5  0.002  0.078  0.000  0.079
  6  0.002  0.078  0.000  0.080
  7  0.002  0.078  0.000  0.080
  8  0.002  0.078  0.000  0.080
tot  0.215  0.311  0.024  0.551
 
band  23 # energy   -1.23028402 # occ.  2.00000000
 
ion      s      p      d    tot
  1  0.000  0.000  0.068  0.068
  2  0.000  0.011  0.033  0.044
  3  0.000  0.000  0.045  0.046
  4  0.000  0.106  0.004  0.109
  5  0.001  0.078  0.000  0.079
  6  0.001  0.078  0.000  0.079
  7  0.001  0.079  0.000  0.080
  8  0.001  0.079  0.000  0.080
tot  0.003  0.432  0.150  0.585
 
band  24 # energy   -1.18088984 # occ.  2.00000000
 
ion      s      p      d    tot
  1  0.072  0.000  0.002  0.074
  2  0.040  0.000  0.003  0.042
  3  0.016  0.000  0.028  0.044
  4  0.001  0.000  0.004  0.005
  5  0.000  0.086  0.000  0.086
  6  0.000  0.086  0.000  0.087
  7  0.000  0.085  0.000  0.085
  8  0.000  0.086  0.000  0.086
tot  0.129  0.343  0.036  0.508
 
band  25 # energy   -0.74478448 # occ.  2.00000000
 
ion      s      p      d    tot
  1  0.000  0.012  0.085  0.097
  2  0.000  0.001  0.093  0.093
  3  0.000  0.032  0.009  0.041
  4  0.000  0.000  0.009  0.009
  5  0.000  0.081  0.000  0.081
  6  0.000  0.081  0.000  0.081
  7  0.000  0.081  0.000  0.081
  8  0.000  0.081  0.000  0.081
tot  0.000  0.368  0.196  0.564
 
band  26 # energy   -0.61550377 # occ.  2.00000000
 
ion      s      p      d    tot
  1  0.000  0.008  0.018  0.025
  2  0.000  0.000  0.011  0.011
  3  0.000  0.023  0.003  0.025
  4  0.000  0.152  0.005  0.157
  5  0.001  0.108  0.000  0.109
  6  0.001  0.108  0.000  0.109
  7  0.001  0.072  0.000  0.072
  8  0.001  0.072  0.000  0.072
tot  0.003  0.542  0.036  0.581
 
band  27 # energy   -0.61547763 # occ.  2.00000000
 
ion      s      p      d    tot
  1  0.000  0.008  0.017  0.025
  2  0.000  0.000  0.010  0.011
  3  0.000  0.023  0.003  0.025
  4  0.000  0.152  0.005  0.157
  5  0.001  0.072  0.000  0.072
  6  0.001  0.072  0.000  0.072
  7  0.001  0.108  0.000  0.109
  8  0.001  0.108  0.000  0.109
tot  0.003  0.542  0.035  0.581
 
band  28 # energy   -0.00185290 # occ.  2.00000000
 
ion      s      p      d    tot
  1  0.000  0.007  0.090  0.097
  2  0.000  0.012  0.233  0.245
  3  0.000  0.006  0.000  0.007
  4  0.000  0.004  0.002  0.006
  5  0.000  0.082  0.000  0.082
  6  0.000  0.082  0.000  0.082
  7  0.000  0.080  0.000  0.080
  8  0.000  0.079  0.000  0.080
tot  0.000  0.353  0.325  0.679
 
band  29 # energy   -0.00167278 # occ.  2.00000000
 
ion      s      p      d    tot
  1  0.000  0.007  0.089  0.096
  2  0.000  0.012  0.232  0.244
  3  0.000  0.007  0.000  0.007
  4  0.000  0.004  0.002  0.006
  5  0.000  0.080  0.000  0.080
  6  0.000  0.080  0.000  0.080
  7  0.000  0.082  0.000  0.082
  8  0.000  0.082  0.000  0.082
tot  0.000  0.355  0.323  0.678
 
band  30 # energy    0.34540233 # occ.  2.00000000
 
ion      s      p      d    tot
  1  0.000  0.000  0.210  0.210
  2  0.000  0.001  0.269  0.269
  3  0.000  0.010  0.028  0.038
  4  0.000  0.008  0.008  0.016
  5  0.000  0.055  0.000  0.055
  6  0.000  0.057  0.000  0.057
  7  0.000  0.054  0.000  0.054
  8  0.000  0.058  0.000  0.059
tot  0.001  0.243  0.515  0.758
 
band  31 # energy    0.38001942 # occ.  2.00000000
 
ion      s      p      d    tot
  1  0.000  0.002  0.258  0.259
  2  0.000  0.004  0.096  0.100
  3  0.000  0.031  0.029  0.060
  4  0.000  0.001  0.004  0.005
  5  0.000  0.058  0.000  0.058
  6  0.000  0.058  0.000  0.058
  7  0.000  0.078  0.000  0.079
  8  0.000  0.078  0.000  0.078
tot  0.001  0.310  0.387  0.698
 
band  32 # energy    0.38003112 # occ.  2.00000000
 
ion      s      p      d    tot
  1  0.000  0.002  0.258  0.260
  2  0.000  0.004  0.096  0.100
  3  0.000  0.031  0.029  0.060
  4  0.000  0.001  0.004  0.005
  5  0.001  0.079  0.000  0.079
  6  0.000  0.077  0.000  0.078
  7  0.000  0.060  0.000  0.061
  8  0.000  0.056  0.000  0.056
tot  0.001  0.310  0.387  0.698
 
band  33 # energy    1.41025792 # occ.  2.00000000
 
ion      s      p      d    tot
  1  0.000  0.000  0.443  0.444
  2  0.000  0.000  0.419  0.420
  3  0.000  0.001  0.000  0.002
  4  0.000  0.005  0.000  0.005
  5  0.000  0.000  0.000  0.000
  6  0.000  0.000  0.000  0.000
  7  0.000  0.000  0.000  0.000
  8  0.000  0.000  0.000  0.000
tot  0.001  0.008  0.863  0.871
 
band  34 # energy    1.47466009 # occ.  2.00000000
 
ion      s      p      d    tot
  1  0.001  0.000  0.072  0.073
  2  0.002  0.000  0.772  0.774
  3  0.005  0.000  0.000  0.005
  4  0.027  0.000  0.000  0.027
  5  0.001  0.002  0.000  0.003
  6  0.001  0.002  0.000  0.003
  7  0.001  0.002  0.000  0.002
  8  0.001  0.002  0.000  0.002
tot  0.038  0.008  0.844  0.890
 
band  35 # energy    1.62746326 # occ.  2.00000000
 
ion      s      p      d    tot
  1  0.000  0.000  0.799  0.799
  2  0.003  0.000  0.090  0.093
  3  0.011  0.000  0.000  0.011
  4  0.000  0.000  0.000  0.000
  5  0.000  0.001  0.000  0.001
  6  0.000  0.001  0.000  0.001
  7  0.000  0.001  0.000  0.001
  8  0.000  0.001  0.000  0.001
tot  0.014  0.005  0.889  0.908
 
band  36 # energy    1.95510887 # occ.  2.00000000
 
ion      s      p      d    tot
  1  0.000  0.000  0.538  0.538
  2  0.000  0.002  0.287  0.288
  3  0.000  0.005  0.004  0.009
  4  0.000  0.016  0.002  0.018
  5  0.000  0.013  0.000  0.013
  6  0.000  0.013  0.000  0.013
  7  0.000  0.013  0.000  0.013
  8  0.000  0.012  0.000  0.013
tot  0.001  0.074  0.831  0.906
 
band  37 # energy    2.01529433 # occ.  2.00000000
 
ion      s      p      d    tot
  1  0.000  0.005  0.337  0.342
  2  0.000  0.006  0.371  0.377
  3  0.000  0.002  0.002  0.004
  4  0.000  0.002  0.001  0.003
  5  0.001  0.021  0.000  0.022
  6  0.001  0.021  0.000  0.022
  7  0.002  0.017  0.000  0.019
  8  0.002  0.017  0.000  0.019
tot  0.005  0.093  0.711  0.809
 
band  38 # energy    2.01523170 # occ.  2.00000000
 
ion      s      p      d    tot
  1  0.000  0.005  0.337  0.342
  2  0.000  0.006  0.372  0.378
  3  0.000  0.002  0.002  0.004
  4  0.000  0.002  0.001  0.003
  5  0.002  0.017  0.000  0.019
  6  0.002  0.017  0.000  0.019
  7  0.001  0.021  0.000  0.021
  8  0.001  0.021  0.000  0.022
tot  0.005  0.093  0.712  0.809
 
band  39 # energy    2.17335324 # occ.  2.00000000
 
ion      s      p      d    tot
  1  0.000  0.005  0.253  0.258
  2  0.000  0.003  0.510  0.513
  3  0.000  0.006  0.004  0.010
  4  0.000  0.002  0.003  0.005
  5  0.000  0.017  0.000  0.017
  6  0.000  0.016  0.000  0.017
  7  0.000  0.016  0.000  0.017
  8  0.000  0.017  0.000  0.017
tot  0.002  0.082  0.770  0.854
 
band  40 # energy    3.91374885 # occ.  2.00000000
 
ion      s      p      d    tot
  1  0.000  0.004  0.205  0.210
  2  0.000  0.004  0.197  0.201
  3  0.000  0.004  0.019  0.023
  4  0.000  0.002  0.017  0.019
  5  0.001  0.088  0.000  0.088
  6  0.001  0.088  0.000  0.089
  7  0.001  0.077  0.000  0.079
  8  0.001  0.077  0.000  0.079
tot  0.004  0.345  0.438  0.786
 
band  41 # energy    3.91380837 # occ.  2.00000000
 
ion      s      p      d    tot
  1  0.000  0.004  0.206  0.210
  2  0.000  0.004  0.196  0.200
  3  0.000  0.004  0.019  0.023
  4  0.000  0.002  0.017  0.019
  5  0.001  0.077  0.000  0.079
  6  0.001  0.078  0.000  0.079
  7  0.001  0.088  0.000  0.088
  8  0.001  0.088  0.000  0.089
tot  0.004  0.345  0.437  0.786
 
band  42 # energy    3.97262400 # occ.  2.00000000
 
ion      s      p      d    tot
  1  0.000  0.004  0.214  0.218
  2  0.000  0.005  0.208  0.212
  3  0.000  0.002  0.016  0.019
  4  0.000  0.003  0.014  0.017
  5  0.000  0.082  0.000  0.082
  6  0.000  0.082  0.000  0.082
  7  0.000  0.082  0.000  0.082
  8  0.000  0.082  0.000  0.082
tot  0.001  0.340  0.452  0.793
 
band  43 # energy    5.37370622 # occ.  0.00000000
 
ion      s      p      d    tot
  1  0.018  0.000  0.004  0.022
  2  0.027  0.000  0.022  0.049
  3  0.038  0.000  0.001  0.039
  4  0.150  0.000  0.000  0.150
  5  0.048  0.036  0.000  0.084
  6  0.048  0.036  0.000  0.084
  7  0.047  0.036  0.000  0.083
  8  0.047  0.036  0.000  0.083
tot  0.422  0.145  0.027  0.594
 
band  44 # energy    6.99885645 # occ.  0.00000000
 
ion      s      p      d    tot
  1  0.000  0.005  0.036  0.042
  2  0.000  0.015  0.035  0.051
  3  0.000  0.015  0.013  0.029
  4  0.000  0.114  0.031  0.145
  5  0.012  0.006  0.000  0.018
  6  0.012  0.006  0.000  0.018
  7  0.013  0.006  0.000  0.019
  8  0.013  0.006  0.000  0.019
tot  0.051  0.174  0.116  0.340
 
band  45 # energy    8.04471241 # occ.  0.00000000
 
ion      s      p      d    tot
  1  0.037  0.000  0.029  0.065
  2  0.001  0.000  0.039  0.040
  3  0.121  0.000  0.007  0.128
  4  0.068  0.000  0.010  0.078
  5  0.009  0.029  0.000  0.038
  6  0.009  0.028  0.000  0.037
  7  0.009  0.028  0.000  0.036
  8  0.008  0.029  0.000  0.038
tot  0.261  0.114  0.085  0.460
 
band  46 # energy    8.93122212 # occ.  0.00000000
 
ion      s      p      d    tot
  1  0.000  0.007  0.013  0.020
  2  0.000  0.001  0.022  0.023
  3  0.000  0.020  0.006  0.025
  4  0.000  0.198  0.033  0.231
  5  0.004  0.069  0.000  0.073
  6  0.004  0.070  0.000  0.074
  7  0.001  0.011  0.000  0.012
  8  0.001  0.011  0.000  0.012
tot  0.009  0.387  0.074  0.469
 
band  47 # energy    8.93638170 # occ.  0.00000000
 
ion      s      p      d    tot
  1  0.000  0.007  0.013  0.020
  2  0.000  0.001  0.022  0.023
  3  0.000  0.020  0.006  0.025
  4  0.000  0.199  0.033  0.232
  5  0.000  0.012  0.000  0.013
  6  0.001  0.010  0.000  0.011
  7  0.004  0.068  0.000  0.072
  8  0.004  0.070  0.000  0.074
tot  0.009  0.387  0.073  0.469
 
band  48 # energy   10.29423198 # occ.  0.00000000
 
ion      s      p      d    tot
  1  0.003  0.024  0.007  0.035
  2  0.028  0.010  0.002  0.040
  3  0.001  0.079  0.005  0.084
  4  0.010  0.122  0.009  0.141
  5  0.000  0.015  0.000  0.015
  6  0.003  0.008  0.000  0.011
  7  0.000  0.016  0.000  0.016
  8  0.002  0.013  0.000  0.015
tot  0.047  0.286  0.024  0.357
 
band  49 # energy   10.46832158 # occ.  0.00000000
 
ion      s      p      d    tot
  1  0.001  0.008  0.010  0.020
  2  0.064  0.012  0.005  0.082
  3  0.003  0.045  0.008  0.056
  4  0.025  0.043  0.020  0.089
  5  0.009  0.015  0.000  0.024
  6  0.000  0.033  0.000  0.033
  7  0.003  0.020  0.000  0.023
  8  0.001  0.028  0.000  0.029
tot  0.108  0.206  0.043  0.357
 
band  50 # energy   10.62331326 # occ.  0.00000000
 
ion      s      p      d    tot
  1  0.023  0.017  0.015  0.055
  2  0.007  0.012  0.006  0.025
  3  0.034  0.048  0.011  0.094
  4  0.006  0.067  0.006  0.079
  5  0.003  0.015  0.000  0.018
  6  0.001  0.018  0.000  0.019
  7  0.001  0.037  0.000  0.038
  8  0.008  0.017  0.000  0.024
tot  0.084  0.230  0.039  0.352
 
band  51 # energy   11.30868808 # occ.  0.00000000
 
ion      s      p      d    tot
  1  0.010  0.006  0.010  0.027
  2  0.014  0.020  0.009  0.043
  3  0.019  0.063  0.007  0.089
  4  0.009  0.015  0.031  0.055
  5  0.002  0.034  0.000  0.036
  6  0.001  0.029  0.000  0.029
  7  0.002  0.007  0.000  0.009
  8  0.000  0.011  0.000  0.011
tot  0.057  0.185  0.058  0.299
 
band  52 # energy   11.79528162 # occ.  0.00000000
 
ion      s      p      d    tot
  1  0.042  0.027  0.006  0.075
  2  0.006  0.028  0.004  0.038
  3  0.041  0.020  0.009  0.070
  4  0.000  0.020  0.010  0.030
  5  0.011  0.025  0.000  0.037
  6  0.011  0.028  0.000  0.039
  7  0.001  0.016  0.000  0.017
  8  0.002  0.008  0.000  0.009
tot  0.113  0.172  0.030  0.315
 

 k-point    2 :    0.16666667 0.00000000 0.00000000     weight = 0.02777778

band   1 # energy  -68.51327446 # occ.  2.00000000
 
ion      s      p      d    tot
  1  0.000  0.000  0.000  0.000
  2  0.000  0.997  0.000  0.997
  3  0.000  0.000  0.000  0.000
  4  0.000  0.000  0.000  0.000
  5  0.000  0.000  0.000  0.000
  6  0.000  0.000  0.000  0.000
  7  0.000  0.000  0.000  0.000
  8  0.000  0.000  0.000  0.000
tot  0.000  0.998  0.000  0.998
 
band   2 # energy  -68.47981915 # occ.  2.00000000
 
ion      s      p      d    tot
  1  0.000  0.996  0.000  0.996
  2  0.000  0.001  0.000  0.001
  3  0.000  0.000  0.000  0.000
  4  0.000  0.000  0.000  0.000
  5  0.000  0.000  0.000  0.000
  6  0.000  0.000  0.000  0.000
  7  0.000  0.000  0.000  0.000
  8  0.000  0.000  0.000  0.000
tot  0.000  0.998  0.000  0.998
 
band   3 # energy  -68.47977913 # occ.  2.00000000
 
ion      s      p      d    tot
  1  0.000  0.994  0.000  0.994
  2  0.000  0.004  0.000  0.004
  3  0.000  0.000  0.000  0.000
  4  0.000  0.000  0.000  0.000
  5  0.000  0.000  0.000  0.000
  6  0.000  0.000  0.000  0.000
  7  0.000  0.000  0.000  0.000
  8  0.000  0.000  0.000  0.000
tot  0.000  0.998  0.000  0.998
 
band   4 # energy  -68.45972686 # occ.  2.00000000
 
ion      s      p      d    tot
  1  0.000  0.551  0.000  0.551
  2  0.000  0.447  0.000  0.447
  3  0.000  0.000  0.000  0.000
  4  0.000  0.000  0.000  0.000
  5  0.000  0.000  0.000  0.000
  6  0.000  0.000  0.000  0.000
  7  0.000  0.000  0.000  0.000
  8  0.000  0.000  0.000  0.000
tot  0.000  0.998  0.000  0.998
 
band   5 # energy  -68.45808408 # occ.  2.00000000
 
ion      s      p      d    tot
  1  0.000  0.258  0.000  0.258
  2  0.000  0.739  0.000  0.739
  3  0.000  0.000  0.000  0.000
  4  0.000  0.000  0.000  0.000
  5  0.000  0.000  0.000  0.000
  6  0.000  0.000  0.000  0.000
  7  0.000  0.000  0.000  0.000
  8  0.000  0.000  0.000  0.000
tot  0.000  0.998  0.000  0.998
 
band   6 # energy  -68.45816553 # occ.  2.00000000
 
ion      s      p      d    tot
  1  0.000  0.193  0.000  0.193
  2  0.000  0.805  0.000  0.805
  3  0.000  0.000  0.000  0.000
  4  0.000  0.000  0.000  0.000
  5  0.000  0.000  0.000  0.000
  6  0.000  0.000  0.000  0.000
  7  0.000  0.000  0.000  0.000
  8  0.000  0.000  0.000  0.000
tot  0.000  0.998  0.000  0.998
 
band   7 # energy  -20.15936890 # occ.  2.00000000
 
ion      s      p      d    tot
  1  0.000  0.000  0.000  0.000
  2  0.000  0.000  0.000  0.000
  3  0.000  0.000  0.000  0.000
  4  0.000  0.000  0.984  0.984
  5  0.001  0.000  0.000  0.001
  6  0.001  0.000  0.000  0.001
  7  0.001  0.000  0.000  0.001
  8  0.001  0.000  0.000  0.001
tot  0.003  0.002  0.984  0.989
 
band   8 # energy  -20.15541261 # occ.  2.00000000
 
ion      s      p      d    tot
  1  0.000  0.000  0.000  0.000
  2  0.000  0.000  0.000  0.000
  3  0.000  0.000  0.000  0.000
  4  0.000  0.000  0.984  0.984
  5  0.001  0.000  0.000  0.001
  6  0.001  0.000  0.000  0.001
  7  0.001  0.000  0.000  0.001
  8  0.001  0.000  0.000  0.001
tot  0.003  0.002  0.984  0.989
 
band   9 # energy  -20.15525372 # occ.  2.00000000
 
ion      s      p      d    tot
  1  0.000  0.000  0.000  0.000
  2  0.000  0.000  0.000  0.000
  3  0.000  0.000  0.000  0.000
  4  0.000  0.000  0.984  0.984
  5  0.001  0.000  0.000  0.001
  6  0.001  0.000  0.000  0.001
  7  0.001  0.000  0.000  0.001
  8  0.001  0.000  0.000  0.001
tot  0.003  0.002  0.984  0.989
 
band  10 # energy  -20.06155112 # occ.  2.00000000
 
ion      s      p      d    tot
  1  0.000  0.000  0.000  0.000
  2  0.000  0.000  0.000  0.000
  3  0.000  0.000  0.000  0.000
  4  0.000  0.000  0.991  0.991
  5  0.000  0.000  0.000  0.000
  6  0.000  0.000  0.000  0.000
  7  0.000  0.000  0.000  0.000
  8  0.000  0.000  0.000  0.000
tot  0.000  0.000  0.991  0.991
 
band  11 # energy  -20.05618286 # occ.  2.00000000
 
ion      s      p      d    tot
  1  0.000  0.000  0.000  0.000
  2  0.000  0.000  0.000  0.000
  3  0.000  0.000  0.000  0.000
  4  0.000  0.000  0.991  0.991
  5  0.000  0.000  0.000  0.000
  6  0.000  0.000  0.000  0.000
  7  0.000  0.000  0.000  0.000
  8  0.000  0.000  0.000  0.000
tot  0.000  0.000  0.991  0.991
 
band  12 # energy  -11.62166131 # occ.  2.00000000
 
ion      s      p      d    tot
  1  0.008  0.000  0.000  0.008
  2  0.007  0.000  0.000  0.008
  3  0.021  0.001  0.001  0.022
  4  0.085  0.001  0.000  0.086
  5  0.133  0.001  0.000  0.134
  6  0.129  0.001  0.000  0.130
  7  0.128  0.001  0.000  0.129
  8  0.133  0.001  0.000  0.134
tot  0.644  0.005  0.001  0.651
 
band  13 # energy  -10.15397947 # occ.  2.00000000
 
ion      s      p      d    tot
  1  0.000  0.003  0.004  0.007
  2  0.001  0.002  0.004  0.007
  3  0.001  0.008  0.014  0.024
  4  0.006  0.021  0.010  0.036
  5  0.063  0.000  0.000  0.063
  6  0.238  0.000  0.000  0.238
  7  0.265  0.000  0.000  0.266
  8  0.073  0.000  0.000  0.074
tot  0.647  0.035  0.032  0.714
 
band  14 # energy  -10.11029756 # occ.  2.00000000
 
ion      s      p      d    tot
  1  0.001  0.003  0.004  0.007
  2  0.000  0.003  0.004  0.007
  3  0.002  0.008  0.015  0.024
  4  0.001  0.021  0.010  0.032
  5  0.190  0.000  0.000  0.190
  6  0.173  0.000  0.000  0.173
  7  0.192  0.000  0.000  0.192
  8  0.091  0.000  0.000  0.091
tot  0.648  0.035  0.033  0.716
 
band  15 # energy  -10.09577057 # occ.  2.00000000
 
ion      s      p      d    tot
  1  0.000  0.003  0.004  0.007
  2  0.001  0.003  0.004  0.007
  3  0.000  0.008  0.015  0.024
  4  0.000  0.022  0.010  0.032
  5  0.228  0.000  0.000  0.229
  6  0.073  0.000  0.000  0.073
  7  0.027  0.000  0.000  0.027
  8  0.316  0.000  0.000  0.317
tot  0.646  0.036  0.034  0.717
 
band  16 # energy   -4.76583208 # occ.  2.00000000
 
ion      s      p      d    tot
  1  0.003  0.000  0.002  0.004
  2  0.001  0.000  0.003  0.003
  3  0.010  0.001  0.564  0.575
  4  0.154  0.001  0.000  0.155
  5  0.004  0.023  0.000  0.027
  6  0.004  0.023  0.000  0.027
  7  0.003  0.026  0.000  0.029
  8  0.005  0.018  0.000  0.022
tot  0.182  0.092  0.569  0.843
 
band  17 # energy   -4.62060788 # occ.  2.00000000
 
ion      s      p      d    tot
  1  0.000  0.000  0.001  0.001
  2  0.000  0.000  0.001  0.001
  3  0.000  0.000  0.916  0.916
  4  0.001  0.002  0.001  0.004
  5  0.000  0.002  0.000  0.002
  6  0.003  0.008  0.000  0.011
  7  0.000  0.001  0.000  0.001
  8  0.004  0.012  0.000  0.016
tot  0.009  0.026  0.918  0.953
 
band  18 # energy   -4.60805780 # occ.  2.00000000
 
ion      s      p      d    tot
  1  0.000  0.000  0.001  0.002
  2  0.000  0.000  0.001  0.001
  3  0.000  0.000  0.916  0.917
  4  0.002  0.002  0.000  0.005
  5  0.005  0.011  0.000  0.015
  6  0.001  0.006  0.000  0.007
  7  0.000  0.001  0.000  0.001
  8  0.001  0.005  0.000  0.006
tot  0.010  0.025  0.919  0.954
 
band  19 # energy   -4.58676544 # occ.  2.00000000
 
ion      s      p      d    tot
  1  0.001  0.000  0.001  0.002
  2  0.000  0.000  0.001  0.001
  3  0.000  0.000  0.909  0.909
  4  0.006  0.001  0.000  0.007
  5  0.000  0.004  0.000  0.004
  6  0.002  0.003  0.000  0.005
  7  0.004  0.010  0.000  0.015
  8  0.001  0.004  0.000  0.004
tot  0.014  0.023  0.911  0.948
 
band  20 # energy   -4.58099570 # occ.  2.00000000
 
ion      s      p      d    tot
  1  0.000  0.000  0.001  0.001
  2  0.000  0.000  0.000  0.001
  3  0.000  0.000  0.934  0.934
  4  0.000  0.001  0.000  0.002
  5  0.000  0.004  0.000  0.004
  6  0.001  0.003  0.000  0.004
  7  0.000  0.003  0.000  0.003
  8  0.000  0.003  0.000  0.003
tot  0.002  0.015  0.935  0.952
 
band  21 # energy   -4.15143312 # occ.  2.00000000
 
ion      s      p      d    tot
  1  0.003  0.000  0.002  0.005
  2  0.004  0.000  0.005  0.009
  3  0.017  0.001  0.400  0.418
  4  0.238  0.001  0.000  0.239
  5  0.008  0.027  0.000  0.035
  6  0.007  0.025  0.000  0.032
  7  0.011  0.028  0.000  0.039
  8  0.007  0.030  0.000  0.037
tot  0.295  0.112  0.407  0.813
 
band  22 # energy   -1.92920851 # occ.  2.00000000
 
ion      s      p      d    tot
  1  0.011  0.000  0.020  0.031
  2  0.023  0.001  0.008  0.031
  3  0.148  0.001  0.004  0.153
  4  0.007  0.015  0.003  0.025
  5  0.003  0.079  0.000  0.082
  6  0.003  0.078  0.000  0.080
  7  0.001  0.073  0.000  0.073
  8  0.002  0.075  0.000  0.077
tot  0.197  0.322  0.034  0.553
 
band  23 # energy   -1.37153149 # occ.  2.00000000
 
ion      s      p      d    tot
  1  0.035  0.001  0.024  0.060
  2  0.027  0.004  0.011  0.042
  3  0.004  0.007  0.024  0.035
  4  0.001  0.050  0.004  0.056
  5  0.001  0.073  0.000  0.074
  6  0.000  0.074  0.000  0.074
  7  0.001  0.100  0.000  0.101
  8  0.001  0.080  0.000  0.080
tot  0.069  0.389  0.063  0.521
 
band  24 # energy   -1.17822293 # occ.  2.00000000
 
ion      s      p      d    tot
  1  0.016  0.003  0.039  0.057
  2  0.009  0.006  0.035  0.051
  3  0.004  0.007  0.032  0.042
  4  0.001  0.075  0.004  0.079
  5  0.001  0.101  0.000  0.102
  6  0.000  0.081  0.000  0.081
  7  0.000  0.044  0.000  0.044
  8  0.002  0.098  0.000  0.100
tot  0.032  0.414  0.110  0.556
 
band  25 # energy   -0.84250877 # occ.  2.00000000
 
ion      s      p      d    tot
  1  0.004  0.008  0.049  0.061
  2  0.008  0.002  0.057  0.067
  3  0.003  0.020  0.008  0.031
  4  0.001  0.065  0.005  0.071
  5  0.000  0.073  0.000  0.073
  6  0.001  0.096  0.000  0.097
  7  0.002  0.111  0.000  0.112
  8  0.000  0.054  0.000  0.054
tot  0.019  0.429  0.119  0.567
 
band  26 # energy   -0.46539118 # occ.  2.00000000
 
ion      s      p      d    tot
  1  0.005  0.006  0.043  0.054
  2  0.005  0.001  0.033  0.039
  3  0.005  0.016  0.007  0.027
  4  0.000  0.120  0.007  0.127
  5  0.001  0.103  0.000  0.103
  6  0.001  0.082  0.000  0.084
  7  0.001  0.077  0.000  0.078
  8  0.001  0.094  0.000  0.095
tot  0.019  0.499  0.089  0.607
 
band  27 # energy   -0.39016505 # occ.  2.00000000
 
ion      s      p      d    tot
  1  0.001  0.007  0.109  0.116
  2  0.005  0.001  0.068  0.074
  3  0.003  0.018  0.004  0.025
  4  0.000  0.064  0.008  0.073
  5  0.000  0.065  0.000  0.065
  6  0.001  0.105  0.000  0.106
  7  0.000  0.087  0.000  0.087
  8  0.001  0.083  0.000  0.083
tot  0.010  0.429  0.189  0.628
 
band  28 # energy   -0.10650728 # occ.  2.00000000
 
ion      s      p      d    tot
  1  0.001  0.006  0.120  0.127