Name                                    
   5.43100000000000     
     0.500000    0.500000    0.000000
     0.500000    0.000000   -0.500000
     0.000000    0.500000   -0.500000
   Si
     2
Direct
  0.000000  0.000000  0.000000
  0.250000  0.250000  0.250000
 
   56   56   56
 -8.1021     -7.5211     -5.8407     -3.2404     0.73710E-02  3.5749      7.1246      10.354      13.030      15.011    
  16.250      16.783      16.712      16.183      15.359      14.398      13.394      12.395      11.435      10.544    
  9.7400      9.0320      8.4229      7.9114      7.4945      7.1701      6.9376      6.7973      6.7504      6.7973    
  6.9376      7.1701      7.4945      7.9114      8.4229      9.0320      9.7400      10.544      11.435      12.395    
  13.394      14.398      15.359      16.183      16.712      16.783      16.250      15.011      13.030      10.354    
  7.1246      3.5749     0.73710E-02 -3.2404     -5.8407     -7.5211     -7.5211     -6.3347     -4.0936     -1.0420    
  2.4983      6.1746      9.6530      12.660      15.009      16.614      17.477      17.677      17.345      16.638    
  15.721      14.727      13.713      12.720      11.780      10.917      10.144      9.4678      8.8902      8.4093    
  8.0234      7.7321      7.5364      7.4379      7.4379      7.5364      7.7321      8.0234      8.4093      8.8902    
  9.4678      10.144      10.917      11.780      12.720      13.713      14.727      15.721      16.638      17.345    
  17.677      17.477      16.614      15.009      12.660      9.6530      6.1746      2.4983     -1.0420     -4.0936    
 -6.3347     -7.5211     -5.8407     -4.0936     -1.4037      1.9319      5.5629      9.1372      12.349      14.973    
  16.882      18.043      18.507      18.384      17.822      16.984      16.020      15.014      14.008      13.037    
  12.129      11.302      10.567      9.9276      9.3844      8.9369      8.5851      8.3308      8.1766      8.1249    
  8.1766      8.3308      8.5851      8.9369      9.3844      9.9276      10.567      11.302      12.129      13.037    
  14.008      15.014      16.020      16.984      17.822      18.384      18.507      18.043      16.882      14.973    
  12.349      9.1372      5.5629      1.9319     -1.4037     -4.0936     -5.8407     -6.4463     -3.2404     -1.0420    
  1.9319      5.3519      8.8645      12.144      14.933      17.066      18.475      19.180      19.267      18.868    
  18.138      17.231      16.255      15.259      14.279      13.346      12.480      11.697      11.004      10.403    
  9.8967      9.4847      9.1702      8.9571      8.8493      8.8493      8.9571      9.1702      9.4847      9.8967    
  10.403      11.004      11.697      12.480      13.346      14.279      15.259      16.255      17.231      18.138    
  18.868      19.267      19.180      18.475      17.066      14.933      12.144      8.8645      5.3519      1.9319    
 -1.0420     -3.2404     -4.4088     -4.4088     0.73710E-02  2.4983      5.5629      8.8645      12.072      14.908    
  17.174      18.768      19.677      19.962      19.734      19.134      18.311      17.390      16.429      15.464    
  14.528      13.643      12.828      12.094      11.445      10.884      10.415      10.040      9.7665      9.5990    
  9.5426      9.5990      9.7665      10.040      10.415      10.884      11.445      12.094      12.828      13.643    
  14.528      15.464      16.429      17.390      18.311      19.134      19.734      19.962      19.677      18.768    
  17.174      14.908      12.072      8.8645      5.5629      2.4983     0.73710E-02 -1.6191     -2.1845     -1.6191    
  3.5749      6.1746      9.1372      12.144      14.908      17.210      18.917      19.984      20.443      20.382    
  19.926      19.213      18.371      17.470      16.547      15.632      14.752      13.925      13.165      12.481    
  11.876      11.355      10.924      10.589      10.360      10.243      10.243      10.360      10.589      10.924    
  11.355      11.876      12.481      13.165      13.925      14.752      15.632      16.547      17.470      18.371    
  19.213      19.926      20.382      20.443      19.984      18.917      17.210      14.908      12.144      9.1372    
  6.1746      3.5749      1.6406     0.60855     0.60855      1.6406      7.1246      9.6530      12.349      14.933    
  17.174      18.917      20.087      20.689      20.784      20.477      19.893      19.154      18.338      17.482    
  16.615      15.764      14.949      14.184      13.481      12.844      12.281      11.799      11.407      11.115    
  10.934      10.873      10.934      11.115      11.407      11.799      12.281      12.844      13.481      14.184    
  14.949      15.764      16.615      17.482      18.338      19.154      19.893      20.477      20.784      20.689    
  20.087      18.917      17.174      14.933      12.349      9.6530      7.1246      5.0541      3.6954      3.2219    
  3.6954      5.0541      10.354      12.660      14.973      17.066      18.768      19.984      20.689      20.920    
  20.760      20.316      19.700      18.992      18.227      17.433      16.637      15.858      15.112      14.410    
  13.759      13.168      12.644      12.199      11.847      11.602      11.476      11.476      11.602      11.847    
  12.199      12.644      13.168      13.759      14.410      15.112      15.858      16.637      17.433      18.227    
  18.992      19.700      20.316      20.760      20.920      20.689      19.984      18.768      17.066      14.973    
  12.660      10.354      8.3128      6.7855      5.9678      5.9678      6.7855      8.3128      13.030      15.009    
  16.882      18.475      19.677      20.443      20.784      20.760      20.459      19.980      19.398      18.745    
  18.049      17.333      16.615      15.912      15.233      14.588      13.985      13.434      12.946      12.539    
  12.231      12.038      11.972      12.038      12.231      12.539      12.946      13.434      13.985      14.588    
  15.233      15.912      16.615      17.333      18.049      18.745      19.398      19.980      20.459      20.760    
  20.784      20.443      19.677      18.475      16.882      15.009      13.030      11.155      9.6105      8.5925    
  8.2370      8.5925      9.6105      11.155      15.011      16.614      18.043      19.180      19.962      20.382    
  20.477      20.316      19.980      19.536      19.011      18.431      17.816      17.184      16.547      15.916    
  15.300      14.705      14.143      13.626      13.174      12.807      12.546      12.411      12.411      12.546    
  12.807      13.174      13.626      14.143      14.705      15.300      15.916      16.547      17.184      17.816    
  18.431      19.011      19.536      19.980      20.316      20.477      20.382      19.962      19.180      18.043    
  16.614      15.011      13.396      11.957      10.874      10.293      10.293      10.874      11.957      13.396    
  16.250      17.477      18.507      19.267      19.734      19.926      19.893      19.700      19.398      19.011    
  18.561      18.064      17.537      16.989      16.429      15.864      15.300      14.747      14.219      13.734    
  13.315      12.990      12.783      12.712      12.783      12.990      13.315      13.734      14.219      14.747    
  15.300      15.864      16.429      16.989      17.537      18.064      18.561      19.011      19.398      19.700    
  19.893      19.926      19.734      19.267      18.507      17.477      16.250      14.938      13.687      12.650    
  11.965      11.726      11.965      12.650      13.687      14.938      16.783      17.677      18.384      18.868    
  19.134      19.213      19.154      18.992      18.745      18.431      18.064      17.656      17.215      16.747    
  16.255      15.745      15.224      14.703      14.202      13.743      13.358      13.078      12.930      12.930    
  13.078      13.358      13.743      14.202      14.703      15.224      15.745      16.255      16.747      17.215    
  17.656      18.064      18.431      18.745      18.992      19.154      19.213      19.134      18.868      18.384    
  17.677      16.783      15.772      14.748      13.831      13.139      12.767      12.767      13.139      13.831    
  14.748      15.772      16.712      17.345      17.822      18.138      18.311      18.371      18.338      18.227    
  18.049      17.816      17.537      17.215      16.854      16.456      16.020      15.553      15.063      14.565    
  14.081      13.645      13.296      13.069      12.991      13.069      13.296      13.645      14.081      14.565    
  15.063      15.553      16.020      16.456      16.854      17.215      17.537      17.816      18.049      18.227    
  18.338      18.371      18.311      18.138      17.822      17.345      16.712      15.964      15.164      14.402    
  13.769      13.350      13.204      13.350      13.769      14.402      15.164      15.964      16.183      16.638    
  16.984      17.231      17.390      17.470      17.482      17.433      17.333      17.184      16.989      16.747    
  16.456      16.113      15.721      15.284      14.811      14.323      13.853      13.445      13.142      12.981    
  12.981      13.142      13.445      13.853      14.323      14.811      15.284      15.721      16.113      16.456    
  16.747      16.989      17.184      17.333      17.433      17.482      17.470      17.390      17.231      16.984    
  16.638      16.183      15.634      15.027      14.418      13.876      13.468      13.249      13.249      13.468    
  13.876      14.418      15.027      15.634      15.359      15.721      16.020      16.255      16.429      16.547    
  16.615      16.637      16.615      16.547      16.429      16.255      16.020      15.721      15.359      14.936    
  14.468      13.987      13.538      13.169      12.927      12.842      12.927      13.169      13.538      13.987    
  14.468      14.936      15.359      15.721      16.020      16.255      16.429      16.547      16.615      16.637    
  16.615      16.547      16.429      16.255      16.020      15.721      15.359      14.936      14.468      13.987    
  13.538      13.169      12.927      12.842      12.927      13.169      13.538      13.987      14.468      14.936    
  14.398      14.727      15.014      15.259      15.464      15.632      15.764      15.858      15.912      15.916    
  15.864      15.745      15.553      15.284      14.936      14.517      14.053      13.587      13.172      12.859    
  12.691      12.691      12.859      13.172      13.587      14.053      14.517      14.936      15.284      15.553    
  15.745      15.864      15.916      15.912      15.858      15.764      15.632      15.464      15.259      15.014    
  14.727      14.398      14.033      13.644      13.248      12.871      12.546      12.305      12.178      12.178    
  12.305      12.546      12.871      13.248      13.644      14.033      13.394      13.713      14.008      14.279    
  14.528      14.752      14.949      15.112      15.233      15.300      15.300      15.224      15.063      14.811    
  14.468      14.053      13.602      13.168      12.805      12.564      12.479      12.564      12.805      13.168    
  13.602      14.053      14.468      14.811      15.063      15.224      15.300      15.300      15.233      15.112    
  14.949      14.752      14.528      14.279      14.008      13.713      13.394      13.055      12.702      12.349    
  12.013      11.717      11.484      11.334      11.282      11.334      11.484      11.717      12.013      12.349    
  12.702      13.055      12.395      12.720      13.037      13.346      13.643      13.925      14.184      14.410    
  14.588      14.705      14.747      14.703      14.565      14.323      13.987      13.587      13.168      12.784    
  12.492      12.333      12.333      12.492      12.784      13.168      13.587      13.987      14.323      14.565    
  14.703      14.747      14.705      14.588      14.410      14.184      13.925      13.643      13.346      13.037    
  12.720      12.395      12.063      11.728      11.398      11.085      10.804      10.573      10.408      10.322    
  10.322      10.408      10.573      10.804      11.085      11.398      11.728      12.063      11.435      11.780    
  12.129      12.480      12.828      13.165      13.481      13.759      13.985      14.143      14.219      14.202    
  14.081      13.853      13.538      13.172      12.805      12.492      12.281      12.207      12.281      12.492    
  12.805      13.172      13.538      13.853      14.081      14.202      14.219      14.143      13.985      13.759    
  13.481      13.165      12.828      12.480      12.129      11.780      11.435      11.096      10.764      10.445    
  10.144      9.8733      9.6436      9.4680      9.3576      9.3199      9.3576      9.4680      9.6436      9.8733    
  10.144      10.445      10.764      11.096      10.544      10.917      11.302      11.697      12.094      12.481    
  12.844      13.168      13.434      13.626      13.734      13.743      13.645      13.445      13.169      12.859    
  12.564      12.333      12.207      12.207      12.333      12.564      12.859      13.169      13.445      13.645    
  13.743      13.734      13.626      13.434      13.168      12.844      12.481      12.094      11.697      11.302    
  10.917      10.544      10.187      9.8476      9.5271      9.2297      8.9617      8.7313      8.5475      8.4191    
  8.3530      8.3530      8.4191      8.5475      8.7313      8.9617      9.2297      9.5271      9.8476      10.187    
  9.7400      10.144      10.567      11.004      11.445      11.876      12.281      12.644      12.946      13.174    
  13.315      13.358      13.296      13.142      12.927      12.691      12.479      12.333      12.281      12.333    
  12.479      12.691      12.927      13.142      13.296      13.358      13.315      13.174      12.946      12.644    
  12.281      11.876      11.445      11.004      10.567      10.144      9.7400      9.3593      9.0034      8.6733    
  8.3711      8.1000      7.8653      7.6731      7.5299      7.4414      7.4114      7.4414      7.5299      7.6731    
  7.8653      8.1000      8.3711      8.6733      9.0034      9.3593      9.0320      9.4678      9.9276      10.403    
  10.884      11.355      11.799      12.199      12.539      12.807      12.990      13.078      13.069      12.981    
  12.842      12.691      12.564      12.492      12.492      12.564      12.691      12.842      12.981      13.069    
  13.078      12.990      12.807      12.539      12.199      11.799      11.355      10.884      10.403      9.9276    
  9.4678      9.0320      8.6246      8.2479      7.9026      7.5896      7.3105      7.0681      6.8662      6.7094    
  6.6019      6.5473      6.5473      6.6019      6.7094      6.8662      7.0681      7.3105      7.5896      7.9026    
  8.2479      8.6246      8.4229      8.8902      9.3844      9.8967      10.415      10.924      11.407      11.847    
  12.231      12.546      12.783      12.930      12.991      12.981      12.927      12.859      12.805      12.784    
  12.805      12.859      12.927      12.981      12.991      12.930      12.783      12.546      12.231      11.847    
  11.407      10.924      10.415      9.8967      9.3844      8.8902      8.4229      7.9881      7.5884      7.2248    
  6.8974      6.6066      6.3536      6.1407      5.9705      5.8462      5.7704      5.7449      5.7704      5.8462    
  5.9705      6.1407      6.3536      6.6066      6.8974      7.2248      7.5884      7.9881      7.9114      8.4093    
  8.9369      9.4847      10.040      10.589      11.115      11.602      12.038      12.411      12.712      12.930    
  13.069      13.142      13.169      13.172      13.168      13.168      13.172      13.169      13.142      13.069    
  12.930      12.712      12.411      12.038      11.602      11.115      10.589      10.040      9.4847      8.9369    
  8.4093      7.9114      7.4492      7.0258      6.6423      6.2983      5.9937      5.7283      5.5032      5.3197    
  5.1797      5.0852      5.0376      5.0376      5.0852      5.1797      5.3197      5.5032      5.7283      5.9937    
  6.2983      6.6423      7.0258      7.4492      7.4945      8.0234      8.5851      9.1702      9.7665      10.360    
  10.934      11.476      11.972      12.411      12.783      13.078      13.296      13.445      13.538      13.587    
  13.602      13.587      13.538      13.445      13.296      13.078      12.783      12.411      11.972      11.476    
  10.934      10.360      9.7665      9.1702      8.5851      8.0234      7.4945      7.0047      6.5571      6.1527    
  5.7910      5.4712      5.1923      4.9542      4.7573      4.6026      4.4911      4.4238      4.4013      4.4238    
  4.4911      4.6026      4.7573      4.9542      5.1923      5.4712      5.7910      6.1527      6.5571      7.0047    
  7.1701      7.7321      8.3308      8.9571      9.5990      10.243      10.873      11.476      12.038      12.546    
  12.990      13.358      13.645      13.853      13.987      14.053      14.053      13.987      13.853      13.645    
  13.358      12.990      12.546      12.038      11.476      10.873      10.243      9.5990      8.9571      8.3308    
  7.7321      7.1701      6.6511      6.1779      5.7516      5.3710      5.0349      4.7415      4.4899      4.2797    
  4.1109      3.9837      3.8987      3.8562      3.8562      3.8987      3.9837      4.1109      4.2797      4.4899    
  4.7415      5.0349      5.3710      5.7516      6.1779      6.6511      6.9376      7.5364      8.1766      8.8493    
  9.5426      10.243      10.934      11.602      12.231      12.807      13.315      13.743      14.081      14.323    
  14.468      14.517      14.468      14.323      14.081      13.743      13.315      12.807      12.231      11.602    
  10.934      10.243      9.5426      8.8493      8.1766      7.5364      6.9376      6.3861      5.8849      5.4344    
  5.0332      4.6793      4.3704      4.1047      3.8809      3.6983      3.5565      3.4553      3.3947      3.3745    
  3.3947      3.4553      3.5565      3.6983      3.8809      4.1047      4.3704      4.6793      5.0332      5.4344    
  5.8849      6.3861      6.7973      7.4379      8.1249      8.8493      9.5990      10.360      11.115      11.847    
  12.539      13.174      13.734      14.202      14.565      14.811      14.936      14.936      14.811      14.565    
  14.202      13.734      13.174      12.539      11.847      11.115      10.360      9.5990      8.8493      8.1249    
  7.4379      6.7973      6.2091      5.6759      5.1979      4.7733      4.3994      4.0733      3.7922      3.5542    
  3.3578      3.2019      3.0856      3.0085      2.9701      2.9701      3.0085      3.0856      3.2019      3.3578    
  3.5542      3.7922      4.0733      4.3994      4.7733      5.1979      5.6759      6.2091      6.7504      7.4379    
  8.1766      8.9571      9.7665      10.589      11.407      12.199      12.946      13.626      14.219      14.703    
  15.063      15.284      15.359      15.284      15.063      14.703      14.219      13.626      12.946      12.199    
  11.407      10.589      9.7665      8.9571      8.1766      7.4379      6.7504      6.1204      5.5504      5.0406    
  4.5887      4.1916      3.8456      3.5473      3.2938      3.0830      2.9129      2.7822      2.6898      2.6347    
  2.6165      2.6347      2.6898      2.7822      2.9129      3.0830      3.2938      3.5473      3.8456      4.1916    
  4.5887      5.0406      5.5504      6.1204      6.7973      7.5364      8.3308      9.1702      10.040      10.924    
  11.799      12.644      13.434      14.143      14.747      15.224      15.553      15.721      15.721      15.553    
  15.224      14.747      14.143      13.434      12.644      11.799      10.924      10.040      9.1702      8.3308    
  7.5364      6.7973      6.1204      5.5086      4.9619      4.4781      4.0537      3.6843      3.3660      3.0950    
  2.8684      2.6836      2.5384      2.4313      2.3608      2.3258      2.3258      2.3608      2.4313      2.5384    
  2.6836      2.8684      3.0950      3.3660      3.6843      4.0537      4.4781      4.9619      5.5086      6.1204    
  6.9376      7.7321      8.5851      9.4847      10.415      11.355      12.281      13.168      13.985      14.705    
  15.300      15.745      16.020      16.113      16.020      15.745      15.300      14.705      13.985      13.168    
  12.281      11.355      10.415      9.4847      8.5851      7.7321      6.9376      6.2091      5.5504      4.9619    
  4.4413      3.9849      3.5880      3.2461      2.9548      2.7103      2.5093      2.3491      2.2272      2.1418    
  2.0912      2.0744      2.0912      2.1418      2.2272      2.3491      2.5093      2.7103      2.9548      3.2461    
  3.5880      3.9849      4.4413      4.9619      5.5504      6.2091      7.1701      8.0234      8.9369      9.8967    
  10.884      11.876      12.844      13.759      14.588      15.300      15.864      16.255      16.456      16.456    
  16.255      15.864      15.300      14.588      13.759      12.844      11.876      10.884      9.8967      8.9369    
  8.0234      7.1701      6.3861      5.6759      5.0406      4.4781      3.9849      3.5560      3.1864      2.8712    
  2.6060      2.3868      2.2101      2.0729      1.9726      1.9070      1.8746      1.8746      1.9070      1.9726    
  2.0729      2.2101      2.3868      2.6060      2.8712      3.1864      3.5560      3.9849      4.4781      5.0406    
  5.6759      6.3861      7.4945      8.4093      9.3844      10.403      11.445      12.481      13.481      14.410    
  15.233      15.916      16.429      16.747      16.854      16.747      16.429      15.916      15.233      14.410    
  13.481      12.481      11.445      10.403      9.3844      8.4093      7.4945      6.6511      5.8849      5.1979    
  4.5887      4.0537      3.5880      3.1864      2.8434      2.5542      2.3140      2.1189      1.9650      1.8491    
  1.7685      1.7210      1.7054      1.7210      1.7685      1.8491      1.9650      2.1189      2.3140      2.5542    
  2.8434      3.1864      3.5880      4.0537      4.5887      5.1979      5.8849      6.6511      7.9114      8.8902    
  9.9276      11.004      12.094      13.165      14.184      15.112      15.912      16.547      16.989      17.215    
  17.215      16.989      16.547      15.912      15.112      14.184      13.165      12.094      11.004      9.9276    
  8.8902      7.9114      7.0047      6.1779      5.4344      4.7733      4.1916      3.6843      3.2461      2.8712    
  2.5542      2.2899      2.0737      1.9012      1.7685      1.6722      1.6097      1.5789      1.5789      1.6097    
  1.6722      1.7685      1.9012      2.0737      2.2899      2.5542      2.8712      3.2461      3.6843      4.1916    
  4.7733      5.4344      6.1779      7.0047      8.4229      9.4678      10.567      11.697      12.828      13.925    
  14.949      15.858      16.615      17.184      17.537      17.656      17.537      17.184      16.615      15.858    
  14.949      13.925      12.828      11.697      10.567      9.4678      8.4229      7.4492      6.5571      5.7516    
  5.0332      4.3994      3.8456      3.3660      2.9548      2.6060      2.3140      2.0737      1.8800      1.7286    
  1.6155      1.5373      1.4914      1.4763      1.4914      1.5373      1.6155      1.7286      1.8800      2.0737    
  2.3140      2.6060      2.9548      3.3660      3.8456      4.3994      5.0332      5.7516      6.5571      7.4492    
  9.0320      10.144      11.302      12.480      13.643      14.752      15.764      16.637      17.333      17.816    
  18.064      18.064      17.816      17.333      16.637      15.764      14.752      13.643      12.480      11.302    
  10.144      9.0320      7.9881      7.0258      6.1527      5.3710      4.6793      4.0733      3.5473      3.0950    
  2.7103      2.3868      2.1189      1.9012      1.7286      1.5968      1.5016      1.4400      1.4098      1.4098    
  1.4400      1.5016      1.5968      1.7286      1.9012      2.1189      2.3868      2.7103      3.0950      3.5473    
  4.0733      4.6793      5.3710      6.1527      7.0258      7.9881      9.7400      10.917      12.129      13.346    
  14.528      15.632      16.615      17.433      18.049      18.431      18.561      18.431      18.049      17.433    
  16.615      15.632      14.528      13.346      12.129      10.917      9.7400      8.6246      7.5884      6.6423    
  5.7910      5.0349      4.3704      3.7922      3.2938      2.8684      2.5093      2.2101      1.9650      1.7685    
  1.6155      1.5016      1.4231      1.3772      1.3621      1.3772      1.4231      1.5016      1.6155      1.7685    
  1.9650      2.2101      2.5093      2.8684      3.2938      3.7922      4.3704      5.0349      5.7910      6.6423    
  7.5884      8.6246      10.544      11.780      13.037      14.279      15.464      16.547      17.482      18.227    
  18.745      19.011      19.011      18.745      18.227      17.482      16.547      15.464      14.279      13.037    
  11.780      10.544      9.3593      8.2479      7.2248      6.2983      5.4712      4.7415      4.1047      3.5542    
  3.0830      2.6836      2.3491      2.0729      1.8491      1.6722      1.5373      1.4400      1.3772      1.3464    
  1.3464      1.3772      1.4400      1.5373      1.6722      1.8491      2.0729      2.3491      2.6836      3.0830    
  3.5542      4.1047      4.7415      5.4712      6.2983      7.2248      8.2479      9.3593      11.435      12.720    
  14.008      15.259      16.429      17.470      18.338      18.992      19.398      19.536      19.398      18.992    
  18.338      17.470      16.429      15.259      14.008      12.720      11.435      10.187      9.0034      7.9026    
  6.8974      5.9937      5.1923      4.4899      3.8809      3.3578      2.9129      2.5384      2.2272      1.9726    
  1.7685      1.6097      1.4914      1.4098      1.3621      1.3464      1.3621      1.4098      1.4914      1.6097    
  1.7685      1.9726      2.2272      2.5384      2.9129      3.3578      3.8809      4.4899      5.1923      5.9937    
  6.8974      7.9026      9.0034      10.187      12.395      13.713      15.014      16.255      17.390      18.371    
  19.154      19.700      19.980      19.980      19.700      19.154      18.371      17.390      16.255      15.014    
  13.713      12.395      11.096      9.8476      8.6733      7.5896      6.6066      5.7283      4.9542      4.2797    
  3.6983      3.2019      2.7822      2.4313      2.1418      1.9070      1.7210      1.5789      1.4763      1.4098    
  1.3772      1.3772      1.4098      1.4763      1.5789      1.7210      1.9070      2.1418      2.4313      2.7822    
  3.2019      3.6983      4.2797      4.9542      5.7283      6.6066      7.5896      8.6733      9.8476      11.096    
  13.394      14.727      16.020      17.231      18.311      19.213      19.893      20.316      20.459      20.316    
  19.893      19.213      18.311      17.231      16.020      14.727      13.394      12.063      10.764      9.5271    
  8.3711      7.3105      6.3536      5.5032      4.7573      4.1109      3.5565      3.0856      2.6898      2.3608    
  2.0912      1.8746      1.7054      1.5789      1.4914      1.4400      1.4231      1.4400      1.4914      1.5789    
  1.7054      1.8746      2.0912      2.3608      2.6898      3.0856      3.5565      4.1109      4.7573      5.5032    
  6.3536      7.3105      8.3711      9.5271      10.764      12.063      14.398      15.721      16.984      18.138    
  19.134      19.926      20.477      20.760      20.760      20.477      19.926      19.134      18.138      16.984    
  15.721      14.398      13.055      11.728      10.445      9.2297      8.1000      7.0681      6.1407      5.3197    
  4.6026      3.9837      3.4553      3.0085      2.6347      2.3258      2.0744      1.8746      1.7210      1.6097    
  1.5373      1.5016      1.5016      1.5373      1.6097      1.7210      1.8746      2.0744      2.3258      2.6347    
  3.0085      3.4553      3.9837      4.6026      5.3197      6.1407      7.0681      8.1000      9.2297      10.445    
  11.728      13.055      15.359      16.638      17.822      18.868      19.734      20.382      20.784      20.920    
  20.784      20.382      19.734      18.868      17.822      16.638      15.359      14.033      12.702      11.398    
  10.144      8.9617      7.8653      6.8662      5.9705      5.1797      4.4911      3.8987      3.3947      2.9701    
  2.6165      2.3258      2.0912      1.9070      1.7685      1.6722      1.6155      1.5968      1.6155      1.6722    
  1.7685      1.9070      2.0912      2.3258      2.6165      2.9701      3.3947      3.8987      4.4911      5.1797    
  5.9705      6.8662      7.8653      8.9617      10.144      11.398      12.702      14.033      16.183      17.345    
  18.384      19.267      19.962      20.443      20.689      20.689      20.443      19.962      19.267      18.384    
  17.345      16.183      14.936      13.644      12.349      11.085      9.8733      8.7313      7.6731      6.7094    
  5.8462      5.0852      4.4238      3.8562      3.3745      2.9701      2.6347      2.3608      2.1418      1.9726    
  1.8491      1.7685      1.7286      1.7286      1.7685      1.8491      1.9726      2.1418      2.3608      2.6347    