Name                                    
   5.43100000000000     
     0.500000    0.500000    0.000000
     0.500000    0.000000   -0.500000
     0.000000    0.500000   -0.500000
   Si
     2
Direct
  0.000000  0.000000  0.000000
  0.250000  0.250000  0.250000
 
   56   56   56
 -.81020689023E+01 -.75210668949E+01 -.58406568015E+01 -.32403859726E+01 0.73710138249E-02
 0.35749239286E+01 0.71246169235E+01 0.10353662798E+02 0.13029671399E+02 0.15010867495E+02
 0.16249709800E+02 0.16782850591E+02 0.16712383384E+02 0.16183059946E+02 0.15358794820E+02
 0.14397754941E+02 0.13394470099E+02 0.12394608882E+02 0.11435196409E+02 0.10544201724E+02
 0.97399648472E+01 0.90319835691E+01 0.84229305627E+01 0.79113805885E+01 0.74945194646E+01
 0.71701459975E+01 0.69375565981E+01 0.67973295289E+01 0.67504370002E+01 0.67973295289E+01
 0.69375565981E+01 0.71701459975E+01 0.74945194646E+01 0.79113805885E+01 0.84229305627E+01
 0.90319835691E+01 0.97399648472E+01 0.10544201724E+02 0.11435196409E+02 0.12394608882E+02
 0.13394470099E+02 0.14397754941E+02 0.15358794820E+02 0.16183059946E+02 0.16712383384E+02
 0.16782850591E+02 0.16249709800E+02 0.15010867495E+02 0.13029671399E+02 0.10353662798E+02
 0.71246169235E+01 0.35749239286E+01 0.73710138249E-02 -.32403859726E+01 -.58406568015E+01
 -.75210668949E+01 -.75210668949E+01 -.63346982851E+01 -.40935602029E+01 -.10420034783E+01
 0.24982500513E+01 0.61746480723E+01 0.96530299438E+01 0.12659814592E+02 0.15009449571E+02
 0.16614070886E+02 0.17477324845E+02 0.17677376579E+02 0.17344535340E+02 0.16637564251E+02
 0.15721080802E+02 0.14726811348E+02 0.13713048132E+02 0.12720045980E+02 0.11780132850E+02
 0.10916591486E+02 0.10143656030E+02 0.94678214137E+01 0.88902003842E+01 0.84092951219E+01
 0.80234128649E+01 0.77321000507E+01 0.75363552008E+01 0.74378629134E+01 0.74378629134E+01
 0.75363552008E+01 0.77321000507E+01 0.80234128649E+01 0.84092951219E+01 0.88902003842E+01
 0.94678214137E+01 0.10143656030E+02 0.10916591486E+02 0.11780132850E+02 0.12720045980E+02
 0.13713048132E+02 0.14726811348E+02 0.15721080802E+02 0.16637564251E+02 0.17344535340E+02
 0.17677376579E+02 0.17477324845E+02 0.16614070886E+02 0.15009449571E+02 0.12659814592E+02
 0.96530299438E+01 0.61746480723E+01 0.24982500513E+01 -.10420034783E+01 -.40935602029E+01
 -.63346982851E+01 -.75210668949E+01 -.58406568015E+01 -.40935602029E+01 -.14036626609E+01
 0.19319252855E+01 0.55628681036E+01 0.91372093754E+01 0.12349067149E+02 0.14973243198E+02
 0.16881768016E+02 0.18042820169E+02 0.18506559550E+02 0.18383781729E+02 0.17822304734E+02
 0.16984108371E+02 0.16020280634E+02 0.15014101441E+02 0.14008048489E+02 0.13037366598E+02
 0.12129270728E+02 0.11302332323E+02 0.10567039776E+02 0.99275788388E+01 0.93844052109E+01
 0.89368690320E+01 0.85851223821E+01 0.83308190698E+01 0.81766034056E+01 0.81248771610E+01
 0.81766034056E+01 0.83308190698E+01 0.85851223821E+01 0.89368690320E+01 0.93844052109E+01
 0.99275788388E+01 0.10567039776E+02 0.11302332323E+02 0.12129270728E+02 0.13037366598E+02
 0.14008048489E+02 0.15014101441E+02 0.16020280634E+02 0.16984108371E+02 0.17822304734E+02
 0.18383781729E+02 0.18506559550E+02 0.18042820169E+02 0.16881768016E+02 0.14973243198E+02
 0.12349067149E+02 0.91372093754E+01 0.55628681036E+01 0.19319252855E+01 -.14036626609E+01
 -.40935602029E+01 -.58406568015E+01 -.64462832525E+01 -.32403859726E+01 -.10420034783E+01
 0.19319252855E+01 0.53518689700E+01 0.88644979843E+01 0.12143958546E+02 0.14932813742E+02
 0.17065802835E+02 0.18474962447E+02 0.19179555404E+02 0.19266698035E+02 0.18868307717E+02
 0.18138170975E+02 0.17230663329E+02 0.16255170270E+02 0.15259162563E+02 0.14279378913E+02
 0.13345698242E+02 0.12480206884E+02 0.11697121537E+02 0.11003910059E+02 0.10403456971E+02
 0.98966723672E+01 0.94847305507E+01 0.91702451258E+01 0.89571100047E+01 0.88492912991E+01
 0.88492912991E+01 0.89571100047E+01 0.91702451258E+01 0.94847305507E+01 0.98966723672E+01
 0.10403456971E+02 0.11003910059E+02 0.11697121537E+02 0.12480206884E+02 0.13345698242E+02
 0.14279378913E+02 0.15259162563E+02 0.16255170270E+02 0.17230663329E+02 0.18138170975E+02
 0.18868307717E+02 0.19266698035E+02 0.19179555404E+02 0.18474962447E+02 0.17065802835E+02
 0.14932813742E+02 0.12143958546E+02 0.88644979843E+01 0.53518689700E+01 0.19319252855E+01
 -.10420034783E+01 -.32403859726E+01 -.44088014410E+01 -.44088014410E+01 0.73710138249E-02
 0.24982500513E+01 0.55628681036E+01 0.88644979843E+01 0.12072498800E+02 0.14907900326E+02
 0.17173950234E+02 0.18768121479E+02 0.19677386412E+02 0.19962021888E+02 0.19733902853E+02
 0.19133860866E+02 0.18310701117E+02 0.17389991909E+02 0.16428839793E+02 0.15464268385E+02
 0.14527511023E+02 0.13643070701E+02 0.12828228258E+02 0.12093554712E+02 0.11444559445E+02
 0.10884090790E+02 0.10414733453E+02 0.10040386464E+02 0.97665037561E+01 0.95990290488E+01
 0.95426162830E+01 0.95990290488E+01 0.97665037561E+01 0.10040386464E+02 0.10414733453E+02
 0.10884090790E+02 0.11444559445E+02 0.12093554712E+02 0.12828228258E+02 0.13643070701E+02
 0.14527511023E+02 0.15464268385E+02 0.16428839793E+02 0.17389991909E+02 0.18310701117E+02
 0.19133860866E+02 0.19733902853E+02 0.19962021888E+02 0.19677386412E+02 0.18768121479E+02
 0.17173950234E+02 0.14907900326E+02 0.12072498800E+02 0.88644979843E+01 0.55628681036E+01
 0.24982500513E+01 0.73710138249E-02 -.16191197651E+01 -.21844675570E+01 -.16191197651E+01
 0.35749239286E+01 0.61746480723E+01 0.91372093754E+01 0.12143958546E+02 0.14907900326E+02
 0.17209699876E+02 0.18916547859E+02 0.19983706351E+02 0.20442755000E+02 0.20382289860E+02
 0.19926192194E+02 0.19212778993E+02 0.18371276588E+02 0.17470446442E+02 0.16546914040E+02
 0.15632086884E+02 0.14751685092E+02 0.13925096453E+02 0.13165437429E+02 0.12480686843E+02
 0.11875757912E+02 0.11354894915E+02 0.10923546436E+02 0.10589003918E+02 0.10359572218E+02
 0.10242660713E+02 0.10242660713E+02 0.10359572218E+02 0.10589003918E+02 0.10923546436E+02
 0.11354894915E+02 0.11875757912E+02 0.12480686843E+02 0.13165437429E+02 0.13925096453E+02
 0.14751685092E+02 0.15632086884E+02 0.16546914040E+02 0.17470446442E+02 0.18371276588E+02
 0.19212778993E+02 0.19926192194E+02 0.20382289860E+02 0.20442755000E+02 0.19983706351E+02
 0.18916547859E+02 0.17209699876E+02 0.14907900326E+02 0.12143958546E+02 0.91372093754E+01
 0.61746480723E+01 0.35749239286E+01 0.16406406894E+01 0.60854907572E+00 0.60854907572E+00
 0.16406406894E+01 0.71246169235E+01 0.96530299438E+01 0.12349067149E+02 0.14932813742E+02
 0.17173950234E+02 0.18916547859E+02 0.20087174679E+02 0.20688610131E+02 0.20784113105E+02
 0.20477474768E+02 0.19892777355E+02 0.19154133315E+02 0.18338387687E+02 0.17481826358E+02
 0.16615062631E+02 0.15763884384E+02 0.14948678076E+02 0.14184245001E+02 0.13480518529E+02
 0.12844277315E+02 0.12281430382E+02 0.11799076788E+02 0.11406507748E+02 0.11114675701E+02
 0.10934273331E+02 0.10873171993E+02 0.10934273331E+02 0.11114675701E+02 0.11406507748E+02
 0.11799076788E+02 0.12281430382E+02 0.12844277315E+02 0.13480518529E+02 0.14184245001E+02
 0.14948678076E+02 0.15763884384E+02 0.16615062631E+02 0.17481826358E+02 0.18338387687E+02
 0.19154133315E+02 0.19892777355E+02 0.20477474768E+02 0.20784113105E+02 0.20688610131E+02
 0.20087174679E+02 0.18916547859E+02 0.17173950234E+02 0.14932813742E+02 0.12349067149E+02
 0.96530299438E+01 0.71246169235E+01 0.50540919099E+01 0.36953751095E+01 0.32219335731E+01
 0.36953751095E+01 0.50540919099E+01 0.10353662798E+02 0.12659814592E+02 0.14973243198E+02
 0.17065802835E+02 0.18768121479E+02 0.19983706351E+02 0.20688610131E+02 0.20920269698E+02
 0.20760338635E+02 0.20315744476E+02 0.19699988303E+02 0.18991713328E+02 0.18226504890E+02
 0.17433417050E+02 0.16637300853E+02 0.15858422139E+02 0.15112224715E+02 0.14409781257E+02
 0.13759196945E+02 0.13167738052E+02 0.12643997329E+02 0.12199216782E+02 0.11847096148E+02
 0.11601973013E+02 0.11475938380E+02 0.11475938380E+02 0.11601973013E+02 0.11847096148E+02
 0.12199216782E+02 0.12643997329E+02 0.13167738052E+02 0.13759196945E+02 0.14409781257E+02
 0.15112224715E+02 0.15858422139E+02 0.16637300853E+02 0.17433417050E+02 0.18226504890E+02
 0.18991713328E+02 0.19699988303E+02 0.20315744476E+02 0.20760338635E+02 0.20920269698E+02
 0.20688610131E+02 0.19983706351E+02 0.18768121479E+02 0.17065802835E+02 0.14973243198E+02
 0.12659814592E+02 0.10353662798E+02 0.83128073515E+01 0.67855009861E+01 0.59677685834E+01
 0.59677685834E+01 0.67855009861E+01 0.83128073515E+01 0.13029671399E+02 0.15009449571E+02
 0.16881768016E+02 0.18474962447E+02 0.19677386412E+02 0.20442755000E+02 0.20784113105E+02
 0.20760338635E+02 0.20459303747E+02 0.19980452469E+02 0.19397802911E+02 0.18744980598E+02
 0.18048852947E+02 0.17332505674E+02 0.16615062631E+02 0.15911522638E+02 0.15233094499E+02
 0.14588387169E+02 0.13985396637E+02 0.13433738853E+02 0.12946263198E+02 0.12539234304E+02
 0.12230724240E+02 0.12037548209E+02 0.11971704038E+02 0.12037548209E+02 0.12230724240E+02
 0.12539234304E+02 0.12946263198E+02 0.13433738853E+02 0.13985396637E+02 0.14588387169E+02
 0.15233094499E+02 0.15911522638E+02 0.16615062631E+02 0.17332505674E+02 0.18048852947E+02
 0.18744980598E+02 0.19397802911E+02 0.19980452469E+02 0.20459303747E+02 0.20760338635E+02
 0.20784113105E+02 0.20442755000E+02 0.19677386412E+02 0.18474962447E+02 0.16881768016E+02
 0.15009449571E+02 0.13029671399E+02 0.11155428673E+02 0.96105117237E+01 0.85924525516E+01
 0.82369838162E+01 0.85924525516E+01 0.96105117237E+01 0.11155428673E+02 0.15010867495E+02
 0.16614070886E+02 0.18042820169E+02 0.19179555404E+02 0.19962021888E+02 0.20382289860E+02
 0.20477474768E+02 0.20315744476E+02 0.19980452469E+02 0.19535594309E+02 0.19011105273E+02
 0.18431107411E+02 0.17816256613E+02 0.17183677249E+02 0.16546914040E+02 0.15916260186E+02
 0.15299836106E+02 0.14705483874E+02 0.14143066646E+02 0.13626364649E+02 0.13173669518E+02
 0.12806503092E+02 0.12546458457E+02 0.12411314645E+02 0.12411314645E+02 0.12546458457E+02
 0.12806503092E+02 0.13173669518E+02 0.13626364649E+02 0.14143066646E+02 0.14705483874E+02
 0.15299836106E+02 0.15916260186E+02 0.16546914040E+02 0.17183677249E+02 0.17816256613E+02
 0.18431107411E+02 0.19011105273E+02 0.19535594309E+02 0.19980452469E+02 0.20315744476E+02
 0.20477474768E+02 0.20382289860E+02 0.19962021888E+02 0.19179555404E+02 0.18042820169E+02
 0.16614070886E+02 0.15010867495E+02 0.13396100472E+02 0.11956769188E+02 0.10874454425E+02
 0.10293376390E+02 0.10293376390E+02 0.10874454425E+02 0.11956769188E+02 0.13396100472E+02
 0.16249709800E+02 0.17477324845E+02 0.18506559550E+02 0.19266698035E+02 0.19733902853E+02
 0.19926192194E+02 0.19892777355E+02 0.19699988303E+02 0.19397802911E+02 0.19011105273E+02
 0.18560757623E+02 0.18064463746E+02 0.17536684427E+02 0.16988671919E+02 0.16428839793E+02
 0.15863804764E+02 0.15300240182E+02 0.14747256949E+02 0.14218587598E+02 0.13733551209E+02
 0.13315437305E+02 0.12990289722E+02 0.12783082241E+02 0.12711826387E+02 0.12783082241E+02
 0.12990289722E+02 0.13315437305E+02 0.13733551209E+02 0.14218587598E+02 0.14747256949E+02
 0.15300240182E+02 0.15863804764E+02 0.16428839793E+02 0.16988671919E+02 0.17536684427E+02
 0.18064463746E+02 0.18560757623E+02 0.19011105273E+02 0.19397802911E+02 0.19699988303E+02
 0.19892777355E+02 0.19926192194E+02 0.19733902853E+02 0.19266698035E+02 0.18506559550E+02
 0.17477324845E+02 0.16249709800E+02 0.14937973403E+02 0.13686935512E+02 0.12650473594E+02
 0.11965294727E+02 0.11725687404E+02 0.11965294727E+02 0.12650473594E+02 0.13686935512E+02
 0.14937973403E+02 0.16782850591E+02 0.17677376579E+02 0.18383781729E+02 0.18868307717E+02
 0.19133860866E+02 0.19212778993E+02 0.19154133315E+02 0.18991713328E+02 0.18744980598E+02
 0.18431107411E+02 0.18064463746E+02 0.17656387008E+02 0.17215226004E+02 0.16746746944E+02
 0.16255170270E+02 0.15745011638E+02 0.15223549510E+02 0.14703277000E+02 0.14201985822E+02
 0.13743263190E+02 0.13357775827E+02 0.13077796792E+02 0.12930186048E+02 0.12930186048E+02
 0.13077796792E+02 0.13357775827E+02 0.13743263190E+02 0.14201985822E+02 0.14703277000E+02
 0.15223549510E+02 0.15745011638E+02 0.16255170270E+02 0.16746746944E+02 0.17215226004E+02
 0.17656387008E+02 0.18064463746E+02 0.18431107411E+02 0.18744980598E+02 0.18991713328E+02
 0.19154133315E+02 0.19212778993E+02 0.19133860866E+02 0.18868307717E+02 0.18383781729E+02
 0.17677376579E+02 0.16782850591E+02 0.15771882286E+02 0.14747650459E+02 0.13830687760E+02
 0.13139098598E+02 0.12767146904E+02 0.12767146904E+02 0.13139098598E+02 0.13830687760E+02
 0.14747650459E+02 0.15771882286E+02 0.16712383384E+02 0.17344535340E+02 0.17822304734E+02
 0.18138170975E+02 0.18310701117E+02 0.18371276588E+02 0.18338387687E+02 0.18226504890E+02
 0.18048852947E+02 0.17816256613E+02 0.17536684427E+02 0.17215226004E+02 0.16854497310E+02
 0.16455666920E+02 0.16020280634E+02 0.15552793427E+02 0.15062940879E+02 0.14564556027E+02
 0.14080611997E+02 0.13644780933E+02 0.13295699503E+02 0.13069221820E+02 0.12990682957E+02
 0.13069221820E+02 0.13295699503E+02 0.13644780933E+02 0.14080611997E+02 0.14564556027E+02
 0.15062940879E+02 0.15552793427E+02 0.16020280634E+02 0.16455666920E+02 0.16854497310E+02
 0.17215226004E+02 0.17536684427E+02 0.17816256613E+02 0.18048852947E+02 0.18226504890E+02
 0.18338387687E+02 0.18371276588E+02 0.18310701117E+02 0.18138170975E+02 0.17822304734E+02
 0.17344535340E+02 0.16712383384E+02 0.15963565872E+02 0.15164375753E+02 0.14401619732E+02
 0.13768986786E+02 0.13350385813E+02 0.13203928474E+02 0.13350385813E+02 0.13768986786E+02
 0.14401619732E+02 0.15164375753E+02 0.15963565872E+02 0.16183059946E+02 0.16637564251E+02
 0.16984108371E+02 0.17230663329E+02 0.17389991909E+02 0.17470446442E+02 0.17481826358E+02
 0.17433417050E+02 0.17332505674E+02 0.17183677249E+02 0.16988671919E+02 0.16746746944E+02
 0.16455666920E+02 0.16113483646E+02 0.15721080802E+02 0.15284153276E+02 0.14811301233E+02
 0.14322813446E+02 0.13852969479E+02 0.13444818920E+02 0.13142203019E+02 0.12980867755E+02
 0.12980867755E+02 0.13142203019E+02 0.13444818920E+02 0.13852969479E+02 0.14322813446E+02
 0.14811301233E+02 0.15284153276E+02 0.15721080802E+02 0.16113483646E+02 0.16455666920E+02
 0.16746746944E+02 0.16988671919E+02 0.17183677249E+02 0.17332505674E+02 0.17433417050E+02
 0.17481826358E+02 0.17470446442E+02 0.17389991909E+02 0.17230663329E+02 0.16984108371E+02
 0.16637564251E+02 0.16183059946E+02 0.15633908556E+02 0.15026738820E+02 0.14418074205E+02
 0.13875974108E+02 0.13468147506E+02 0.13249062597E+02 0.13249062597E+02 0.13468147506E+02
 0.13875974108E+02 0.14418074205E+02 0.15026738820E+02 0.15633908556E+02 0.15358794820E+02
 0.15721080802E+02 0.16020280634E+02 0.16255170270E+02 0.16428839793E+02 0.16546914040E+02
 0.16615062631E+02 0.16637300853E+02 0.16615062631E+02 0.16546914040E+02 0.16428839793E+02
 0.16255170270E+02 0.16020280634E+02 0.15721080802E+02 0.15358794820E+02 0.14936111795E+02
 0.14468239731E+02 0.13987189410E+02 0.13537596275E+02 0.13169091157E+02 0.12926818172E+02
 0.12842292816E+02 0.12926818172E+02 0.13169091157E+02 0.13537596275E+02 0.13987189410E+02
 0.14468239731E+02 0.14936111795E+02 0.15358794820E+02 0.15721080802E+02 0.16020280634E+02
 0.16255170270E+02 0.16428839793E+02 0.16546914040E+02 0.16615062631E+02 0.16637300853E+02
 0.16615062631E+02 0.16546914040E+02 0.16428839793E+02 0.16255170270E+02 0.16020280634E+02
 0.15721080802E+02 0.15358794820E+02 0.14936111795E+02 0.14468239731E+02 0.13987189410E+02
 0.13537596275E+02 0.13169091157E+02 0.12926818172E+02 0.12842292816E+02 0.12926818172E+02
 0.13169091157E+02 0.13537596275E+02 0.13987189410E+02 0.14468239731E+02 0.14936111795E+02
 0.14397754941E+02 0.14726811348E+02 0.15014101441E+02 0.15259162563E+02 0.15464268385E+02
 0.15632086884E+02 0.15763884384E+02 0.15858422139E+02 0.15911522638E+02 0.15916260186E+02
 0.15863804764E+02 0.15745011638E+02 0.15552793427E+02 0.15284153276E+02 0.14936111795E+02
 0.14516690969E+02 0.14052664646E+02 0.13586873175E+02 0.13171528199E+02 0.12858802622E+02
 0.12690728087E+02 0.12690728087E+02 0.12858802622E+02 0.13171528199E+02 0.13586873175E+02
 0.14052664646E+02 0.14516690969E+02 0.14936111795E+02 0.15284153276E+02 0.15552793427E+02
 0.15745011638E+02 0.15863804764E+02 0.15916260186E+02 0.15911522638E+02 0.15858422139E+02
 0.15763884384E+02 0.15632086884E+02 0.15464268385E+02 0.15259162563E+02 0.15014101441E+02
 0.14726811348E+02 0.14397754941E+02 0.14032599815E+02 0.13643633401E+02 0.13247926476E+02
 0.12871068550E+02 0.12545748900E+02 0.12305480855E+02 0.12177656819E+02 0.12177656819E+02
 0.12305480855E+02 0.12545748900E+02 0.12871068550E+02 0.13247926476E+02 0.13643633401E+02
 0.14032599815E+02 0.13394470099E+02 0.13713048132E+02 0.14008048489E+02 0.14279378913E+02
 0.14527511023E+02 0.14751685092E+02 0.14948678076E+02 0.15112224715E+02 0.15233094499E+02
 0.15299836106E+02 0.15300240182E+02 0.15223549510E+02 0.15062940879E+02 0.14811301233E+02
 0.14468239731E+02 0.14052664646E+02 0.13602138206E+02 0.13167615647E+02 0.12804793216E+02
 0.12563771977E+02 0.12479291761E+02 0.12563771977E+02 0.12804793216E+02 0.13167615647E+02
 0.13602138206E+02 0.14052664646E+02 0.14468239731E+02 0.14811301233E+02 0.15062940879E+02
 0.15223549510E+02 0.15300240182E+02 0.15299836106E+02 0.15233094499E+02 0.15112224715E+02
 0.14948678076E+02 0.14751685092E+02 0.14527511023E+02 0.14279378913E+02 0.14008048489E+02
 0.13713048132E+02 0.13394470099E+02 0.13055056495E+02 0.12702098457E+02 0.12348558341E+02
 0.12012902381E+02 0.11717182837E+02 0.11484019620E+02 0.11334208165E+02 0.11282495858E+02
 0.11334208165E+02 0.11484019620E+02 0.11717182837E+02 0.12012902381E+02 0.12348558341E+02
 0.12702098457E+02 0.13055056495E+02 0.12394608882E+02 0.12720045980E+02 0.13037366598E+02
 0.13345698242E+02 0.13643070701E+02 0.13925096453E+02 0.14184245001E+02 0.14409781257E+02
 0.14588387169E+02 0.14705483874E+02 0.14747256949E+02 0.14703277000E+02 0.14564556027E+02
 0.14322813446E+02 0.13987189410E+02 0.13586873175E+02 0.13167615647E+02 0.12784436451E+02
 0.12491817091E+02 0.12333390165E+02 0.12333390165E+02 0.12491817091E+02 0.12784436451E+02
 0.13167615647E+02 0.13586873175E+02 0.13987189410E+02 0.14322813446E+02 0.14564556027E+02
 0.14703277000E+02 0.14747256949E+02 0.14705483874E+02 0.14588387169E+02 0.14409781257E+02
 0.14184245001E+02 0.13925096453E+02 0.13643070701E+02 0.13345698242E+02 0.13037366598E+02
 0.12720045980E+02 0.12394608882E+02 0.12062551432E+02 0.11727766016E+02 0.11397899512E+02
 0.11084842267E+02 0.10804067825E+02 0.10572845216E+02 0.10407672936E+02 0.10321519096E+02
 0.10321519096E+02 0.10407672936E+02 0.10572845216E+02 0.10804067825E+02 0.11084842267E+02
 0.11397899512E+02 0.11727766016E+02 0.12062551432E+02 0.11435196409E+02 0.11780132850E+02
 0.12129270728E+02 0.12480206884E+02 0.12828228258E+02 0.13165437429E+02 0.13480518529E+02
 0.13759196945E+02 0.13985396637E+02 0.14143066646E+02 0.14218587598E+02 0.14201985822E+02
 0.14080611997E+02 0.13852969479E+02 0.13537596275E+02 0.13171528199E+02 0.12804793216E+02
 0.12491817091E+02 0.12281377636E+02 0.12207215152E+02 0.12281377636E+02 0.12491817091E+02
 0.12804793216E+02 0.13171528199E+02 0.13537596275E+02 0.13852969479E+02 0.14080611997E+02
 0.14201985822E+02 0.14218587598E+02 0.14143066646E+02 0.13985396637E+02 0.13759196945E+02
 0.13480518529E+02 0.13165437429E+02 0.12828228258E+02 0.12480206884E+02 0.12129270728E+02
 0.11780132850E+02 0.11435196409E+02 0.11095922557E+02 0.10764419991E+02 0.10444878859E+02
 0.10144449974E+02 0.98732730875E+01 0.96435726298E+01 0.94679980639E+01 0.93575972139E+01
 0.93199057024E+01 0.93575972139E+01 0.94679980639E+01 0.96435726298E+01 0.98732730875E+01
 0.10144449974E+02 0.10444878859E+02 0.10764419991E+02 0.11095922557E+02 0.10544201724E+02
 0.10916591486E+02 0.11302332323E+02 0.11697121537E+02 0.12093554712E+02 0.12480686843E+02
 0.12844277315E+02 0.13167738052E+02 0.13433738853E+02 0.13626364649E+02 0.13733551209E+02
 0.13743263190E+02 0.13644780933E+02 0.13444818920E+02 0.13169091157E+02 0.12858802622E+02
 0.12563771977E+02 0.12333390165E+02 0.12207215152E+02 0.12207215152E+02 0.12333390165E+02
 0.12563771977E+02 0.12858802622E+02 0.13169091157E+02 0.13444818920E+02 0.13644780933E+02
 0.13743263190E+02 0.13733551209E+02 0.13626364649E+02 0.13433738853E+02 0.13167738052E+02
 0.12844277315E+02 0.12480686843E+02 0.12093554712E+02 0.11697121537E+02 0.11302332323E+02
 0.10916591486E+02 0.10544201724E+02 0.10187377035E+02 0.98476099624E+01 0.95270758058E+01
 0.92297193059E+01 0.89617286993E+01 0.87312573696E+01 0.85474591649E+01 0.84190881067E+01
 0.83530154164E+01 0.83530154164E+01 0.84190881067E+01 0.85474591649E+01 0.87312573696E+01
 0.89617286993E+01 0.92297193059E+01 0.95270758058E+01 0.98476099624E+01 0.10187377035E+02
 0.97399648472E+01 0.10143656030E+02 0.10567039776E+02 0.11003910059E+02 0.11444559445E+02
 0.11875757912E+02 0.12281430382E+02 0.12643997329E+02 0.12946263198E+02 0.13173669518E+02
 0.13315437305E+02 0.13357775827E+02 0.13295699503E+02 0.13142203019E+02 0.12926818172E+02
 0.12690728087E+02 0.12479291761E+02 0.12333390165E+02 0.12281377636E+02 0.12333390165E+02
 0.12479291761E+02 0.12690728087E+02 0.12926818172E+02 0.13142203019E+02 0.13295699503E+02
 0.13357775827E+02 0.13315437305E+02 0.13173669518E+02 0.12946263198E+02 0.12643997329E+02
 0.12281430382E+02 0.11875757912E+02 0.11444559445E+02 0.11003910059E+02 0.10567039776E+02
 0.10143656030E+02 0.97399648472E+01 0.93593267253E+01 0.90033716859E+01 0.86733004452E+01
 0.83710510071E+01 0.81000420467E+01 0.78653202010E+01 0.76731059220E+01 0.75298943826E+01
 0.74413691597E+01 0.74114032238E+01 0.74413691597E+01 0.75298943826E+01 0.76731059220E+01
 0.78653202010E+01 0.81000420467E+01 0.83710510071E+01 0.86733004452E+01 0.90033716859E+01
 0.93593267253E+01 0.90319835691E+01 0.94678214137E+01 0.99275788388E+01 0.10403456971E+02
 0.10884090790E+02 0.11354894915E+02 0.11799076788E+02 0.12199216782E+02 0.12539234304E+02
 0.12806503092E+02 0.12990289722E+02 0.13077796792E+02 0.13069221820E+02 0.12980867755E+02
 0.12842292816E+02 0.12690728087E+02 0.12563771977E+02 0.12491817091E+02 0.12491817091E+02
 0.12563771977E+02 0.12690728087E+02 0.12842292816E+02 0.12980867755E+02 0.13069221820E+02
 0.13077796792E+02 0.12990289722E+02 0.12806503092E+02 0.12539234304E+02 0.12199216782E+02
 0.11799076788E+02 0.11354894915E+02 0.10884090790E+02 0.10403456971E+02 0.99275788388E+01
 0.94678214137E+01 0.90319835691E+01 0.86246126486E+01 0.82478524473E+01 0.79025919147E+01
 0.75896224236E+01 0.73105231283E+01 0.70680819000E+01 0.68661995956E+01 0.67093700183E+01
 0.66019264694E+01 0.65472717752E+01 0.65472717752E+01 0.66019264694E+01 0.67093700183E+01
 0.68661995956E+01 0.70680819000E+01 0.73105231283E+01 0.75896224236E+01 0.79025919147E+01
 0.82478524473E+01 0.86246126486E+01 0.84229305627E+01 0.88902003842E+01 0.93844052109E+01
 0.98966723672E+01 0.10414733453E+02 0.10923546436E+02 0.11406507748E+02 0.11847096148E+02
 0.12230724240E+02 0.12546458457E+02 0.12783082241E+02 0.12930186048E+02 0.12990682957E+02
 0.12980867755E+02 0.12926818172E+02 0.12858802622E+02 0.12804793216E+02 0.12784436451E+02
 0.12804793216E+02 0.12858802622E+02 0.12926818172E+02 0.12980867755E+02 0.12990682957E+02
 0.12930186048E+02 0.12783082241E+02 0.12546458457E+02 0.12230724240E+02 0.11847096148E+02
 0.11406507748E+02 0.10923546436E+02 0.10414733453E+02 0.98966723672E+01 0.93844052109E+01
 0.88902003842E+01 0.84229305627E+01 0.79880937741E+01 0.75884046442E+01 0.72247665254E+01
 0.68973616074E+01 0.66065892707E+01 0.63536488203E+01 0.61406824025E+01 0.59705260056E+01
 0.58462134939E+01 0.57704109623E+01 0.57449300735E+01 0.57704109623E+01 0.58462134939E+01
 0.59705260056E+01 0.61406824025E+01 0.63536488203E+01 0.66065892707E+01 0.68973616074E+01
 0.72247665254E+01 0.75884046442E+01 0.79880937741E+01 0.79113805885E+01 0.84092951219E+01
 0.89368690320E+01 0.94847305507E+01 0.10040386464E+02 0.10589003918E+02 0.11114675701E+02
 0.11601973013E+02 0.12037548209E+02 0.12411314645E+02 0.12711826387E+02 0.12930186048E+02
 0.13069221820E+02 0.13142203019E+02 0.13169091157E+02 0.13171528199E+02 0.13167615647E+02
 0.13167615647E+02 0.13171528199E+02 0.13169091157E+02 0.13142203019E+02 0.13069221820E+02
 0.12930186048E+02 0.12711826387E+02 0.12411314645E+02 0.12037548209E+02 0.11601973013E+02
 0.11114675701E+02 0.10589003918E+02 0.10040386464E+02 0.94847305507E+01 0.89368690320E+01
 0.84092951219E+01 0.79113805885E+01 0.74491819775E+01 0.70258152704E+01 0.66422558496E+01
 0.62983335861E+01 0.59936683674E+01 0.57283375319E+01 0.55031688114E+01 0.53196745803E+01
 0.51797403463E+01 0.50852194586E+01 0.50375637839E+01 0.50375637839E+01 0.50852194586E+01
 0.51797403463E+01 0.53196745803E+01 0.55031688114E+01 0.57283375319E+01 0.59936683674E+01
 0.62983335861E+01 0.66422558496E+01 0.70258152704E+01 0.74491819775E+01 0.74945194646E+01
 0.80234128649E+01 0.85851223821E+01 0.91702451258E+01 0.97665037561E+01 0.10359572218E+02
 0.10934273331E+02 0.11475938380E+02 0.11971704038E+02 0.12411314645E+02 0.12783082241E+02
 0.13077796792E+02 0.13295699503E+02 0.13444818920E+02 0.13537596275E+02 0.13586873175E+02
 0.13602138206E+02 0.13586873175E+02 0.13537596275E+02 0.13444818920E+02 0.13295699503E+02
 0.13077796792E+02 0.12783082241E+02 0.12411314645E+02 0.11971704038E+02 0.11475938380E+02
 0.10934273331E+02 0.10359572218E+02 0.97665037561E+01 0.91702451258E+01 0.85851223821E+01
 0.80234128649E+01 0.74945194646E+01 0.70046557147E+01 0.65570669211E+01 0.61526884589E+01
 0.57910458816E+01 0.54711616111E+01 0.51922610244E+01 0.49541565260E+01 0.47573010307E+01
 0.46026000354E+01 0.44911183913E+01 0.44238034658E+01 0.44012911461E+01 0.44238034658E+01
 0.44911183913E+01 0.46026000354E+01 0.47573010307E+01 0.49541565260E+01 0.51922610244E+01
 0.54711616111E+01 0.57910458816E+01 0.61526884589E+01 0.65570669211E+01 0.70046557147E+01
 0.71701459975E+01 0.77321000507E+01 0.83308190698E+01 0.89571100047E+01 0.95990290488E+01
 0.10242660713E+02 0.10873171993E+02 0.11475938380E+02 0.12037548209E+02 0.12546458457E+02
 0.12990289722E+02 0.13357775827E+02 0.13644780933E+02 0.13852969479E+02 0.13987189410E+02
 0.14052664646E+02 0.14052664646E+02 0.13987189410E+02 0.13852969479E+02 0.13644780933E+02
 0.13357775827E+02 0.12990289722E+02 0.12546458457E+02 0.12037548209E+02 0.11475938380E+02
 0.10873171993E+02 0.10242660713E+02 0.95990290488E+01 0.89571100047E+01 0.83308190698E+01
 0.77321000507E+01 0.71701459975E+01 0.66510500539E+01 0.61779429421E+01 0.57515555881E+01
 0.53710450024E+01 0.50348701720E+01 0.47415169953E+01 0.44899414747E+01 0.42797032497E+01
 0.41108589646E+01 0.39837402485E+01 0.38987369643E+01 0.38561551035E+01 0.38561551035E+01
 0.38987369643E+01 0.39837402485E+01 0.41108589646E+01 0.42797032497E+01 0.44899414747E+01
 0.47415169953E+01 0.50348701720E+01 0.53710450024E+01 0.57515555881E+01 0.61779429421E+01
 0.66510500539E+01 0.69375565981E+01 0.75363552008E+01 0.81766034056E+01 0.88492912991E+01
 0.95426162830E+01 0.10242660713E+02 0.10934273331E+02 0.11601973013E+02 0.12230724240E+02
 0.12806503092E+02 0.13315437305E+02 0.13743263190E+02 0.14080611997E+02 0.14322813446E+02
 0.14468239731E+02 0.14516690969E+02 0.14468239731E+02 0.14322813446E+02 0.14080611997E+02
 0.13743263190E+02 0.13315437305E+02 0.12806503092E+02 0.12230724240E+02 0.11601973013E+02
 0.10934273331E+02 0.10242660713E+02 0.95426162830E+01 0.88492912991E+01 0.81766034056E+01
 0.75363552008E+01 0.69375565981E+01 0.63861057958E+01 0.58849034280E+01 0.54343665248E+01
 0.50332096837E+01 0.46793024231E+01 0.43704112554E+01 0.41046908007E+01 0.38808802659E+01
 0.36982566015E+01 0.35564581370E+01 0.34553004652E+01 0.33946633687E+01 0.33744618916E+01
 0.33946633687E+01 0.34553004652E+01 0.35564581370E+01 0.36982566015E+01 0.38808802659E+01
 0.41046908007E+01 0.43704112554E+01 0.46793024231E+01 0.50332096837E+01 0.54343665248E+01
 0.58849034280E+01 0.63861057958E+01 0.67973295289E+01 0.74378629134E+01 0.81248771610E+01
 0.88492912991E+01 0.95990290488E+01 0.10359572218E+02 0.11114675701E+02 0.11847096148E+02
 0.12539234304E+02 0.13173669518E+02 0.13733551209E+02 0.14201985822E+02 0.14564556027E+02
 0.14811301233E+02 0.14936111795E+02 0.14936111795E+02 0.14811301233E+02 0.14564556027E+02
 0.14201985822E+02 0.13733551209E+02 0.13173669518E+02 0.12539234304E+02 0.11847096148E+02
 0.11114675701E+02 0.10359572218E+02 0.95990290488E+01 0.88492912991E+01 0.81248771610E+01
 0.74378629134E+01 0.67973295289E+01 0.62091125872E+01 0.56759358027E+01 0.51979137035E+01
 0.47733149315E+01 0.43994162475E+01 0.40732674621E+01 0.37922305707E+01 0.35542369111E+01
 0.33577960998E+01 0.32018574103E+01 0.30856440661E+01 0.30085499315E+01 0.29701261675E+01
 0.29701261675E+01 0.30085499315E+01 0.30856440661E+01 0.32018574103E+01 0.33577960998E+01
 0.35542369111E+01 0.37922305707E+01 0.40732674621E+01 0.43994162475E+01 0.47733149315E+01
 0.51979137035E+01 0.56759358027E+01 0.62091125872E+01 0.67504370002E+01 0.74378629134E+01
 0.81766034056E+01 0.89571100047E+01 0.97665037561E+01 0.10589003918E+02 0.11406507748E+02
 0.12199216782E+02 0.12946263198E+02 0.13626364649E+02 0.14218587598E+02 0.14703277000E+02
 0.15062940879E+02 0.15284153276E+02 0.15358794820E+02 0.15284153276E+02 0.15062940879E+02
 0.14703277000E+02 0.14218587598E+02 0.13626364649E+02 0.12946263198E+02 0.12199216782E+02
 0.11406507748E+02 0.10589003918E+02 0.97665037561E+01 0.89571100047E+01 0.81766034056E+01
 0.74378629134E+01 0.67504370002E+01 0.61203823865E+01 0.55504445601E+01 0.50405753591E+01
 0.45886976326E+01 0.41915665756E+01 0.38455614891E+01 0.35472741748E+01 0.32938292606E+01
 0.30829541582E+01 0.29128837869E+01 0.27822141803E+01 0.26898013107E+01 0.26347487291E+01
 0.26164670172E+01 0.26347487291E+01 0.26898013107E+01 0.27822141803E+01 0.29128837869E+01
 0.30829541582E+01 0.32938292606E+01 0.35472741748E+01 0.38455614891E+01 0.41915665756E+01
 0.45886976326E+01 0.50405753591E+01 0.55504445601E+01 0.61203823865E+01 0.67973295289E+01
 0.75363552008E+01 0.83308190698E+01 0.91702451258E+01 0.10040386464E+02 0.10923546436E+02