       N       E                     dE             d eps       ncg     rms          ort
DAV:   1     0.201984066761E+03    0.20198E+03   -0.19626E+04   128   0.128E+03
DAV:   2     0.670088563364E+01   -0.19528E+03   -0.18909E+03   128   0.374E+02
DAV:   3    -0.159146009517E+01   -0.82923E+01   -0.77196E+01   128   0.552E+01
DAV:   4    -0.166452682446E+01   -0.73067E-01   -0.73069E-01   128   0.649E+00
DAV:   5    -0.166495284374E+01   -0.42602E-03   -0.42614E-03   128   0.555E-01
SDA:   6    -0.125083544227E+02   -0.10843E+02   -0.42614E-03   128   0.334E-01 0.000E+00
CGA:   7    -0.125296030872E+02   -0.21249E-01   -0.20568E-01   128   0.121E-01 0.188E-02
CGA:   8    -0.125355833403E+02   -0.59803E-02   -0.58820E-02   128   0.281E-02 0.410E-03
CGA:   9    -0.125369213602E+02   -0.13380E-02   -0.13343E-02   128   0.360E-03 0.165E-04
CGA:  10    -0.125370681323E+02   -0.14677E-03   -0.14742E-03   128   0.587E-04-0.412E-05
CGA:  11    -0.125370920148E+02   -0.23883E-04   -0.23870E-04   128   0.120E-04 0.628E-07
CGA:  12    -0.125370972542E+02   -0.52394E-05   -0.52901E-05   128   0.258E-05-0.268E-06
CGA:  13    -0.125370984965E+02   -0.12423E-05   -0.13273E-05   128   0.634E-06-0.327E-06
CGA:  14    -0.125370987079E+02   -0.21147E-06   -0.20917E-06   128   0.695E-07 0.267E-07
   1 F= -.12537099E+02 E0= -.12537099E+02  d E =-.643921E-60
