PROCAR new format
# of k-points:   16         # of bands:   8         # of ions:   2

 k-point    1 :    0.00000000 0.00000000 0.00000000     weight = 0.00462963

band   1 # energy   -7.81465774 # occ.  2.00000000
 
ion      s      p      d    tot
  1  0.220  0.000  0.000  0.220
  2  0.220  0.000  0.000  0.220
tot  0.439  0.000  0.000  0.439
 
band   2 # energy    5.47271700 # occ.  2.00000000
 
ion      s      p      d    tot
  1  0.000  0.217  0.000  0.217
  2  0.000  0.217  0.000  0.217
tot  0.000  0.435  0.000  0.435
 
band   3 # energy    5.47271716 # occ.  2.00000000
 
ion      s      p      d    tot
  1  0.000  0.217  0.000  0.217
  2  0.000  0.217  0.000  0.217
tot  0.000  0.435  0.000  0.435
 
band   4 # energy    5.47271700 # occ.  2.00000000
 
ion      s      p      d    tot
  1  0.000  0.217  0.000  0.217
  2  0.000  0.217  0.000  0.217
tot  0.000  0.435  0.000  0.435
 
band   5 # energy    8.80086812 # occ.  0.00000000
 
ion      s      p      d    tot
  1  0.000  0.151  0.000  0.151
  2  0.000  0.151  0.000  0.151
tot  0.000  0.301  0.000  0.301
 
band   6 # energy    8.80086813 # occ.  0.00000000
 
ion      s      p      d    tot
  1  0.000  0.151  0.000  0.151
  2  0.000  0.151  0.000  0.151
tot  0.000  0.301  0.000  0.301
 
band   7 # energy    8.80086815 # occ.  0.00000000
 
ion      s      p      d    tot
  1  0.000  0.151  0.000  0.151
  2  0.000  0.151  0.000  0.151
tot  0.000  0.301  0.000  0.301
 
band   8 # energy    9.79753558 # occ.  0.00000000
 
ion      s      p      d    tot
  1  0.365  0.000  0.000  0.365
  2  0.365  0.000  0.000  0.365
tot  0.730  0.000  0.000  0.730
 

 k-point    2 :    0.16666667 0.00000000 0.00000000     weight = 0.03703704

band   1 # energy   -7.41422643 # occ.  2.00000000
 
ion      s      p      d    tot
  1  0.218  0.004  0.000  0.222
  2  0.218  0.004  0.000  0.222
tot  0.436  0.008  0.000  0.443
 
band   2 # energy    2.91608216 # occ.  2.00000000
 
ion      s      p      d    tot
  1  0.073  0.148  0.000  0.221
  2  0.073  0.148  0.000  0.221
tot  0.146  0.296  0.000  0.442
 
band   3 # energy    4.99946763 # occ.  2.00000000
 
ion      s      p      d    tot
  1  0.000  0.215  0.000  0.215
  2  0.000  0.215  0.000  0.215
tot  0.000  0.430  0.000  0.430
 
band   4 # energy    4.99946754 # occ.  2.00000000
 
ion      s      p      d    tot
  1  0.000  0.215  0.000  0.215
  2  0.000  0.215  0.000  0.215
tot  0.000  0.430  0.000  0.430
 
band   5 # energy    8.58650551 # occ.  0.00000000
 
ion      s      p      d    tot
  1  0.122  0.074  0.000  0.196
  2  0.122  0.074  0.000  0.196
tot  0.244  0.148  0.000  0.393
 
band   6 # energy    9.48826197 # occ.  0.00000000
 
ion      s      p      d    tot
  1  0.000  0.152  0.000  0.152
  2  0.000  0.152  0.000  0.152
tot  0.000  0.304  0.000  0.304
 
band   7 # energy    9.48826223 # occ.  0.00000000
 
ion      s      p      d    tot
  1  0.000  0.152  0.000  0.152
  2  0.000  0.152  0.000  0.152
tot  0.000  0.304  0.000  0.304
 
band   8 # energy   11.93035673 # occ.  0.00000000
 
ion      s      p      d    tot
  1  0.185  0.110  0.000  0.296
  2  0.185  0.110  0.000  0.296
tot  0.371  0.221  0.000  0.591
 

 k-point    3 :    0.33333333 0.00000000 0.00000000     weight = 0.03703704

band   1 # energy   -6.28581103 # occ.  2.00000000
 
ion      s      p      d    tot
  1  0.216  0.013  0.000  0.229
  2  0.216  0.013  0.000  0.229
tot  0.433  0.026  0.000  0.459
 
band   2 # energy   -0.39770152 # occ.  2.00000000
 
ion      s      p      d    tot
  1  0.105  0.107  0.000  0.212
  2  0.105  0.107  0.000  0.212
tot  0.211  0.213  0.000  0.424
 
band   3 # energy    4.38809448 # occ.  2.00000000
 
ion      s      p      d    tot
  1  0.000  0.218  0.000  0.218
  2  0.000  0.218  0.000  0.218
tot  0.000  0.435  0.000  0.435
 
band   4 # energy    4.38809440 # occ.  2.00000000
 
ion      s      p      d    tot
  1  0.000  0.218  0.000  0.218
  2  0.000  0.218  0.000  0.218
tot  0.000  0.435  0.000  0.435
 
band   5 # energy    7.95913924 # occ.  0.00000000
 
ion      s      p      d    tot
  1  0.174  0.030  0.000  0.205
  2  0.174  0.030  0.000  0.205
tot  0.348  0.061  0.000  0.409
 
band   6 # energy    9.79909098 # occ.  0.00000000
 
ion      s      p      d    tot
  1  0.000  0.112  0.000  0.112
  2  0.000  0.112  0.000  0.112
tot  0.000  0.223  0.000  0.223
 
band   7 # energy    9.79909094 # occ.  0.00000000
 
ion      s      p      d    tot
  1  0.000  0.112  0.000  0.112
  2  0.000  0.112  0.000  0.112
tot  0.000  0.223  0.000  0.223
 
band   8 # energy   14.33547585 # occ.  0.00000000
 
ion      s      p      d    tot
  1  0.011  0.105  0.000  0.116
  2  0.011  0.104  0.000  0.115
tot  0.022  0.210  0.000  0.231
 

 k-point    4 :    0.50000000 0.00000000 0.00000000     weight = 0.01851852

band   1 # energy   -5.22194948 # occ.  2.00000000
 
ion      s      p      d    tot
  1  0.230  0.014  0.000  0.245
  2  0.230  0.014  0.000  0.245
tot  0.461  0.029  0.000  0.489
 
band   2 # energy   -2.23845270 # occ.  2.00000000
 
ion      s      p      d    tot
  1  0.100  0.096  0.000  0.196
  2  0.100  0.096  0.000  0.196
tot  0.199  0.192  0.000  0.392
 
band   3 # energy    4.16190259 # occ.  2.00000000
 
ion      s      p      d    tot
  1  0.000  0.220  0.000  0.220
  2  0.000  0.220  0.000  0.220
tot  0.000  0.440  0.000  0.440
 
band   4 # energy    4.16190262 # occ.  2.00000000
 
ion      s      p      d    tot
  1  0.000  0.220  0.000  0.220
  2  0.000  0.220  0.000  0.220
tot  0.000  0.440  0.000  0.440
 
band   5 # energy    7.71931675 # occ.  0.00000000
 
ion      s      p      d    tot
  1  0.189  0.018  0.000  0.206
  2  0.189  0.018  0.000  0.206
tot  0.377  0.035  0.000  0.413
 
band   6 # energy    9.61329826 # occ.  0.00000000
 
ion      s      p      d    tot
  1  0.000  0.092  0.000  0.092
  2  0.000  0.092  0.000  0.092
tot  0.000  0.183  0.000  0.183
 
band   7 # energy    9.61329828 # occ.  0.00000000
 
ion      s      p      d    tot
  1  0.000  0.092  0.000  0.092
  2  0.000  0.092  0.000  0.092
tot  0.000  0.183  0.000  0.183
 
band   8 # energy   14.09503449 # occ.  0.00000000
 
ion      s      p      d    tot
  1  0.007  0.046  0.000  0.053
  2  0.007  0.046  0.000  0.053
tot  0.014  0.092  0.000  0.106
 

 k-point    5 :    0.16666667 0.16666667 0.00000000     weight = 0.02777778

band   1 # energy   -7.27785101 # occ.  2.00000000
 
ion      s      p      d    tot
  1  0.217  0.005  0.000  0.222
  2  0.217  0.005  0.000  0.222
tot  0.434  0.011  0.000  0.445
 
band   2 # energy    3.29676263 # occ.  2.00000000
 
ion      s      p      d    tot
  1  0.116  0.135  0.000  0.251
  2  0.116  0.135  0.000  0.251
tot  0.232  0.270  0.000  0.503
 
band   3 # energy    4.20087434 # occ.  2.00000000
 
ion      s      p      d    tot
  1  0.000  0.204  0.000  0.204
  2  0.000  0.204  0.000  0.204
tot  0.000  0.407  0.000  0.407
 
band   4 # energy    4.20087508 # occ.  2.00000000
 
ion      s      p      d    tot
  1  0.000  0.204  0.000  0.204
  2  0.000  0.204  0.000  0.204
tot  0.000  0.407  0.000  0.407
 
band   5 # energy    7.84886922 # occ.  0.00000000
 
ion      s      p      d    tot
  1  0.031  0.101  0.000  0.131
  2  0.031  0.101  0.000  0.131
tot  0.061  0.201  0.000  0.262
 
band   6 # energy   10.66208366 # occ.  0.00000000
 
ion      s      p      d    tot
  1  0.114  0.058  0.000  0.172
  2  0.114  0.058  0.000  0.172
tot  0.228  0.116  0.000  0.344
 
band   7 # energy   10.69974296 # occ.  0.00000000
 
ion      s      p      d    tot
  1  0.000  0.164  0.000  0.164
  2  0.000  0.164  0.000  0.164
tot  0.000  0.328  0.000  0.328
 
band   8 # energy   10.69974433 # occ.  0.00000000
 
ion      s      p      d    tot
  1  0.000  0.164  0.000  0.164
  2  0.000  0.164  0.000  0.164
tot  0.000  0.328  0.000  0.328
 

 k-point    6 :    0.33333333 0.16666667 0.00000000     weight = 0.11111111

band   1 # energy   -6.37194911 # occ.  2.00000000
 
ion      s      p      d    tot
  1  0.214  0.014  0.000  0.228
  2  0.214  0.014  0.000  0.228
tot  0.428  0.028  0.000  0.455
 
band   2 # energy    0.60978571 # occ.  2.00000000
 
ion      s      p      d    tot
  1  0.126  0.108  0.000  0.234
  2  0.126  0.108  0.000  0.234
tot  0.252  0.215  0.000  0.467
 
band   3 # energy    3.34967999 # occ.  2.00000000
 
ion      s      p      d    tot
  1  0.031  0.175  0.000  0.206
  2  0.031  0.175  0.000  0.206
tot  0.061  0.350  0.000  0.411
 
band   4 # energy    3.58003250 # occ.  2.00000000
 
ion      s      p      d    tot
  1  0.000  0.204  0.000  0.204
  2  0.000  0.204  0.000  0.204
tot  0.000  0.407  0.000  0.407
 
band   5 # energy    8.10778936 # occ.  0.00000000
 
ion      s      p      d    tot
  1  0.043  0.084  0.000  0.127
  2  0.043  0.084  0.000  0.127
tot  0.085  0.168  0.000  0.253
 
band   6 # energy   10.41321336 # occ.  0.00000000
 
ion      s      p      d    tot
  1  0.062  0.068  0.000  0.130
  2  0.062  0.068  0.000  0.130
tot  0.124  0.137  0.000  0.261
 
band   7 # energy   10.84407763 # occ.  0.00000000
 
ion      s      p      d    tot
  1  0.037  0.104  0.000  0.140
  2  0.037  0.104  0.000  0.140
tot  0.073  0.207  0.000  0.281
 
band   8 # energy   11.48533455 # occ.  0.00000000
 
ion      s      p      d    tot
  1  0.000  0.136  0.000  0.136
  2  0.000  0.136  0.000  0.136
tot  0.000  0.273  0.000  0.273
 

 k-point    7 :    0.50000000 0.16666667 0.00000000     weight = 0.11111111

band   1 # energy   -5.04400941 # occ.  2.00000000
 
ion      s      p      d    tot
  1  0.222  0.020  0.000  0.242
  2  0.222  0.020  0.000  0.242
tot  0.444  0.040  0.000  0.484
 
band   2 # energy   -1.82946252 # occ.  2.00000000
 
ion      s      p      d    tot
  1  0.123  0.090  0.000  0.212
  2  0.123  0.090  0.000  0.212
tot  0.246  0.179  0.000  0.425
 
band   3 # energy    2.48069969 # occ.  2.00000000
 
ion      s      p      d    tot
  1  0.039  0.162  0.000  0.201
  2  0.039  0.162  0.000  0.201
tot  0.078  0.324  0.000  0.402
 
band   4 # energy    3.53705770 # occ.  2.00000000
 
ion      s      p      d    tot
  1  0.000  0.209  0.000  0.209
  2  0.000  0.209  0.000  0.209
tot  0.000  0.417  0.000  0.417
 
band   5 # energy    8.20960036 # occ.  0.00000000
 
ion      s      p      d    tot
  1  0.064  0.056  0.000  0.121
  2  0.064  0.056  0.000  0.121
tot  0.129  0.112  0.000  0.241
 
band   6 # energy   10.42571429 # occ.  0.00000000
 
ion      s      p      d    tot
  1  0.063  0.093  0.000  0.156
  2  0.063  0.093  0.000  0.156
tot  0.127  0.186  0.000  0.313
 
band   7 # energy   10.98959133 # occ.  0.00000000
 
ion      s      p      d    tot
  1  0.000  0.103  0.000  0.103
  2  0.000  0.103  0.000  0.103
tot  0.000  0.207  0.000  0.207
 
band   8 # energy   12.90680755 # occ.  0.00000000
 
ion      s      p      d    tot
  1  0.023  0.101  0.000  0.124
  2  0.023  0.101  0.000  0.124
tot  0.047  0.202  0.000  0.249
 

 k-point    8 :   -0.33333333 0.16666667 0.00000000     weight = 0.11111111

band   1 # energy   -5.47343691 # occ.  2.00000000
 
ion      s      p      d    tot
  1  0.217  0.019  0.000  0.236
  2  0.217  0.019  0.000  0.236
tot  0.434  0.038  0.000  0.472
 
band   2 # energy   -1.15589046 # occ.  2.00000000
 
ion      s      p      d    tot
  1  0.127  0.093  0.000  0.220
  2  0.127  0.093  0.000  0.220
tot  0.254  0.186  0.000  0.439
 
band   3 # energy    2.17965575 # occ.  2.00000000
 
ion      s      p      d    tot
  1  0.032  0.161  0.000  0.193
  2  0.032  0.161  0.000  0.193
tot  0.064  0.321  0.000  0.386
 
band   4 # energy    4.06301175 # occ.  2.00000000
 
ion      s      p      d    tot
  1  0.000  0.215  0.000  0.215
  2  0.000  0.215  0.000  0.215
tot  0.000  0.430  0.000  0.430
 
band   5 # energy    8.67112338 # occ.  0.00000000
 
ion      s      p      d    tot
  1  0.081  0.061  0.000  0.142
  2  0.081  0.061  0.000  0.142
tot  0.163  0.122  0.000  0.285
 
band   6 # energy   10.40695150 # occ.  0.00000000
 
ion      s      p      d    tot
  1  0.048  0.093  0.000  0.142
  2  0.048  0.093  0.000  0.142
tot  0.097  0.186  0.000  0.283
 
band   7 # energy   10.58967442 # occ.  0.00000000
 
ion      s      p      d    tot
  1  0.000  0.112  0.000  0.112
  2  0.000  0.112  0.000  0.112
tot  0.000  0.225  0.000  0.225
 
band   8 # energy   13.83346419 # occ.  0.00000000
 
ion      s      p      d    tot
  1  0.039  0.117  0.000  0.156
  2  0.039  0.117  0.000  0.156
tot  0.078  0.235  0.000  0.312
 

 k-point    9 :   -0.16666667 0.16666667 0.00000000     weight = 0.05555556

band   1 # energy   -6.76105575 # occ.  2.00000000
 
ion      s      p      d    tot
  1  0.215  0.010  0.000  0.225
  2  0.215  0.010  0.000  0.225
tot  0.431  0.020  0.000  0.451
 
band   2 # energy    1.41463580 # occ.  2.00000000
 
ion      s      p      d    tot
  1  0.120  0.117  0.000  0.238
  2  0.120  0.117  0.000  0.238
tot  0.241  0.235  0.000  0.475
 
band   3 # energy    2.89208395 # occ.  2.00000000
 
ion      s      p      d    tot
  1  0.011  0.174  0.000  0.185
  2  0.011  0.174  0.000  0.185
tot  0.022  0.348  0.000  0.370
 
band   4 # energy    4.86362310 # occ.  2.00000000
 
ion      s      p      d    tot
  1  0.000  0.222  0.000  0.222
  2  0.000  0.222  0.000  0.222
tot  0.000  0.444  0.000  0.444
 
band   5 # energy    9.34510038 # occ.  0.00000000
 
ion      s      p      d    tot
  1  0.095  0.090  0.000  0.185
  2  0.095  0.090  0.000  0.185
tot  0.189  0.181  0.000  0.370
 
band   6 # energy    9.89364447 # occ.  0.00000000
 
ion      s      p      d    tot
  1  0.000  0.149  0.000  0.149
  2  0.000  0.149  0.000  0.149
tot  0.000  0.297  0.000  0.297
 
band   7 # energy   10.08131474 # occ.  0.00000000
 
ion      s      p      d    tot
  1  0.033  0.116  0.000  0.148
  2  0.033  0.116  0.000  0.148
tot  0.065  0.231  0.000  0.296
 
band   8 # energy   12.10138478 # occ.  0.00000000
 
ion      s      p      d    tot
  1  0.075  0.089  0.000  0.164
  2  0.075  0.089  0.000  0.164
tot  0.150  0.178  0.000  0.329
 

 k-point   10 :    0.33333333 0.33333333 0.00000000     weight = 0.02777778

band   1 # energy   -5.69862821 # occ.  2.00000000
 
ion      s      p      d    tot
  1  0.209  0.021  0.000  0.230
  2  0.209  0.021  0.000  0.230
tot  0.418  0.043  0.000  0.461
 
band   2 # energy   -0.03847813 # occ.  2.00000000
 
ion      s      p      d    tot
  1  0.174  0.082  0.000  0.256
  2  0.174  0.082  0.000  0.256
tot  0.348  0.164  0.000  0.513
 
band   3 # energy    2.82974593 # occ.  2.00000000
 
ion      s      p      d    tot
  1  0.000  0.199  0.000  0.199
  2  0.000  0.199  0.000  0.199
tot  0.000  0.399  0.000  0.399
 
band   4 # energy    2.82974652 # occ.  2.00000000
 
ion      s      p      d    tot
  1  0.000  0.199  0.000  0.199
  2  0.000  0.199  0.000  0.199
tot  0.000  0.399  0.000  0.399
 
band   5 # energy    6.78527321 # occ.  0.00000000
 
ion      s      p      d    tot
  1  0.052  0.056  0.000  0.108
  2  0.052  0.056  0.000  0.108
tot  0.104  0.111  0.000  0.215
 
band   6 # energy    8.13997843 # occ.  0.00000000
 
ion      s      p      d    tot
  1  0.044  0.028  0.000  0.072
  2  0.044  0.028  0.000  0.072
tot  0.088  0.057  0.000  0.144
 
band   7 # energy   13.86189910 # occ.  0.00000000
 
ion      s      p      d    tot
  1  0.000  0.163  0.000  0.163
  2  0.000  0.163  0.000  0.163
tot  0.000  0.326  0.000  0.326
 
band   8 # energy   13.86189967 # occ.  0.00000000
 
ion      s      p      d    tot
  1  0.000  0.163  0.000  0.163
  2  0.000  0.163  0.000  0.163
tot  0.000  0.326  0.000  0.326
 

 k-point   11 :    0.50000000 0.33333333 0.00000000     weight = 0.11111111

band   1 # energy   -4.39932931 # occ.  2.00000000
 
ion      s      p      d    tot
  1  0.208  0.032  0.000  0.240
  2  0.208  0.032  0.000  0.240
tot  0.415  0.064  0.000  0.480
 
band   2 # energy   -1.78897587 # occ.  2.00000000
 
ion      s      p      d    tot
  1  0.187  0.063  0.000  0.250
  2  0.187  0.063  0.000  0.250
tot  0.374  0.126  0.000  0.500
 
band   3 # energy    1.52192301 # occ.  2.00000000
 
ion      s      p      d    tot
  1  0.005  0.168  0.000  0.173
  2  0.005  0.168  0.000  0.173
tot  0.010  0.336  0.000  0.346
 
band   4 # energy    2.67349856 # occ.  2.00000000
 
ion      s      p      d    tot
  1  0.000  0.201  0.000  0.201
  2  0.000  0.201  0.000  0.201
tot  0.000  0.402  0.000  0.402
 
band   5 # energy    7.14596021 # occ.  0.00000000
 
ion      s      p      d    tot
  1  0.051  0.042  0.000  0.093
  2  0.051  0.042  0.000  0.093
tot  0.102  0.083  0.000  0.185
 
band   6 # energy    8.90317242 # occ.  0.00000000
 
ion      s      p      d    tot
  1  0.035  0.067  0.000  0.102
  2  0.035  0.067  0.000  0.102
tot  0.069  0.134  0.000  0.203
 
band   7 # energy   14.03951026 # occ.  0.00000000
 
ion      s      p      d    tot
  1  0.000  0.121  0.000  0.121
  2  0.000  0.121  0.000  0.121
tot  0.000  0.241  0.000  0.241
 
band   8 # energy   14.07960076 # occ.  0.00000000
 
ion      s      p      d    tot
  1  0.044  0.137  0.000  0.181
  2  0.044  0.137  0.000  0.181
tot  0.088  0.275  0.000  0.362
 

 k-point   12 :   -0.33333333 0.33333333 0.00000000     weight = 0.05555556

band   1 # energy   -4.17942133 # occ.  2.00000000
 
ion      s      p      d    tot
  1  0.219  0.029  0.000  0.248
  2  0.219  0.029  0.000  0.248
tot  0.437  0.058  0.000  0.495
 
band   2 # energy   -2.01861364 # occ.  2.00000000
 
ion      s      p      d    tot
  1  0.178  0.065  0.000  0.243
  2  0.178  0.065  0.000  0.243
tot  0.356  0.130  0.000  0.486
 
band   3 # energy    0.65725053 # occ.  2.00000000
 
ion      s      p      d    tot
  1  0.004  0.155  0.000  0.159
  2  0.004  0.155  0.000  0.159
tot  0.007  0.310  0.000  0.318
 
band   4 # energy    3.16552960 # occ.  2.00000000
 
ion      s      p      d    tot
  1  0.000  0.205  0.000  0.205
  2  0.000  0.205  0.000  0.205
tot  0.000  0.411  0.000  0.411
 
band   5 # energy    7.69417005 # occ.  0.00000000
 
ion      s      p      d    tot
  1  0.054  0.044  0.000  0.098
  2  0.054  0.044  0.000  0.098
tot  0.109  0.087  0.000  0.196
 
band   6 # energy   12.16569105 # occ.  0.00000000
 
ion      s      p      d    tot
  1  0.004  0.071  0.000  0.075
  2  0.004  0.070  0.000  0.074
tot  0.009  0.141  0.000  0.149
 
band   7 # energy   13.04534396 # occ.  0.00000000
 
ion      s      p      d    tot
  1  0.000  0.150  0.000  0.150
  2  0.000  0.150  0.000  0.150
tot  0.000  0.300  0.000  0.300
 
band   8 # energy   13.66177016 # occ.  0.00000000
 
ion      s      p      d    tot
  1  0.060  0.112  0.000  0.173
  2  0.037  0.154  0.000  0.192
tot  0.098  0.266  0.000  0.364
 

 k-point   13 :    0.50000000 0.50000000 0.00000000     weight = 0.01388889

band   1 # energy   -3.19457533 # occ.  2.00000000
 
ion      s      p      d    tot
  1  0.393  0.000  0.000  0.393
  2  0.000  0.094  0.000  0.094
tot  0.393  0.094  0.000  0.487
 
band   2 # energy   -3.19457483 # occ.  2.00000000
 
ion      s      p      d    tot
  1  0.000  0.094  0.000  0.094
  2  0.393  0.000  0.000  0.393
tot  0.393  0.094  0.000  0.487
 
band   3 # energy    2.33911316 # occ.  2.00000000
 
ion      s      p      d    tot
  1  0.000  0.199  0.000  0.199
  2  0.000  0.199  0.000  0.199
tot  0.000  0.398  0.000  0.398
 
band   4 # energy    2.33911408 # occ.  2.00000000
 
ion      s      p      d    tot
  1  0.000  0.199  0.000  0.199
  2  0.000  0.199  0.000  0.199
tot  0.000  0.398  0.000  0.398
 
band   5 # energy    6.76686731 # occ.  0.00000000
 
ion      s      p      d    tot
  1  0.105  0.000  0.000  0.105
  2  0.000  0.066  0.000  0.066
tot  0.105  0.066  0.000  0.171
 
band   6 # energy    6.76686719 # occ.  0.00000000
 
ion      s      p      d    tot
  1  0.000  0.066  0.000  0.066
  2  0.105  0.000  0.000  0.105
tot  0.105  0.066  0.000  0.171
 
band   7 # energy   16.96407415 # occ.  0.00000000
 
ion      s      p      d    tot
  1  0.000  0.239  0.000  0.239
  2  0.000  0.240  0.000  0.240
tot  0.000  0.479  0.000  0.479
 
band   8 # energy   16.96553261 # occ.  0.00000000
 
ion      s      p      d    tot
  1  0.000  0.236  0.000  0.236
  2  0.000  0.242  0.000  0.242
tot  0.000  0.478  0.000  0.478
 

 k-point   14 :    0.50000000 0.33333333 0.16666667     weight = 0.11111111

band   1 # energy   -5.26884040 # occ.  2.00000000
 
ion      s      p      d    tot
  1  0.212  0.023  0.000  0.235
  2  0.212  0.023  0.000  0.235
tot  0.424  0.047  0.000  0.470
 
band   2 # energy   -0.75247408 # occ.  2.00000000
 
ion      s      p      d    tot
  1  0.170  0.079  0.000  0.249
  2  0.170  0.079  0.000  0.249
tot  0.340  0.158  0.000  0.499
 
band   3 # energy    1.59785139 # occ.  2.00000000
 
ion      s      p      d    tot
  1  0.011  0.164  0.000  0.174
  2  0.011  0.164  0.000  0.174
tot  0.022  0.327  0.000  0.349
 
band   4 # energy    2.99509255 # occ.  2.00000000
 
ion      s      p      d    tot
  1  0.004  0.188  0.000  0.193
  2  0.004  0.188  0.000  0.193
tot  0.009  0.377  0.000  0.385
 
band   5 # energy    9.05887543 # occ.  0.00000000
 
ion      s      p      d    tot
  1  0.031  0.097  0.000  0.128
  2  0.031  0.097  0.000  0.128
tot  0.061  0.194  0.000  0.255
 
band   6 # energy    9.94649827 # occ.  0.00000000
 
ion      s      p      d    tot
  1  0.015  0.056  0.000  0.071
  2  0.015  0.056  0.000  0.071
tot  0.030  0.111  0.000  0.141
 
band   7 # energy   10.60564157 # occ.  0.00000000
 
ion      s      p      d    tot
  1  0.071  0.097  0.000  0.168
  2  0.071  0.097  0.000  0.168
tot  0.141  0.195  0.000  0.336
 
band   8 # energy   13.63046143 # occ.  0.00000000
 
ion      s      p      d    tot
  1  0.005  0.144  0.000  0.149
  2  0.005  0.144  0.000  0.149
tot  0.011  0.288  0.000  0.298
 

 k-point   15 :   -0.33333333 0.33333333 0.16666667     weight = 0.11111111

band   1 # energy   -4.16842937 # occ.  2.00000000
 
ion      s      p      d    tot
  1  0.220  0.028  0.000  0.248
  2  0.220  0.028  0.000  0.248
tot  0.440  0.057  0.000  0.497
 
band   2 # energy   -2.09958006 # occ.  2.00000000
 
ion      s      p      d    tot
  1  0.168  0.069  0.000  0.237
  2  0.168  0.069  0.000  0.237
tot  0.335  0.138  0.000  0.473
 
band   3 # energy    1.10687632 # occ.  2.00000000
 
ion      s      p      d    tot
  1  0.019  0.154  0.000  0.173
  2  0.019  0.154  0.000  0.173
tot  0.038  0.309  0.000  0.346
 
band   4 # energy    2.48213702 # occ.  2.00000000
 
ion      s      p      d    tot
  1  0.001  0.183  0.000  0.184
  2  0.001  0.183  0.000  0.184
tot  0.002  0.365  0.000  0.368
 
band   5 # energy    9.55820127 # occ.  0.00000000
 
ion      s      p      d    tot
  1  0.008  0.080  0.000  0.088
  2  0.008  0.080  0.000  0.088
tot  0.016  0.160  0.000  0.176
 
band   6 # energy    9.85430381 # occ.  0.00000000
 
ion      s      p      d    tot
  1  0.063  0.083  0.000  0.146
  2  0.063  0.083  0.000  0.146
tot  0.126  0.166  0.000  0.292
 
band   7 # energy   12.52875651 # occ.  0.00000000
 
ion      s      p      d    tot
  1  0.019  0.078  0.000  0.097
  2  0.019  0.078  0.000  0.097
tot  0.038  0.155  0.000  0.193
 
band   8 # energy   13.05900695 # occ.  0.00000000
 
ion      s      p      d    tot
  1  0.035  0.117  0.000  0.152
  2  0.035  0.119  0.000  0.153
tot  0.070  0.236  0.000  0.306
 

 k-point   16 :   -0.33333333 0.50000000 0.16666667     weight = 0.05555556

band   1 # energy   -3.05990242 # occ.  2.00000000
 
ion      s      p      d    tot
  1  0.409  0.000  0.000  0.409
  2  0.000  0.090  0.000  0.090
tot  0.409  0.090  0.000  0.499
 
band   2 # energy   -3.05990203 # occ.  2.00000000
 
ion      s      p      d    tot
  1  0.000  0.090  0.000  0.090
  2  0.409  0.000  0.000  0.409
tot  0.409  0.090  0.000  0.499
 
band   3 # energy    1.50678565 # occ.  2.00000000
 
ion      s      p      d    tot
  1  0.000  0.183  0.000  0.183
  2  0.003  0.156  0.000  0.159
tot  0.003  0.339  0.000  0.342
 
band   4 # energy    1.50678641 # occ.  2.00000000
 
ion      s      p      d    tot
  1  0.003  0.156  0.000  0.159
  2  0.000  0.183  0.000  0.183
tot  0.003  0.339  0.000  0.342
 
band   5 # energy    8.93545514 # occ.  0.00000000
 
ion      s      p      d    tot
  1  0.067  0.071  0.000  0.139
  2  0.000  0.073  0.000  0.073
tot  0.067  0.144  0.000  0.212
 
band   6 # energy    8.93545471 # occ.  0.00000000
 
ion      s      p      d    tot
  1  0.000  0.073  0.000  0.073
  2  0.067  0.071  0.000  0.139
tot  0.067  0.144  0.000  0.212
 
band   7 # energy   13.29342859 # occ.  0.00000000
 
ion      s      p      d    tot
  1  0.056  0.093  0.000  0.150
  2  0.003  0.123  0.000  0.126
tot  0.059  0.216  0.000  0.275
 
band   8 # energy   13.29342916 # occ.  0.00000000
 
ion      s      p      d    tot
  1  0.003  0.123  0.000  0.126
  2  0.056  0.093  0.000  0.150
tot  0.059  0.216  0.000  0.275
 
