   2   2   1   0
  0.2002393E+02  0.3840297E-09  0.3840297E-09  0.3840297E-09  0.5000000E-15
  1.000000000000000E-004
  CAR 
 Name                                    
     16.98423524     -7.29797667  301      5.90547605      1.00000000
     -7.298  0.0000E+00  0.0000E+00
     -7.217  0.0000E+00  0.0000E+00
     -7.136  0.0000E+00  0.0000E+00
     -7.055  0.0000E+00  0.0000E+00
     -6.974  0.0000E+00  0.0000E+00
     -6.893  0.0000E+00  0.0000E+00
     -6.812  0.0000E+00  0.0000E+00
     -6.731  0.0000E+00  0.0000E+00
     -6.650  0.0000E+00  0.0000E+00
     -6.570  0.0000E+00  0.0000E+00
     -6.489  0.0000E+00  0.0000E+00
     -6.408  0.0000E+00  0.0000E+00
     -6.327  0.0000E+00  0.0000E+00
     -6.246  0.1959E-13  0.1585E-14
     -6.165  0.1211E+00  0.9804E-02
     -6.084  0.0000E+00  0.9804E-02
     -6.003  0.0000E+00  0.9804E-02
     -5.922  0.0000E+00  0.9804E-02
     -5.841  0.8784E-01  0.1691E-01
     -5.760  0.8812E+00  0.8824E-01
     -5.679  0.7267E+00  0.1471E+00
     -5.598  0.0000E+00  0.1471E+00
     -5.517  0.0000E+00  0.1471E+00
     -5.436  0.0000E+00  0.1471E+00
     -5.355  0.0000E+00  0.1471E+00
     -5.274  0.1295E-05  0.1471E+00
     -5.194  0.1453E+01  0.2647E+00
     -5.113  0.0000E+00  0.2647E+00
     -5.032  0.0000E+00  0.2647E+00
     -4.951  0.0000E+00  0.2647E+00
     -4.870  0.2898E+01  0.4993E+00
     -4.789  0.9678E+00  0.5783E+00
     -4.708  0.0000E+00  0.5784E+00
     -4.627  0.0000E+00  0.5784E+00
     -4.546  0.0000E+00  0.5784E+00
     -4.465  0.0000E+00  0.5784E+00
     -4.384  0.0000E+00  0.5784E+00
     -4.303  0.1224E-02  0.5785E+00
     -4.222  0.7255E+00  0.6373E+00
     -4.141  0.0000E+00  0.6373E+00
     -4.060  0.2872E+01  0.8697E+00
     -3.979  0.0000E+00  0.8725E+00
     -3.898  0.7270E+00  0.9314E+00
     -3.818  0.2664E+01  0.1147E+01
     -3.737  0.3097E-11  0.1147E+01
     -3.656  0.2907E+01  0.1382E+01
     -3.575  0.0000E+00  0.1382E+01
     -3.494  0.0000E+00  0.1382E+01
     -3.413  0.0000E+00  0.1382E+01
     -3.332  0.0000E+00  0.1382E+01
     -3.251  0.0000E+00  0.1382E+01
     -3.170  0.1614E-15  0.1382E+01
     -3.089  0.2905E+01  0.1617E+01
     -3.008  0.0000E+00  0.1618E+01
     -2.927  0.9766E-02  0.1618E+01
     -2.846  0.4351E+01  0.1971E+01
     -2.765  0.0000E+00  0.1971E+01
     -2.684  0.0000E+00  0.1971E+01
     -2.603  0.0000E+00  0.1971E+01
     -2.522  0.0000E+00  0.1971E+01
     -2.442  0.0000E+00  0.1971E+01
     -2.361  0.0000E+00  0.1971E+01
     -2.280  0.0000E+00  0.1971E+01
     -2.199  0.0000E+00  0.1971E+01
     -2.118  0.0000E+00  0.1971E+01
     -2.037  0.2171E+00  0.1988E+01
     -1.956  0.5096E+00  0.2029E+01
     -1.875  0.0000E+00  0.2029E+01
     -1.794  0.0000E+00  0.2029E+01
     -1.713  0.0000E+00  0.2029E+01
     -1.632  0.0000E+00  0.2029E+01
     -1.551  0.0000E+00  0.2029E+01
     -1.470  0.0000E+00  0.2029E+01
     -1.389  0.0000E+00  0.2029E+01
     -1.308  0.0000E+00  0.2029E+01
     -1.227  0.6849E-01  0.2035E+01
     -1.146  0.4160E+00  0.2069E+01
     -1.066  0.1289E+01  0.2173E+01
     -0.985  0.2527E+01  0.2377E+01
     -0.904  0.0000E+00  0.2422E+01
     -0.823  0.2903E+01  0.2657E+01
     -0.742  0.2907E+01  0.2892E+01
     -0.661  0.0000E+00  0.2892E+01
     -0.580  0.0000E+00  0.2892E+01
     -0.499  0.0000E+00  0.2892E+01
     -0.418  0.0000E+00  0.2892E+01
     -0.337  0.0000E+00  0.2892E+01
     -0.256  0.1806E-01  0.2894E+01
     -0.175  0.2889E+01  0.3127E+01
     -0.094  0.0000E+00  0.3127E+01
     -0.013  0.0000E+00  0.3127E+01
      0.068  0.0000E+00  0.3127E+01
      0.149  0.2048E+01  0.3293E+01
      0.230  0.0000E+00  0.3363E+01
      0.310  0.0000E+00  0.3363E+01
      0.391  0.3284E-07  0.3363E+01
      0.472  0.9690E+00  0.3441E+01
      0.553  0.0000E+00  0.3441E+01
      0.634  0.0000E+00  0.3441E+01
      0.715  0.0000E+00  0.3441E+01
      0.796  0.7107E+00  0.3499E+01
      0.877  0.0000E+00  0.3500E+01
      0.958  0.0000E+00  0.3500E+01
      1.039  0.0000E+00  0.3500E+01
      1.120  0.0000E+00  0.3500E+01
      1.201  0.0000E+00  0.3500E+01
      1.282  0.9447E-07  0.3500E+01
      1.363  0.4352E+01  0.3852E+01
      1.444  0.0000E+00  0.3853E+01
      1.525  0.0000E+00  0.3853E+01
      1.606  0.0000E+00  0.3853E+01
      1.686  0.5017E-10  0.3853E+01
      1.767  0.2907E+01  0.4088E+01
      1.848  0.0000E+00  0.4088E+01
      1.929  0.0000E+00  0.4088E+01
      2.010  0.9682E-15  0.4088E+01
      2.091  0.1455E+01  0.4206E+01
      2.172  0.3690E+01  0.4505E+01
      2.253  0.2122E+01  0.4676E+01
      2.334  0.0000E+00  0.4676E+01
      2.415  0.0000E+00  0.4676E+01
      2.496  0.0000E+00  0.4676E+01
      2.577  0.0000E+00  0.4676E+01
      2.658  0.4793E-13  0.4676E+01
      2.739  0.2907E+01  0.4912E+01
      2.820  0.0000E+00  0.4912E+01
      2.901  0.1352E-02  0.4912E+01
      2.981  0.1362E+01  0.5022E+01
      3.062  0.5177E+01  0.5441E+01
      3.143  0.0000E+00  0.5441E+01
      3.224  0.1963E+01  0.5600E+01
      3.305  0.1627E-07  0.5676E+01
      3.386  0.2969E+01  0.5917E+01
      3.467  0.1735E+01  0.6057E+01
      3.548  0.2079E+01  0.6225E+01
      3.629  0.3750E-07  0.6225E+01
      3.710  0.1453E+01  0.6343E+01
      3.791  0.3523E+01  0.6628E+01
      3.872  0.0000E+00  0.6637E+01
      3.953  0.7084E-13  0.6637E+01
      4.034  0.4411E+01  0.6994E+01
      4.115  0.0000E+00  0.7108E+01
      4.196  0.0000E+00  0.7108E+01
      4.277  0.0000E+00  0.7108E+01
      4.357  0.0000E+00  0.7108E+01
      4.438  0.1567E-12  0.7108E+01
      4.519  0.2907E+01  0.7343E+01
      4.600  0.2214E+01  0.7522E+01
      4.681  0.0000E+00  0.7539E+01
      4.762  0.6187E-04  0.7539E+01
      4.843  0.1938E+01  0.7696E+01
      4.924  0.0000E+00  0.7696E+01
      5.005  0.0000E+00  0.7696E+01
      5.086  0.0000E+00  0.7696E+01
      5.167  0.0000E+00  0.7696E+01
      5.248  0.1442E+01  0.7813E+01
      5.329  0.6833E-01  0.7819E+01
      5.410  0.1870E+01  0.7971E+01
      5.491  0.0000E+00  0.7971E+01
      5.572  0.0000E+00  0.7971E+01
      5.653  0.0000E+00  0.7971E+01
      5.733  0.0000E+00  0.7971E+01
      5.814  0.3607E+00  0.8000E+01
      5.895  0.0000E+00  0.8000E+01
      5.976  0.0000E+00  0.8000E+01
      6.057  0.0000E+00  0.8000E+01
      6.138  0.0000E+00  0.8000E+01
      6.219  0.0000E+00  0.8000E+01
      6.300  0.0000E+00  0.8000E+01
      6.381  0.3306E+00  0.8027E+01
      6.462  0.7267E+00  0.8118E+01
      6.543  0.0000E+00  0.8118E+01
      6.624  0.0000E+00  0.8118E+01
      6.705  0.1969E-06  0.8118E+01
      6.786  0.2907E+01  0.8353E+01
      6.867  0.0000E+00  0.8353E+01
      6.948  0.0000E+00  0.8353E+01
      7.029  0.0000E+00  0.8353E+01
      7.109  0.0000E+00  0.8353E+01
      7.190  0.0000E+00  0.8353E+01
      7.271  0.1907E+01  0.8507E+01
      7.352  0.0000E+00  0.8510E+01
      7.433  0.7180E+00  0.8568E+01
      7.514  0.9689E+00  0.8647E+01
      7.595  0.0000E+00  0.8647E+01
      7.676  0.2490E+01  0.8849E+01
      7.757  0.2812E+01  0.9169E+01
      7.838  0.0000E+00  0.9176E+01
      7.919  0.0000E+00  0.9176E+01
      8.000  0.0000E+00  0.9176E+01
      8.081  0.3110E+00  0.9202E+01
      8.162  0.1255E+01  0.9303E+01
      8.243  0.2310E+01  0.9490E+01
      8.324  0.3522E+00  0.9519E+01
      8.405  0.2263E+00  0.9538E+01
      8.485  0.2681E+01  0.9755E+01
      8.566  0.1034E+01  0.9839E+01
      8.647  0.1873E+01  0.9990E+01
      8.728  0.5809E-14  0.9990E+01
      8.809  0.1453E+01  0.1011E+02
      8.890  0.0000E+00  0.1011E+02
      8.971  0.1744E+01  0.1025E+02
      9.052  0.1433E+01  0.1038E+02
      9.133  0.1058E+01  0.1059E+02
      9.214  0.6971E-04  0.1059E+02
      9.295  0.4783E+01  0.1098E+02
      9.376  0.1363E+01  0.1110E+02
      9.457  0.2907E+01  0.1133E+02
      9.538  0.2672E-07  0.1133E+02
      9.619  0.1453E+01  0.1145E+02
      9.700  0.0000E+00  0.1145E+02
      9.781  0.7128E+00  0.1151E+02
      9.861  0.7959E+01  0.1215E+02
      9.942  0.1418E-02  0.1216E+02
     10.023  0.6333E+01  0.1267E+02
     10.104  0.6006E+00  0.1273E+02
     10.185  0.8529E+00  0.1280E+02
     10.266  0.2886E+01  0.1304E+02
     10.347  0.1903E+00  0.1305E+02
     10.428  0.2717E+01  0.1327E+02
     10.509  0.0000E+00  0.1327E+02
     10.590  0.0000E+00  0.1327E+02
     10.671  0.0000E+00  0.1327E+02
     10.752  0.0000E+00  0.1327E+02
     10.833  0.2375E+01  0.1347E+02
     10.914  0.0000E+00  0.1351E+02
     10.995  0.0000E+00  0.1351E+02
     11.076  0.0000E+00  0.1351E+02
     11.157  0.2744E-09  0.1351E+02
     11.237  0.9690E+00  0.1359E+02
     11.318  0.1210E-14  0.1359E+02
     11.399  0.1453E+01  0.1371E+02
     11.480  0.1103E-02  0.1371E+02
     11.561  0.1452E+01  0.1382E+02
     11.642  0.0000E+00  0.1382E+02
     11.723  0.0000E+00  0.1382E+02
     11.804  0.3194E+00  0.1385E+02
     11.885  0.2588E+01  0.1406E+02
     11.966  0.0000E+00  0.1406E+02
     12.047  0.0000E+00  0.1406E+02
     12.128  0.3264E+00  0.1409E+02
     12.209  0.2596E+01  0.1430E+02
     12.290  0.4345E+01  0.1465E+02
     12.371  0.0000E+00  0.1465E+02
     12.452  0.0000E+00  0.1465E+02
     12.532  0.0000E+00  0.1465E+02
     12.613  0.0000E+00  0.1465E+02
     12.694  0.0000E+00  0.1465E+02
     12.775  0.1378E-07  0.1465E+02
     12.856  0.4360E+01  0.1500E+02
     12.937  0.0000E+00  0.1500E+02
     13.018  0.6558E+00  0.1505E+02
     13.099  0.3705E+01  0.1535E+02
     13.180  0.2546E-01  0.1536E+02
     13.261  0.5789E+01  0.1582E+02
     13.342  0.4845E+00  0.1586E+02
     13.423  0.0000E+00  0.1586E+02
     13.504  0.5676E+00  0.1591E+02
     13.585  0.0000E+00  0.1594E+02
     13.666  0.0000E+00  0.1594E+02
     13.747  0.0000E+00  0.1594E+02
     13.828  0.0000E+00  0.1594E+02
     13.908  0.0000E+00  0.1594E+02
     13.989  0.0000E+00  0.1594E+02
     14.070  0.0000E+00  0.1594E+02
     14.151  0.0000E+00  0.1594E+02
     14.232  0.0000E+00  0.1594E+02
     14.313  0.0000E+00  0.1594E+02
     14.394  0.0000E+00  0.1594E+02
     14.475  0.0000E+00  0.1594E+02
     14.556  0.0000E+00  0.1594E+02
     14.637  0.0000E+00  0.1594E+02
     14.718  0.0000E+00  0.1594E+02
     14.799  0.0000E+00  0.1594E+02
     14.880  0.0000E+00  0.1594E+02
     14.961  0.0000E+00  0.1594E+02
     15.042  0.0000E+00  0.1594E+02
     15.123  0.0000E+00  0.1594E+02
     15.204  0.0000E+00  0.1594E+02
     15.284  0.0000E+00  0.1594E+02
     15.365  0.0000E+00  0.1594E+02
     15.446  0.0000E+00  0.1594E+02
     15.527  0.0000E+00  0.1594E+02
     15.608  0.0000E+00  0.1594E+02
     15.689  0.0000E+00  0.1594E+02
     15.770  0.0000E+00  0.1594E+02
     15.851  0.9716E-01  0.1595E+02
     15.932  0.6296E+00  0.1600E+02
     16.013  0.0000E+00  0.1600E+02
     16.094  0.0000E+00  0.1600E+02
     16.175  0.0000E+00  0.1600E+02
     16.256  0.0000E+00  0.1600E+02
     16.337  0.0000E+00  0.1600E+02
     16.418  0.0000E+00  0.1600E+02
     16.499  0.0000E+00  0.1600E+02
     16.580  0.0000E+00  0.1600E+02
     16.660  0.0000E+00  0.1600E+02
     16.741  0.0000E+00  0.1600E+02
     16.822  0.0000E+00  0.1600E+02
     16.903  0.0000E+00  0.1600E+02
     16.984  0.0000E+00  0.1600E+02
     16.98423524     -7.29797667  301      5.90547605      1.00000000
     -7.298  0.0000E+00  0.0000E+00  0.0000E+00
     -7.217  0.0000E+00  0.0000E+00  0.0000E+00
     -7.136  0.0000E+00  0.0000E+00  0.0000E+00
     -7.055  0.0000E+00  0.0000E+00  0.0000E+00
     -6.974  0.0000E+00  0.0000E+00  0.0000E+00
     -6.893  0.0000E+00  0.0000E+00  0.0000E+00
     -6.812  0.0000E+00  0.0000E+00  0.0000E+00
     -6.731  0.0000E+00  0.0000E+00  0.0000E+00
     -6.650  0.0000E+00  0.0000E+00  0.0000E+00
     -6.570  0.0000E+00  0.0000E+00  0.0000E+00
     -6.489  0.0000E+00  0.0000E+00  0.0000E+00
     -6.408  0.0000E+00  0.0000E+00  0.0000E+00
     -6.327  0.0000E+00  0.0000E+00  0.0000E+00
     -6.246  0.4169E-14  0.8834E-29  0.0000E+00
     -6.165  0.2578E-01  0.5463E-16  0.0000E+00
     -6.084  0.0000E+00  0.0000E+00  0.0000E+00
     -6.003  0.0000E+00  0.0000E+00  0.0000E+00
     -5.922  0.0000E+00  0.0000E+00  0.0000E+00
     -5.841  0.1855E-01  0.3395E-03  0.0000E+00
     -5.760  0.1861E+00  0.3405E-02  0.0000E+00
     -5.679  0.1529E+00  0.3875E-02  0.0000E+00
     -5.598  0.0000E+00  0.0000E+00  0.0000E+00
     -5.517  0.0000E+00  0.0000E+00  0.0000E+00
     -5.436  0.0000E+00  0.0000E+00  0.0000E+00
     -5.355  0.0000E+00  0.0000E+00  0.0000E+00
     -5.274  0.2708E-06  0.1274E-07  0.0000E+00
     -5.194  0.3040E+00  0.1430E-01  0.0000E+00
     -5.113  0.0000E+00  0.0000E+00  0.0000E+00
     -5.032  0.0000E+00  0.0000E+00  0.0000E+00
     -4.951  0.0000E+00  0.0000E+00  0.0000E+00
     -4.870  0.6023E+00  0.3902E-01  0.0000E+00
     -4.789  0.2037E+00  0.1230E-01  0.0000E+00
     -4.708  0.0000E+00  0.0000E+00  0.0000E+00
     -4.627  0.0000E+00  0.0000E+00  0.0000E+00
     -4.546  0.0000E+00  0.0000E+00  0.0000E+00
     -4.465  0.0000E+00  0.0000E+00  0.0000E+00
     -4.384  0.0000E+00  0.0000E+00  0.0000E+00
     -4.303  0.2491E-03  0.2553E-04  0.0000E+00
     -4.222  0.1476E+00  0.1513E-01  0.0000E+00
     -4.141  0.0000E+00  0.0000E+00  0.0000E+00
     -4.060  0.6081E+00  0.5301E-01  0.0000E+00
     -3.979  0.0000E+00  0.0000E+00  0.0000E+00
     -3.898  0.1502E+00  0.1648E-01  0.0000E+00
     -3.818  0.5596E+00  0.5602E-01  0.0000E+00
     -3.737  0.6722E-12  0.5967E-13  0.0000E+00
     -3.656  0.6310E+00  0.5602E-01  0.0000E+00
     -3.575  0.0000E+00  0.0000E+00  0.0000E+00
     -3.494  0.0000E+00  0.0000E+00  0.0000E+00
     -3.413  0.0000E+00  0.0000E+00  0.0000E+00
     -3.332  0.0000E+00  0.0000E+00  0.0000E+00
     -3.251  0.0000E+00  0.0000E+00  0.0000E+00
     -3.170  0.3278E-16  0.5054E-17  0.0000E+00
     -3.089  0.5900E+00  0.9097E-01  0.0000E+00
     -3.008  0.0000E+00  0.0000E+00  0.0000E+00
     -2.927  0.2095E-02  0.2728E-03  0.0000E+00
     -2.846  0.9374E+00  0.1198E+00  0.0000E+00
     -2.765  0.0000E+00  0.0000E+00  0.0000E+00
     -2.684  0.0000E+00  0.0000E+00  0.0000E+00
     -2.603  0.0000E+00  0.0000E+00  0.0000E+00
     -2.522  0.0000E+00  0.0000E+00  0.0000E+00
     -2.442  0.0000E+00  0.0000E+00  0.0000E+00
     -2.361  0.0000E+00  0.0000E+00  0.0000E+00
     -2.280  0.0000E+00  0.0000E+00  0.0000E+00
     -2.199  0.0000E+00  0.0000E+00  0.0000E+00
     -2.118  0.0000E+00  0.0000E+00  0.0000E+00
     -2.037  0.4193E-01  0.9885E-02  0.0000E+00
     -1.956  0.9844E-01  0.2320E-01  0.0000E+00
     -1.875  0.0000E+00  0.0000E+00  0.0000E+00
     -1.794  0.0000E+00  0.0000E+00  0.0000E+00
     -1.713  0.0000E+00  0.0000E+00  0.0000E+00
     -1.632  0.0000E+00  0.0000E+00  0.0000E+00
     -1.551  0.0000E+00  0.0000E+00  0.0000E+00
     -1.470  0.0000E+00  0.0000E+00  0.0000E+00
     -1.389  0.0000E+00  0.0000E+00  0.0000E+00
     -1.308  0.0000E+00  0.0000E+00  0.0000E+00
     -1.227  0.6636E-02  0.6440E-02  0.0000E+00
     -1.146  0.4030E-01  0.3911E-01  0.0000E+00
     -1.066  0.2122E+00  0.8636E-01  0.0000E+00
     -0.985  0.4262E+00  0.1656E+00  0.0000E+00
     -0.904  0.0000E+00  0.0000E+00  0.0000E+00
     -0.823  0.3484E+00  0.2534E+00  0.0000E+00
     -0.742  0.5388E+00  0.1767E+00  0.0000E+00
     -0.661  0.0000E+00  0.0000E+00  0.0000E+00
     -0.580  0.0000E+00  0.0000E+00  0.0000E+00
     -0.499  0.0000E+00  0.0000E+00  0.0000E+00
     -0.418  0.0000E+00  0.0000E+00  0.0000E+00
     -0.337  0.0000E+00  0.0000E+00  0.0000E+00
     -0.256  0.2256E-02  0.1629E-02  0.0000E+00
     -0.175  0.3608E+00  0.2606E+00  0.0000E+00
     -0.094  0.0000E+00  0.0000E+00  0.0000E+00
     -0.013  0.0000E+00  0.0000E+00  0.0000E+00
      0.068  0.0000E+00  0.0000E+00  0.0000E+00
      0.149  0.3480E+00  0.1560E+00  0.0000E+00
      0.230  0.0000E+00  0.0000E+00  0.0000E+00
      0.310  0.0000E+00  0.0000E+00  0.0000E+00
      0.391  0.3432E-08  0.3396E-08  0.0000E+00
      0.472  0.1012E+00  0.1002E+00  0.0000E+00
      0.553  0.0000E+00  0.0000E+00  0.0000E+00
      0.634  0.0000E+00  0.0000E+00  0.0000E+00
      0.715  0.0000E+00  0.0000E+00  0.0000E+00
      0.796  0.1241E+00  0.5609E-01  0.0000E+00
      0.877  0.0000E+00  0.0000E+00  0.0000E+00
      0.958  0.0000E+00  0.0000E+00  0.0000E+00
      1.039  0.0000E+00  0.0000E+00  0.0000E+00
      1.120  0.0000E+00  0.0000E+00  0.0000E+00
      1.201  0.0000E+00  0.0000E+00  0.0000E+00
      1.282  0.3655E-09  0.1419E-07  0.0000E+00
      1.363  0.3719E+00  0.5196E+00  0.0000E+00
      1.444  0.0000E+00  0.0000E+00  0.0000E+00
      1.525  0.0000E+00  0.0000E+00  0.0000E+00
      1.606  0.0000E+00  0.0000E+00  0.0000E+00
      1.686  0.1039E-11  0.7457E-11  0.0000E+00
      1.767  0.6020E-01  0.4321E+00  0.0000E+00
      1.848  0.0000E+00  0.0000E+00  0.0000E+00
      1.929  0.0000E+00  0.0000E+00  0.0000E+00
      2.010  0.1186E-15  0.1092E-15  0.0000E+00
      2.091  0.1780E+00  0.1643E+00  0.0000E+00
      2.172  0.2637E-01  0.5955E+00  0.0000E+00
      2.253  0.2554E-01  0.3351E+00  0.0000E+00
      2.334  0.0000E+00  0.0000E+00  0.0000E+00
      2.415  0.0000E+00  0.0000E+00  0.0000E+00
      2.496  0.0000E+00  0.0000E+00  0.0000E+00
      2.577  0.0000E+00  0.0000E+00  0.0000E+00
      2.658  0.1700E-14  0.7394E-14  0.0000E+00
      2.739  0.1031E+00  0.4485E+00  0.0000E+00
      2.820  0.0000E+00  0.0000E+00  0.0000E+00
      2.901  0.4191E-20  0.2665E-03  0.0000E+00
      2.981  0.2517E-01  0.2429E+00  0.0000E+00
      3.062  0.1041E+00  0.8659E+00  0.0000E+00
      3.143  0.0000E+00  0.0000E+00  0.0000E+00
      3.224  0.1100E-15  0.3901E+00  0.0000E+00
      3.305  0.1965E-09  0.2741E-08  0.0000E+00
      3.386  0.2227E-01  0.5407E+00  0.0000E+00
      3.467  0.7258E-01  0.2815E+00  0.0000E+00
      3.548  0.9428E-02  0.3817E+00  0.0000E+00
      3.629  0.5447E-23  0.7617E-08  0.0000E+00
      3.710  0.3273E-11  0.2953E+00  0.0000E+00
      3.791  0.1858E+00  0.5635E+00  0.0000E+00
      3.872  0.0000E+00  0.0000E+00  0.0000E+00
      3.953  0.2920E-27  0.1462E-13  0.0000E+00
      4.034  0.1281E-13  0.9029E+00  0.0000E+00
      4.115  0.0000E+00  0.0000E+00  0.0000E+00
      4.196  0.0000E+00  0.0000E+00  0.0000E+00
      4.277  0.0000E+00  0.0000E+00  0.0000E+00
      4.357  0.0000E+00  0.0000E+00  0.0000E+00
      4.438  0.2221E-29  0.3342E-13  0.0000E+00
      4.519  0.4120E-16  0.6201E+00  0.0000E+00
      4.600  0.5306E-15  0.4595E+00  0.0000E+00
      4.681  0.0000E+00  0.0000E+00  0.0000E+00
      4.762  0.4757E-21  0.1336E-04  0.0000E+00
      4.843  0.1490E-16  0.4186E+00  0.0000E+00
      4.924  0.0000E+00  0.0000E+00  0.0000E+00
      5.005  0.0000E+00  0.0000E+00  0.0000E+00
      5.086  0.0000E+00  0.0000E+00  0.0000E+00
      5.167  0.0000E+00  0.0000E+00  0.0000E+00
      5.248  0.1673E-15  0.3179E+00  0.0000E+00
      5.329  0.1593E-17  0.1455E-01  0.0000E+00
      5.410  0.4360E-16  0.3982E+00  0.0000E+00
      5.491  0.0000E+00  0.0000E+00  0.0000E+00
      5.572  0.0000E+00  0.0000E+00  0.0000E+00
      5.653  0.0000E+00  0.0000E+00  0.0000E+00
      5.733  0.0000E+00  0.0000E+00  0.0000E+00
      5.814  0.5488E-13  0.7806E-01  0.0000E+00
      5.895  0.0000E+00  0.0000E+00  0.0000E+00
      5.976  0.0000E+00  0.0000E+00  0.0000E+00
      6.057  0.0000E+00  0.0000E+00  0.0000E+00
      6.138  0.0000E+00  0.0000E+00  0.0000E+00
      6.219  0.0000E+00  0.0000E+00  0.0000E+00
      6.300  0.0000E+00  0.0000E+00  0.0000E+00
      6.381  0.1733E-01  0.1116E-01  0.0000E+00
      6.462  0.3766E-01  0.4079E-01  0.0000E+00
      6.543  0.0000E+00  0.0000E+00  0.0000E+00
      6.624  0.0000E+00  0.0000E+00  0.0000E+00
      6.705  0.9989E-08  0.8348E-08  0.0000E+00
      6.786  0.1475E+00  0.1232E+00  0.0000E+00
      6.867  0.0000E+00  0.0000E+00  0.0000E+00
      6.948  0.0000E+00  0.0000E+00  0.0000E+00
      7.029  0.0000E+00  0.0000E+00  0.0000E+00
      7.109  0.0000E+00  0.0000E+00  0.0000E+00
      7.190  0.0000E+00  0.0000E+00  0.0000E+00
      7.271  0.1649E+00  0.7264E-01  0.0000E+00
      7.352  0.0000E+00  0.0000E+00  0.0000E+00
      7.433  0.2188E-01  0.7270E-01  0.0000E+00
      7.514  0.1688E+00  0.2950E-01  0.0000E+00
      7.595  0.0000E+00  0.0000E+00  0.0000E+00
      7.676  0.1025E+00  0.1771E+00  0.0000E+00
      7.757  0.1756E+00  0.1638E+00  0.0000E+00
      7.838  0.0000E+00  0.0000E+00  0.0000E+00
      7.919  0.0000E+00  0.0000E+00  0.0000E+00
      8.000  0.0000E+00  0.0000E+00  0.0000E+00
      8.081  0.3941E-01  0.2256E-01  0.0000E+00
      8.162  0.1314E+00  0.8504E-01  0.0000E+00
      8.243  0.1860E+00  0.1445E+00  0.0000E+00
      8.324  0.9019E-12  0.5327E-01  0.0000E+00
      8.405  0.7731E-02  0.1621E-01  0.0000E+00
      8.485  0.9158E-01  0.1920E+00  0.0000E+00
      8.566  0.3034E-01  0.1047E+00  0.0000E+00
      8.647  0.5493E-01  0.1896E+00  0.0000E+00
      8.728  0.5528E-15  0.5301E-15  0.0000E+00
      8.809  0.1383E+00  0.1326E+00  0.0000E+00
      8.890  0.0000E+00  0.0000E+00  0.0000E+00
      8.971  0.1708E-12  0.2685E+00  0.0000E+00
      9.052  0.1119E-01  0.1223E+00  0.0000E+00
      9.133  0.4221E-01  0.8801E-01  0.0000E+00
      9.214  0.7448E-18  0.7947E-05  0.0000E+00
      9.295  0.1705E+00  0.4722E+00  0.0000E+00
      9.376  0.4611E-05  0.2039E+00  0.0000E+00
      9.457  0.5633E-01  0.1720E+00  0.0000E+00
      9.538  0.8255E-09  0.3242E-08  0.0000E+00
      9.619  0.4491E-01  0.1764E+00  0.0000E+00
      9.700  0.0000E+00  0.0000E+00  0.0000E+00
      9.781  0.4787E-01  0.5530E-01  0.0000E+00
      9.861  0.4599E+00  0.7403E+00  0.0000E+00
      9.942  0.1188E-05  0.1634E-03  0.0000E+00
     10.023  0.2448E+00  0.6636E+00  0.0000E+00
     10.104  0.2790E-08  0.1000E+00  0.0000E+00
     10.185  0.3962E-08  0.1420E+00  0.0000E+00
     10.266  0.8108E-01  0.2923E+00  0.0000E+00
     10.347  0.6872E-10  0.2032E-01  0.0000E+00
     10.428  0.9810E-09  0.2900E+00  0.0000E+00
     10.509  0.0000E+00  0.0000E+00  0.0000E+00
     10.590  0.0000E+00  0.0000E+00  0.0000E+00
     10.671  0.0000E+00  0.0000E+00  0.0000E+00
     10.752  0.0000E+00  0.0000E+00  0.0000E+00
     10.833  0.1674E-08  0.3316E+00  0.0000E+00
     10.914  0.0000E+00  0.0000E+00  0.0000E+00
     10.995  0.0000E+00  0.0000E+00  0.0000E+00
     11.076  0.0000E+00  0.0000E+00  0.0000E+00
     11.157  0.4706E-10  0.3218E-10  0.0000E+00
     11.237  0.1662E+00  0.1136E+00  0.0000E+00
     11.318  0.8475E-16  0.1134E-15  0.0000E+00
     11.399  0.1018E+00  0.1362E+00  0.0000E+00
     11.480  0.6160E-05  0.8444E-04  0.0000E+00
     11.561  0.8115E-02  0.1112E+00  0.0000E+00
     11.642  0.0000E+00  0.0000E+00  0.0000E+00
     11.723  0.0000E+00  0.0000E+00  0.0000E+00
     11.804  0.6007E-02  0.2697E-01  0.0000E+00
     11.885  0.4867E-01  0.2185E+00  0.0000E+00
     11.966  0.0000E+00  0.0000E+00  0.0000E+00
     12.047  0.0000E+00  0.0000E+00  0.0000E+00
     12.128  0.6821E-02  0.3348E-01  0.0000E+00
     12.209  0.5392E-01  0.2670E+00  0.0000E+00
     12.290  0.9755E-01  0.5721E+00  0.0000E+00
     12.371  0.0000E+00  0.0000E+00  0.0000E+00
     12.452  0.0000E+00  0.0000E+00  0.0000E+00
     12.532  0.0000E+00  0.0000E+00  0.0000E+00
     12.613  0.0000E+00  0.0000E+00  0.0000E+00
     12.694  0.0000E+00  0.0000E+00  0.0000E+00
     12.775  0.1147E-09  0.2026E-08  0.0000E+00
     12.856  0.8183E-01  0.6275E+00  0.0000E+00
     12.937  0.0000E+00  0.0000E+00  0.0000E+00
     13.018  0.5177E-02  0.9762E-01  0.0000E+00
     13.099  0.7945E-01  0.4426E+00  0.0000E+00
     13.180  0.5513E-10  0.3202E-02  0.0000E+00
     13.261  0.1203E+00  0.7730E+00  0.0000E+00
     13.342  0.3139E-02  0.2436E-01  0.0000E+00
     13.423  0.0000E+00  0.0000E+00  0.0000E+00
     13.504  0.6988E-02  0.6496E-01  0.0000E+00
     13.585  0.0000E+00  0.0000E+00  0.0000E+00
     13.666  0.0000E+00  0.0000E+00  0.0000E+00
     13.747  0.0000E+00  0.0000E+00  0.0000E+00
     13.828  0.0000E+00  0.0000E+00  0.0000E+00
     13.908  0.0000E+00  0.0000E+00  0.0000E+00
     13.989  0.0000E+00  0.0000E+00  0.0000E+00
     14.070  0.0000E+00  0.0000E+00  0.0000E+00
     14.151  0.0000E+00  0.0000E+00  0.0000E+00
     14.232  0.0000E+00  0.0000E+00  0.0000E+00
     14.313  0.0000E+00  0.0000E+00  0.0000E+00
     14.394  0.0000E+00  0.0000E+00  0.0000E+00
     14.475  0.0000E+00  0.0000E+00  0.0000E+00
     14.556  0.0000E+00  0.0000E+00  0.0000E+00
     14.637  0.0000E+00  0.0000E+00  0.0000E+00
     14.718  0.0000E+00  0.0000E+00  0.0000E+00
     14.799  0.0000E+00  0.0000E+00  0.0000E+00
     14.880  0.0000E+00  0.0000E+00  0.0000E+00
     14.961  0.0000E+00  0.0000E+00  0.0000E+00
     15.042  0.0000E+00  0.0000E+00  0.0000E+00
     15.123  0.0000E+00  0.0000E+00  0.0000E+00
     15.204  0.0000E+00  0.0000E+00  0.0000E+00
     15.284  0.0000E+00  0.0000E+00  0.0000E+00
     15.365  0.0000E+00  0.0000E+00  0.0000E+00
     15.446  0.0000E+00  0.0000E+00  0.0000E+00
     15.527  0.0000E+00  0.0000E+00  0.0000E+00
     15.608  0.0000E+00  0.0000E+00  0.0000E+00
     15.689  0.0000E+00  0.0000E+00  0.0000E+00
     15.770  0.0000E+00  0.0000E+00  0.0000E+00
     15.851  0.4245E-06  0.2324E-01  0.0000E+00
     15.932  0.3130E-05  0.1505E+00  0.0000E+00
     16.013  0.0000E+00  0.0000E+00  0.0000E+00
     16.094  0.0000E+00  0.0000E+00  0.0000E+00
     16.175  0.0000E+00  0.0000E+00  0.0000E+00
     16.256  0.0000E+00  0.0000E+00  0.0000E+00
     16.337  0.0000E+00  0.0000E+00  0.0000E+00
     16.418  0.0000E+00  0.0000E+00  0.0000E+00
     16.499  0.0000E+00  0.0000E+00  0.0000E+00
     16.580  0.0000E+00  0.0000E+00  0.0000E+00
     16.660  0.0000E+00  0.0000E+00  0.0000E+00
     16.741  0.0000E+00  0.0000E+00  0.0000E+00
     16.822  0.0000E+00  0.0000E+00  0.0000E+00
     16.903  0.0000E+00  0.0000E+00  0.0000E+00
     16.984  0.0000E+00  0.0000E+00  0.0000E+00
     16.98423524     -7.29797667  301      5.90547605      1.00000000
     -7.298  0.0000E+00  0.0000E+00  0.0000E+00
     -7.217  0.0000E+00  0.0000E+00  0.0000E+00
     -7.136  0.0000E+00  0.0000E+00  0.0000E+00
     -7.055  0.0000E+00  0.0000E+00  0.0000E+00
     -6.974  0.0000E+00  0.0000E+00  0.0000E+00
     -6.893  0.0000E+00  0.0000E+00  0.0000E+00
     -6.812  0.0000E+00  0.0000E+00  0.0000E+00
     -6.731  0.0000E+00  0.0000E+00  0.0000E+00
     -6.650  0.0000E+00  0.0000E+00  0.0000E+00
     -6.570  0.0000E+00  0.0000E+00  0.0000E+00
     -6.489  0.0000E+00  0.0000E+00  0.0000E+00
     -6.408  0.0000E+00  0.0000E+00  0.0000E+00
     -6.327  0.0000E+00  0.0000E+00  0.0000E+00
     -6.246  0.4169E-14  0.1160E-28  0.0000E+00
     -6.165  0.2578E-01  0.7175E-16  0.0000E+00
     -6.084  0.0000E+00  0.0000E+00  0.0000E+00
     -6.003  0.0000E+00  0.0000E+00  0.0000E+00
     -5.922  0.0000E+00  0.0000E+00  0.0000E+00
     -5.841  0.1855E-01  0.3395E-03  0.0000E+00
     -5.760  0.1861E+00  0.3405E-02  0.0000E+00
     -5.679  0.1529E+00  0.3875E-02  0.0000E+00
     -5.598  0.0000E+00  0.0000E+00  0.0000E+00
     -5.517  0.0000E+00  0.0000E+00  0.0000E+00
     -5.436  0.0000E+00  0.0000E+00  0.0000E+00
     -5.355  0.0000E+00  0.0000E+00  0.0000E+00
     -5.274  0.2708E-06  0.1274E-07  0.0000E+00
     -5.194  0.3040E+00  0.1430E-01  0.0000E+00
     -5.113  0.0000E+00  0.0000E+00  0.0000E+00
     -5.032  0.0000E+00  0.0000E+00  0.0000E+00
     -4.951  0.0000E+00  0.0000E+00  0.0000E+00
     -4.870  0.6023E+00  0.3902E-01  0.0000E+00
     -4.789  0.2037E+00  0.1230E-01  0.0000E+00
     -4.708  0.0000E+00  0.0000E+00  0.0000E+00
     -4.627  0.0000E+00  0.0000E+00  0.0000E+00
     -4.546  0.0000E+00  0.0000E+00  0.0000E+00
     -4.465  0.0000E+00  0.0000E+00  0.0000E+00
     -4.384  0.0000E+00  0.0000E+00  0.0000E+00
     -4.303  0.2491E-03  0.2553E-04  0.0000E+00
     -4.222  0.1476E+00  0.1513E-01  0.0000E+00
     -4.141  0.0000E+00  0.0000E+00  0.0000E+00
     -4.060  0.6081E+00  0.5301E-01  0.0000E+00
     -3.979  0.0000E+00  0.0000E+00  0.0000E+00
     -3.898  0.1502E+00  0.1648E-01  0.0000E+00
     -3.818  0.5596E+00  0.5602E-01  0.0000E+00
     -3.737  0.6722E-12  0.5967E-13  0.0000E+00
     -3.656  0.6310E+00  0.5602E-01  0.0000E+00
     -3.575  0.0000E+00  0.0000E+00  0.0000E+00
     -3.494  0.0000E+00  0.0000E+00  0.0000E+00
     -3.413  0.0000E+00  0.0000E+00  0.0000E+00
     -3.332  0.0000E+00  0.0000E+00  0.0000E+00
     -3.251  0.0000E+00  0.0000E+00  0.0000E+00
     -3.170  0.3278E-16  0.5054E-17  0.0000E+00
     -3.089  0.5900E+00  0.9097E-01  0.0000E+00
     -3.008  0.0000E+00  0.0000E+00  0.0000E+00
     -2.927  0.2095E-02  0.2728E-03  0.0000E+00
     -2.846  0.9374E+00  0.1198E+00  0.0000E+00
     -2.765  0.0000E+00  0.0000E+00  0.0000E+00
     -2.684  0.0000E+00  0.0000E+00  0.0000E+00
     -2.603  0.0000E+00  0.0000E+00  0.0000E+00
     -2.522  0.0000E+00  0.0000E+00  0.0000E+00
     -2.442  0.0000E+00  0.0000E+00  0.0000E+00
     -2.361  0.0000E+00  0.0000E+00  0.0000E+00
     -2.280  0.0000E+00  0.0000E+00  0.0000E+00
     -2.199  0.0000E+00  0.0000E+00  0.0000E+00
     -2.118  0.0000E+00  0.0000E+00  0.0000E+00
     -2.037  0.4193E-01  0.9885E-02  0.0000E+00
     -1.956  0.9844E-01  0.2320E-01  0.0000E+00
     -1.875  0.0000E+00  0.0000E+00  0.0000E+00
     -1.794  0.0000E+00  0.0000E+00  0.0000E+00
     -1.713  0.0000E+00  0.0000E+00  0.0000E+00
     -1.632  0.0000E+00  0.0000E+00  0.0000E+00
     -1.551  0.0000E+00  0.0000E+00  0.0000E+00
     -1.470  0.0000E+00  0.0000E+00  0.0000E+00
     -1.389  0.0000E+00  0.0000E+00  0.0000E+00
     -1.308  0.0000E+00  0.0000E+00  0.0000E+00
     -1.227  0.6636E-02  0.6440E-02  0.0000E+00
     -1.146  0.4030E-01  0.3911E-01  0.0000E+00
     -1.066  0.2122E+00  0.8636E-01  0.0000E+00
     -0.985  0.4262E+00  0.1656E+00  0.0000E+00
     -0.904  0.0000E+00  0.0000E+00  0.0000E+00
     -0.823  0.3484E+00  0.2534E+00  0.0000E+00
     -0.742  0.5388E+00  0.1767E+00  0.0000E+00
     -0.661  0.0000E+00  0.0000E+00  0.0000E+00
     -0.580  0.0000E+00  0.0000E+00  0.0000E+00
     -0.499  0.0000E+00  0.0000E+00  0.0000E+00
     -0.418  0.0000E+00  0.0000E+00  0.0000E+00
     -0.337  0.0000E+00  0.0000E+00  0.0000E+00
     -0.256  0.2256E-02  0.1629E-02  0.0000E+00
     -0.175  0.3608E+00  0.2606E+00  0.0000E+00
     -0.094  0.0000E+00  0.0000E+00  0.0000E+00