 vasp.5.4.1 24Jun15 (build Nov 25 2015 16:01:35) complex                        
  
 executed on         CrayXC-Intel date 2016.06.01  18:09:29
 running on   96 total cores
 distrk:  each k-point on   24 cores,    4 groups
 distr:  one band on NCORES_PER_BAND=   6 cores,    4 groups


--------------------------------------------------------------------------------------------------------


 INCAR:
 POTCAR:    PAW_PBE Si 05Jan2001                  

 ----------------------------------------------------------------------------- 
|                                                                             |
|           W    W    AA    RRRRR   N    N  II  N    N   GGGG   !!!           |
|           W    W   A  A   R    R  NN   N  II  NN   N  G    G  !!!           |
|           W    W  A    A  R    R  N N  N  II  N N  N  G       !!!           |
|           W WW W  AAAAAA  RRRRR   N  N N  II  N  N N  G  GGG   !            |
|           WW  WW  A    A  R   R   N   NN  II  N   NN  G    G                |
|           W    W  A    A  R    R  N    N  II  N    N   GGGG   !!!           |
|                                                                             |
|      You have enabled k-point parallelism (KPAR>1).                         |
|      This developmental code was originally  written by Paul Kent at ORNL,  |
|      and carefully double checked in Vienna.                                |
|      GW as well as linear response parallelism added by Martijn Marsman     |
|      and Georg Kresse.                                                      |
|      Carefully verify results versus KPAR=1.                                |
|      Report problems to Paul Kent and Vienna.                               |
|                                                                             |
 ----------------------------------------------------------------------------- 

 POTCAR:    PAW_PBE Si 05Jan2001                  
   VRHFIN =Si: s2p2                                                             
   LEXCH  = PE                                                                  
   EATOM  =   103.0669 eV,    7.5752 Ry                                         
                                                                                
   TITEL  = PAW_PBE Si 05Jan2001                                                
   LULTRA =        F    use ultrasoft PP ?                                      
   IUNSCR =        1    unscreen: 0-lin 1-nonlin 2-no                           
   RPACOR =    1.500    partial core radius                                     
   POMASS =   28.085; ZVAL   =    4.000    mass and valenz                      
   RCORE  =    1.900    outmost cutoff radius                                   
   RWIGS  =    2.480; RWIGS  =    1.312    wigner-seitz radius (au A)           
   ENMAX  =  245.345; ENMIN  =  184.009 eV                                      
   ICORE  =        2    local potential                                         
   LCOR   =        T    correct aug charges                                     
   LPAW   =        T    paw PP                                                  
   EAUG   =  322.069                                                            
   DEXC   =    0.000                                                            
   RMAX   =    1.950    core radius for proj-oper                               
   RAUG   =    1.300    factor for augmentation sphere                          
   RDEP   =    1.993    radius for radial grids                                 
   RDEPT  =    1.837    core radius for aug-charge                              
                                                                                
   Atomic configuration                                                         
    6 entries                                                                   
     n  l   j            E        occ.                                          
     1  0  0.50     -1785.8828   2.0000                                         
     2  0  0.50      -139.4969   2.0000                                         
     2  1  1.50       -95.5546   6.0000                                         
     3  0  0.50       -10.8127   2.0000                                         
     3  1  0.50        -4.0811   2.0000                                         
     3  2  1.50        -4.0817   0.0000                                         
   Description                                                                  
     l       E           TYP  RCUT    TYP  RCUT                                 
     0    -10.8127223     23  1.900                                             
     0     -7.6451159     23  1.900                                             
     1     -4.0811372     23  1.900                                             
     1      2.4879257     23  1.900                                             
     2     -4.0817478      7  1.900                                             
  local pseudopotential read in
  partial core-charges read in
  partial kinetic energy density read in
  atomic valenz-charges read in
  non local Contribution for L=           0  read in
    real space projection operators read in
  non local Contribution for L=           0  read in
    real space projection operators read in
  non local Contribution for L=           1  read in
    real space projection operators read in
  non local Contribution for L=           1  read in
    real space projection operators read in
    PAW grid and wavefunctions read in
 
   number of l-projection  operators is LMAX  =           4
   number of lm-projection operators is LMMAX =           8
 

 ----------------------------------------------------------------------------- 
|                                                                             |
|  ADVICE TO THIS USER RUNNING 'VASP/VAMP'   (HEAR YOUR MASTER'S VOICE ...):  |
|                                                                             |
|      You enforced a specific xc-type in the INCAR file,                     |
|      a different type was found on the POTCAR file                          |
|          I HOPE YOU KNOW, WHAT YOU ARE  DOING                               |
|                                                                             |
 ----------------------------------------------------------------------------- 

  PAW_PBE Si 05Jan2001                  :
 energy of atom  1       EATOM= -103.0669
 kinetic energy error for atom=    0.0006 (will be added to EATOM!!)
 
 
 POSCAR: Si (Madelung Handbook, 295.7K)          
  positions in direct lattice
  velocities in cartesian coordinates
 exchange correlation table for  LEXCH =       14
   RHO(1)=    0.500       N(1)  =     2000
   RHO(2)=  100.500       N(2)  =     4000
 


--------------------------------------------------------------------------------------------------------


 ion  position               nearest neighbor table
   1  0.000  0.000  0.000-   2 2.35   2 2.35   2 2.35   2 2.35
   2  0.250  0.250  0.250-   1 2.35   1 2.35   1 2.35   1 2.35
 
  LATTYP: Found a face centered cubic cell.
 ALAT       =     5.4310000000
  
  Lattice vectors:
  
 A1 = (   2.7155000000,   2.7155000000,   0.0000000000)
 A2 = (   2.7155000000,   0.0000000000,  -2.7155000000)
 A3 = (   0.0000000000,   2.7155000000,  -2.7155000000)


Analysis of symmetry for initial positions (statically):
=====================================================================
 Subroutine PRICEL returns:
 Original cell was already a primitive cell.
 

 Routine SETGRP: Setting up the symmetry group for a 
 face centered cubic supercell.


 Subroutine GETGRP returns: Found 48 space group operations
 (whereof 24 operations were pure point group operations)
 out of a pool of 48 trial point group operations.


The static configuration has the point symmetry T_d .
 The point group associated with its full space group is O_h .


Analysis of symmetry for dynamics (positions and initial velocities):
=====================================================================
 Subroutine PRICEL returns:
 Original cell was already a primitive cell.
 

 Routine SETGRP: Setting up the symmetry group for a 
 face centered cubic supercell.


 Subroutine GETGRP returns: Found 48 space group operations
 (whereof 24 operations were pure point group operations)
 out of a pool of 48 trial point group operations.


The dynamic configuration has the point symmetry T_d .
 The point group associated with its full space group is O_h .


 Subroutine INISYM returns: Found 48 space group operations
 (whereof 24 operations are pure point group operations),
 and found     1 'primitive' translations

 
 
 KPOINTS: Automatically generated mesh: SCF=15, 0.
  k-points in reciprocal lattice
Space group operators:
 irot       det(A)        alpha          n_x          n_y          n_z        tau_x        tau_y        tau_z
    1     1.000000     0.000001     1.000000     0.000000     0.000000     0.000000     0.000000     0.000000
    2     1.000000   120.000000    -0.577350    -0.577350     0.577350     0.000000     0.000000     0.000000
    3     1.000000   120.000000     0.577350     0.577350    -0.577350     0.000000     0.000000     0.000000
    4    -1.000000    90.000000    -1.000000     0.000000     0.000000     0.000000     0.000000     0.000000
    5    -1.000000   180.000000     0.707107     0.707107     0.000000     0.000000     0.000000     0.000000
    6    -1.000000    90.000000     0.000000     1.000000     0.000000     0.000000     0.000000     0.000000
    7     1.000000   180.000000     1.000000     0.000000     0.000000     0.000000     0.000000     0.000000
    8     1.000000   120.000000     0.577350     0.577350     0.577350     0.000000     0.000000     0.000000
    9     1.000000   120.000000    -0.577350     0.577350     0.577350     0.000000     0.000000     0.000000
   10    -1.000000    90.000000     1.000000     0.000000     0.000000     0.000000     0.000000     0.000000
   11    -1.000000    90.000000     0.000000     0.000000     1.000000     0.000000     0.000000     0.000000
   12    -1.000000   180.000000     0.707107     0.000000    -0.707107     0.000000     0.000000     0.000000
   13     1.000000   120.000000     0.577350    -0.577350    -0.577350     0.000000     0.000000     0.000000
   14     1.000000   120.000000     0.577350    -0.577350     0.577350     0.000000     0.000000     0.000000
   15     1.000000   180.000000     0.000000     0.000000     1.000000     0.000000     0.000000     0.000000
   16    -1.000000    90.000000     0.000000    -1.000000     0.000000     0.000000     0.000000     0.000000
   17    -1.000000   180.000000     0.000000    -0.707107     0.707107     0.000000     0.000000     0.000000
   18    -1.000000    90.000000     0.000000     0.000000    -1.000000     0.000000     0.000000     0.000000
   19     1.000000   120.000000    -0.577350    -0.577350    -0.577350     0.000000     0.000000     0.000000
   20     1.000000   180.000000     0.000000     1.000000     0.000000     0.000000     0.000000     0.000000
   21     1.000000   120.000000    -0.577350     0.577350    -0.577350     0.000000     0.000000     0.000000
   22    -1.000000   180.000000     0.707107    -0.707107     0.000000     0.000000     0.000000     0.000000
   23    -1.000000   180.000000     0.000000     0.707107     0.707107     0.000000     0.000000     0.000000
   24    -1.000000   180.000000     0.707107     0.000000     0.707107     0.000000     0.000000     0.000000
   25    -1.000000     0.000001     1.000000     0.000000     0.000000     0.250000     0.250000     0.250000
   26    -1.000000   120.000000    -0.577350    -0.577350     0.577350     0.250000     0.250000     0.250000
   27    -1.000000   120.000000     0.577350     0.577350    -0.577350     0.250000     0.250000     0.250000
   28     1.000000    90.000000    -1.000000     0.000000     0.000000     0.250000     0.250000     0.250000
   29     1.000000   180.000000     0.707107     0.707107     0.000000     0.250000     0.250000     0.250000
   30     1.000000    90.000000     0.000000     1.000000     0.000000     0.250000     0.250000     0.250000
   31    -1.000000   180.000000     1.000000     0.000000     0.000000     0.250000     0.250000     0.250000
   32    -1.000000   120.000000     0.577350     0.577350     0.577350     0.250000     0.250000     0.250000
   33    -1.000000   120.000000    -0.577350     0.577350     0.577350     0.250000     0.250000     0.250000
   34     1.000000    90.000000     1.000000     0.000000     0.000000     0.250000     0.250000     0.250000
   35     1.000000    90.000000     0.000000     0.000000     1.000000     0.250000     0.250000     0.250000
   36     1.000000   180.000000     0.707107     0.000000    -0.707107     0.250000     0.250000     0.250000
   37    -1.000000   120.000000     0.577350    -0.577350    -0.577350     0.250000     0.250000     0.250000
   38    -1.000000   120.000000     0.577350    -0.577350     0.577350     0.250000     0.250000     0.250000
   39    -1.000000   180.000000     0.000000     0.000000     1.000000     0.250000     0.250000     0.250000
   40     1.000000    90.000000     0.000000    -1.000000     0.000000     0.250000     0.250000     0.250000
   41     1.000000   180.000000     0.000000    -0.707107     0.707107     0.250000     0.250000     0.250000
   42     1.000000    90.000000     0.000000     0.000000    -1.000000     0.250000     0.250000     0.250000
   43    -1.000000   120.000000    -0.577350    -0.577350    -0.577350     0.250000     0.250000     0.250000
   44    -1.000000   180.000000     0.000000     1.000000     0.000000     0.250000     0.250000     0.250000
   45    -1.000000   120.000000    -0.577350     0.577350    -0.577350     0.250000     0.250000     0.250000
   46     1.000000   180.000000     0.707107    -0.707107     0.000000     0.250000     0.250000     0.250000
   47     1.000000   180.000000     0.000000     0.707107     0.707107     0.250000     0.250000     0.250000
   48     1.000000   180.000000     0.707107     0.000000     0.707107     0.250000     0.250000     0.250000


--------------------------------------------------------------------------------------------------------




 Dimension of arrays:
   k-points           NKPTS =   1202   k-points in BZ     NKDIM =   1202   number of bands    NBANDS=      8
   number of dos      NEDOS =    301   number of ions     NIONS =      2
   non local maximal  LDIM  =      4   non local SUM 2l+1 LMDIM =      8
   total plane-waves  NPLWV =  21952
   max r-space proj   IRMAX =      1   max aug-charges    IRDMAX=  18525
   dimension x,y,z NGX =    28 NGY =   28 NGZ =   28
   dimension x,y,z NGXF=    56 NGYF=   56 NGZF=   56
   support grid    NGXF=    56 NGYF=   56 NGZF=   56
   ions per type =               2
 NGX,Y,Z   is equivalent  to a cutoff of  12.12, 12.12, 12.12 a.u.
 NGXF,Y,Z  is equivalent  to a cutoff of  24.24, 24.24, 24.24 a.u.


 I would recommend the setting:
   dimension x,y,z NGX =    28 NGY =   28 NGZ =   28
 SYSTEM =  Name                                    
 POSCAR =  Si (Madelung Handbook, 295.7K)          

 Startparameter for this run:
   NWRITE =      2    write-flag & timer
   PREC   = accura    normal or accurate (medium, high low for compatibility)
   ISTART =      0    job   : 0-new  1-cont  2-samecut
   ICHARG =     11    charge: 1-file 2-atom 10-const
   ISPIN  =      1    spin polarized calculation?
   LNONCOLLINEAR =      F non collinear calculations
   LSORBIT =      F    spin-orbit coupling
   INIWAV =      1    electr: 0-lowe 1-rand  2-diag
   LASPH  =      F    aspherical Exc in radial PAW
   METAGGA=      F    non-selfconsistent MetaGGA calc.

 Electronic Relaxation 1
   ENCUT  =  500.0 eV  36.75 Ry    6.06 a.u.   7.00  7.00  7.00*2*pi/ulx,y,z
   ENINI  =  500.0     initial cutoff
   ENAUG  =  322.1 eV  augmentation charge cutoff
   NELM   =     60;   NELMIN=  2; NELMDL=  0     # of ELM steps 
   EDIFF  = 0.1E-05   stopping-criterion for ELM
   LREAL  =      F    real-space projection
   NLSPLINE    = F    spline interpolate recip. space projectors
   LCOMPAT=      F    compatible to vasp.4.4
   GGA_COMPAT  = T    GGA compatible to vasp.4.4-vasp.4.6
   LMAXPAW     = -100 max onsite density
   LMAXMIX     =    2 max onsite mixed and CHGCAR
   VOSKOWN=      0    Vosko Wilk Nusair interpolation
   ROPT   =    0.00000
 Ionic relaxation
   EDIFFG = -.5E-02   stopping-criterion for IOM
   NSW    =      1    number of steps for IOM
   NBLOCK =      1;   KBLOCK =      1    inner block; outer block 
   IBRION =      2    ionic relax: 0-MD 1-quasi-New 2-CG
   NFREE  =      1    steps in history (QN), initial steepest desc. (CG)
   ISIF   =      3    stress and relaxation
   IWAVPR =     11    prediction:  0-non 1-charg 2-wave 3-comb
   ISYM   =      2    0-nonsym 1-usesym 2-fastsym
   LCORR  =      T    Harris-Foulkes like correction to forces

   POTIM  = 0.5000    time-step for ionic-motion
   TEIN   =    0.0    initial temperature
   TEBEG  =    0.0;   TEEND  =   0.0 temperature during run
   SMASS  =  -3.00    Nose mass-parameter (am)
   estimated Nose-frequenzy (Omega)   =  0.10E-29 period in steps =****** mass=  -0.337E-27a.u.
   SCALEE = 1.0000    scale energy and forces
   NPACO  =    256;   APACO  = 16.0  distance and # of slots for P.C.
   PSTRESS=    0.0 pullay stress

  Mass of Ions in am
   POMASS =  28.09
  Ionic Valenz
   ZVAL   =   4.00
  Atomic Wigner-Seitz radii
   RWIGS  =  -1.00
  virtual crystal weights 
   VCA    =   1.00
   NELECT =       8.0000    total number of electrons
   NUPDOWN=      -1.0000    fix difference up-down

 DOS related values:
   EMIN   =  10.00;   EMAX   =-10.00  energy-range for DOS
   EFERMI =   0.00
   ISMEAR =     0;   SIGMA  =   0.01  broadening in eV -4-tet -1-fermi 0-gaus

 Electronic relaxation 2 (details)
   IALGO  =     38    algorithm
   LDIAG  =      T    sub-space diagonalisation (order eigenvalues)
   LSUBROT=      F    optimize rotation matrix (better conditioning)
   TURBO    =      0    0=normal 1=particle mesh
   IRESTART =      0    0=no restart 2=restart with 2 vectors
   NREBOOT  =      0    no. of reboots
   NMIN     =      0    reboot dimension
   EREF     =   0.00    reference energy to select bands
   IMIX   =      4    mixing-type and parameters
     AMIX     =   0.40;   BMIX     =  1.00
     AMIX_MAG =   1.60;   BMIX_MAG =  1.00
     AMIN     =   0.01
     WC   =   100.;   INIMIX=   1;  MIXPRE=   1;  MAXMIX= -45

 Intra band minimization:
   WEIMIN = 0.0010     energy-eigenvalue tresh-hold
   EBREAK =  0.31E-07  absolut break condition
   DEPER  =   0.30     relativ break condition  

   TIME   =   0.40     timestep for ELM

  volume/ion in A,a.u.               =      20.02       135.13
  Fermi-wavevector in a.u.,A,eV,Ry     =   0.956999  1.808467 12.460868  0.915848
  Thomas-Fermi vector in A             =   2.085978
 
 Write flags
   LWAVE  =      T    write WAVECAR
   LCHARG =      T    write CHGCAR
   LVTOT  =      F    write LOCPOT, total local potential
   LVHAR  =      F    write LOCPOT, Hartree potential only
   LELF   =      F    write electronic localiz. function (ELF)
   LORBIT =     10    0 simple, 1 ext, 2 COOP (PROOUT)


 Dipole corrections
   LMONO  =      F    monopole corrections only (constant potential shift)
   LDIPOL =      F    correct potential (dipole corrections)
   IDIPOL =      0    1-x, 2-y, 3-z, 4-all directions 
   EPSILON=  1.0000000 bulk dielectric constant

 Core level calculations are selected ICORELEVEL =  1
 Exchange correlation treatment:
   GGA     =    PS    GGA type
   LEXCH   =    14    internal setting for exchange type
   VOSKOWN=      0    Vosko Wilk Nusair interpolation
   LHFCALC =     F    Hartree Fock is set to
   LHFONE  =     F    Hartree Fock one center treatment
   AEXX    =    0.0000 exact exchange contribution

 Linear response parameters
   LEPSILON=     F    determine dielectric tensor
   LRPA    =     F    only Hartree local field effects (RPA)
   LNABLA  =     F    use nabla operator in PAW spheres
   LVEL    =     F    velocity operator in full k-point grid
   LINTERFAST=   F  fast interpolation
   KINTER  =     0    interpolate to denser k-point grid
   CSHIFT  =0.1000    complex shift for real part using Kramers Kronig
   OMEGAMAX=  -1.0    maximum frequency
   DEG_THRESHOLD= 0.2000000E-02 threshold for treating states as degnerate
   RTIME   =    0.100 relaxation time in fs

 Orbital magnetization related:
   ORBITALMAG=     F  switch on orbital magnetization
   LCHIMAG   =     F  perturbation theory with respect to B field
   DQ        =  0.001000  dq finite difference perturbation B field



--------------------------------------------------------------------------------------------------------


 conjugate gradient relaxation of ions
 charge density and potential remain constant during run
 non-spin polarized calculation
 Variant of blocked Davidson
 Davidson routine will perform the subspace rotation
 perform sub-space diagonalisation
    after iterative eigenvector-optimisation
 no mixing
 using additional bands            4
 reciprocal scheme for non local part
 use partial core corrections
 calculate Harris-corrections to forces 
   (improved forces if not selfconsistent)
 use gradient corrections 
 WARNING: stress and forces are not correct
  (second derivative of E(xc) not defined)
 use of overlap-Matrix (Vanderbilt PP)
 Gauss-broadening in eV      SIGMA  =   0.01


--------------------------------------------------------------------------------------------------------


  energy-cutoff  :      500.00
  volume of cell :       40.05
      direct lattice vectors                 reciprocal lattice vectors
     2.715500000  2.715500000  0.000000000     0.184128153  0.184128153  0.184128153
     2.715500000  0.000000000 -2.715500000     0.184128153 -0.184128153 -0.184128153
     0.000000000  2.715500000 -2.715500000    -0.184128153  0.184128153 -0.184128153

  length of vectors
     3.840296929  3.840296929  3.840296929     0.318919316  0.318919316  0.318919316


 
 k-points in units of 2pi/SCALE and weight: Automatically generated mesh: SCF=15, 0.
   0.00000000  0.00000000  0.00000000       0.005
   0.16666667  0.16666667  0.16666667       0.039
   0.33333333  0.33333333  0.33333333       0.039
   0.50000000  0.50000000  0.50000000       0.020
   0.33333333  0.00000000  0.00000000       0.029
   0.50000000  0.16666667  0.16666667       0.118
   0.66666667  0.33333333  0.33333333       0.118
  -0.16666667 -0.50000000 -0.50000000       0.118
   0.00000000 -0.33333333 -0.33333333       0.059
   0.66666667  0.00000000  0.00000000       0.029
   0.83333333  0.16666667  0.16666667       0.118
   0.00000000 -0.66666667 -0.66666667       0.059
   1.00000000  0.00000000  0.00000000       0.015
   0.66666667  0.33333333  0.00000000       0.118
  -0.16666667 -0.50000000 -0.83333333       0.118
   0.00000000  0.00000000  0.00000000       0.000
   0.00000000  0.00352112  0.00000000       0.000
   0.00000000  0.00704226  0.00000000       0.000
   0.00000000  0.01056338  0.00000000       0.000
   0.00000000  0.01408450  0.00000000       0.000
   0.00000000  0.01760564  0.00000000       0.000
   0.00000000  0.02112676  0.00000000       0.000
   0.00000000  0.02464788  0.00000000       0.000
   0.00000000  0.02816902  0.00000000       0.000
   0.00000000  0.03169014  0.00000000       0.000
   0.00000000  0.03521126  0.00000000       0.000
   0.00000000  0.03873240  0.00000000       0.000
   0.00000000  0.04225352  0.00000000       0.000
   0.00000000  0.04577464  0.00000000       0.000
   0.00000000  0.04929578  0.00000000       0.000
   0.00000000  0.05281690  0.00000000       0.000
   0.00000000  0.05633804  0.00000000       0.000
   0.00000000  0.05985916  0.00000000       0.000
   0.00000000  0.06338028  0.00000000       0.000
   0.00000000  0.06690140  0.00000000       0.000
   0.00000000  0.07042254  0.00000000       0.000
   0.00000000  0.07394366  0.00000000       0.000
   0.00000000  0.07746478  0.00000000       0.000
   0.00000000  0.08098592  0.00000000       0.000
   0.00000000  0.08450704  0.00000000       0.000
   0.00000000  0.08802818  0.00000000       0.000
   0.00000000  0.09154930  0.00000000       0.000
   0.00000000  0.09507042  0.00000000       0.000
   0.00000000  0.09859156  0.00000000       0.000
   0.00000000  0.10211268  0.00000000       0.000
   0.00000000  0.10563382  0.00000000       0.000
   0.00000000  0.10915494  0.00000000       0.000
   0.00000000  0.11267606  0.00000000       0.000
   0.00000000  0.11619720  0.00000000       0.000
   0.00000000  0.11971832  0.00000000       0.000
   0.00000000  0.12323944  0.00000000       0.000
   0.00000000  0.12676058  0.00000000       0.000
   0.00000000  0.13028170  0.00000000       0.000
   0.00000000  0.13380282  0.00000000       0.000
   0.00000000  0.13732394  0.00000000       0.000
   0.00000000  0.14084508  0.00000000       0.000
   0.00000000  0.14436620  0.00000000       0.000
   0.00000000  0.14788734  0.00000000       0.000
   0.00000000  0.15140846  0.00000000       0.000
   0.00000000  0.15492958  0.00000000       0.000
   0.00000000  0.15845070  0.00000000       0.000
   0.00000000  0.16197184  0.00000000       0.000
   0.00000000  0.16549296  0.00000000       0.000
   0.00000000  0.16901410  0.00000000       0.000
   0.00000000  0.17253522  0.00000000       0.000
   0.00000000  0.17605634  0.00000000       0.000
   0.00000000  0.17957748  0.00000000       0.000
   0.00000000  0.18309860  0.00000000       0.000
   0.00000000  0.18661972  0.00000000       0.000
   0.00000000  0.19014086  0.00000000       0.000
   0.00000000  0.19366198  0.00000000       0.000
   0.00000000  0.19718310  0.00000000       0.000
   0.00000000  0.20070422  0.00000000       0.000
   0.00000000  0.20422536  0.00000000       0.000
   0.00000000  0.20774650  0.00000000       0.000
   0.00000000  0.21126762  0.00000000       0.000
   0.00000000  0.21478874  0.00000000       0.000
   0.00000000  0.21830986  0.00000000       0.000
   0.00000000  0.22183100  0.00000000       0.000
   0.00000000  0.22535212  0.00000000       0.000
   0.00000000  0.22887324  0.00000000       0.000
   0.00000000  0.23239438  0.00000000       0.000
   0.00000000  0.23591552  0.00000000       0.000
   0.00000000  0.23943662  0.00000000       0.000
   0.00000000  0.24295774  0.00000000       0.000
   0.00000000  0.24647888  0.00000000       0.000
   0.00000000  0.25000002  0.00000000       0.000
   0.00000000  0.25352114  0.00000000       0.000
   0.00000000  0.25704226  0.00000000       0.000
   0.00000000  0.26056340  0.00000000       0.000
   0.00000000  0.26408452  0.00000000       0.000
   0.00000000  0.26760564  0.00000000       0.000
   0.00000000  0.27112674  0.00000000       0.000
   0.00000000  0.27464790  0.00000000       0.000
   0.00000000  0.27816904  0.00000000       0.000
   0.00000000  0.28169016  0.00000000       0.000
   0.00000000  0.28521126  0.00000000       0.000
   0.00000000  0.28873240  0.00000000       0.000
   0.00000000  0.29225356  0.00000000       0.000
   0.00000000  0.29577466  0.00000000       0.000
   0.00000000  0.29929578  0.00000000       0.000
   0.00000000  0.30281692  0.00000000       0.000
   0.00000000  0.30633804  0.00000000       0.000
   0.00000000  0.30985916  0.00000000       0.000
   0.00000000  0.31338028  0.00000000       0.000
   0.00000000  0.31690142  0.00000000       0.000
   0.00000000  0.32042256  0.00000000       0.000
   0.00000000  0.32394368  0.00000000       0.000
   0.00000000  0.32746478  0.00000000       0.000
   0.00000000  0.33098594  0.00000000       0.000
   0.00000000  0.33450708  0.00000000       0.000
   0.00000000  0.33802820  0.00000000       0.000
   0.00000000  0.34154930  0.00000000       0.000
   0.00000000  0.34507046  0.00000000       0.000
   0.00000000  0.34859156  0.00000000       0.000
   0.00000000  0.35211268  0.00000000       0.000
   0.00000000  0.35563380  0.00000000       0.000
   0.00000000  0.35915496  0.00000000       0.000
   0.00000000  0.36267608  0.00000000       0.000
   0.00000000  0.36619720  0.00000000       0.000
   0.00000000  0.36971832  0.00000000       0.000
   0.00000000  0.37323942  0.00000000       0.000
   0.00000000  0.37676060  0.00000000       0.000
   0.00000000  0.38028172  0.00000000       0.000
   0.00000000  0.38380284  0.00000000       0.000
   0.00000000  0.38732398  0.00000000       0.000
   0.00000000  0.39084510  0.00000000       0.000
   0.00000000  0.39436620  0.00000000       0.000
   0.00000000  0.39788732  0.00000000       0.000
   0.00000000  0.40140844  0.00000000       0.000
   0.00000000  0.40492960  0.00000000       0.000
   0.00000000  0.40845072  0.00000000       0.000
   0.00000000  0.41197184  0.00000000       0.000
   0.00000000  0.41549298  0.00000000       0.000
   0.00000000  0.41901412  0.00000000       0.000
   0.00000000  0.42253524  0.00000000       0.000
   0.00000000  0.42605636  0.00000000       0.000
   0.00000000  0.42957746  0.00000000       0.000
   0.00000000  0.43309862  0.00000000       0.000
   0.00000000  0.43661972  0.00000000       0.000
   0.00000000  0.44014084  0.00000000       0.000
   0.00000000  0.44366202  0.00000000       0.000
   0.00000000  0.44718314  0.00000000       0.000
   0.00000000  0.45070424  0.00000000       0.000
   0.00000000  0.45422536  0.00000000       0.000
   0.00000000  0.45774648  0.00000000       0.000
   0.00000000  0.46126766  0.00000000       0.000
   0.00000000  0.46478876  0.00000000       0.000
   0.00000000  0.46830988  0.00000000       0.000
   0.00000000  0.47183102  0.00000000       0.000
   0.00000000  0.47535214  0.00000000       0.000
   0.00000000  0.47887326  0.00000000       0.000
   0.00000000  0.48239436  0.00000000       0.000
   0.00000000  0.48591548  0.00000000       0.000
   0.00000000  0.48943666  0.00000000       0.000
   0.00000000  0.49295778  0.00000000       0.000
   0.00000000  0.49647888  0.00000000       0.000
   0.00000000  0.50000006  0.00000000       0.000
   0.00000000  0.50352114  0.00000000       0.000
   0.00000000  0.50704228  0.00000000       0.000
   0.00000000  0.51056338  0.00000000       0.000
   0.00000000  0.51408452  0.00000000       0.000
   0.00000000  0.51760566  0.00000000       0.000
   0.00000000  0.52112680  0.00000000       0.000
   0.00000000  0.52464790  0.00000000       0.000
   0.00000000  0.52816904  0.00000000       0.000
   0.00000000  0.53169018  0.00000000       0.000
   0.00000000  0.53521126  0.00000000       0.000
   0.00000000  0.53873240  0.00000000       0.000
   0.00000000  0.54225350  0.00000000       0.000
   0.00000000  0.54577470  0.00000000       0.000
   0.00000000  0.54929578  0.00000000       0.000
   0.00000000  0.55281692  0.00000000       0.000
   0.00000000  0.55633808  0.00000000       0.000
   0.00000000  0.55985922  0.00000000       0.000
   0.00000000  0.56338030  0.00000000       0.000
   0.00000000  0.56690144  0.00000000       0.000
   0.00000000  0.57042254  0.00000000       0.000
   0.00000000  0.57394368  0.00000000       0.000
   0.00000000  0.57746482  0.00000000       0.000
   0.00000000  0.58098590  0.00000000       0.000
   0.00000000  0.58450710  0.00000000       0.000
   0.00000000  0.58802820  0.00000000       0.000
   0.00000000  0.59154934  0.00000000       0.000
   0.00000000  0.59507042  0.00000000       0.000
   0.00000000  0.59859156  0.00000000       0.000
   0.00000000  0.60211272  0.00000000       0.000
   0.00000000  0.60563386  0.00000000       0.000
   0.00000000  0.60915494  0.00000000       0.000
   0.00000000  0.61267608  0.00000000       0.000
   0.00000000  0.61619722  0.00000000       0.000
   0.00000000  0.61971832  0.00000000       0.000
   0.00000000  0.62323946  0.00000000       0.000
   0.00000000  0.62676054  0.00000000       0.000
   0.00000000  0.63028174  0.00000000       0.000
   0.00000000  0.63380284  0.00000000       0.000
   0.00000000  0.63732398  0.00000000       0.000
   0.00000000  0.64084512  0.00000000       0.000
   0.00000000  0.64436626  0.00000000       0.000
   0.00000000  0.64788734  0.00000000       0.000
   0.00000000  0.65140850  0.00000000       0.000
   0.00000000  0.65492958  0.00000000       0.000
   0.00000000  0.65845072  0.00000000       0.000
   0.00000000  0.66197186  0.00000000       0.000
   0.00000000  0.66549296  0.00000000       0.000
   0.00000000  0.66901416  0.00000000       0.000
   0.00000000  0.67253524  0.00000000       0.000
   0.00000000  0.67605638  0.00000000       0.000
   0.00000000  0.67957746  0.00000000       0.000
   0.00000000  0.68309862  0.00000000       0.000
   0.00000000  0.68661976  0.00000000       0.000
   0.00000000  0.69014090  0.00000000       0.000
   0.00000000  0.69366198  0.00000000       0.000
   0.00000000  0.69718314  0.00000000       0.000
   0.00000000  0.70070428  0.00000000       0.000
   0.00000000  0.70422536  0.00000000       0.000
   0.00000000  0.70774650  0.00000000       0.000
   0.00000000  0.71126760  0.00000000       0.000
   0.00000000  0.71478874  0.00000000       0.000
   0.00000000  0.71830994  0.00000000       0.000
   0.00000000  0.72183102  0.00000000       0.000
   0.00000000  0.72535216  0.00000000       0.000
   0.00000000  0.72887326  0.00000000       0.000
   0.00000000  0.73239440  0.00000000       0.000
   0.00000000  0.73591554  0.00000000       0.000
   0.00000000  0.73943662  0.00000000       0.000
   0.00000000  0.74295778  0.00000000       0.000
   0.00000000  0.74647886  0.00000000       0.000
   0.00000000  0.75000006  0.00000000       0.000
   0.00000000  0.75352120  0.00000000       0.000
   0.00000000  0.75704228  0.00000000       0.000
   0.00000000  0.76056344  0.00000000       0.000
   0.00000000  0.76408452  0.00000000       0.000
   0.00000000  0.76760566  0.00000000       0.000
   0.00000000  0.77112674  0.00000000       0.000
   0.00000000  0.77464796  0.00000000       0.000
   0.00000000  0.77816910  0.00000000       0.000
   0.00000000  0.78169018  0.00000000       0.000
   0.00000000  0.78521132  0.00000000       0.000
   0.00000000  0.78873240  0.00000000       0.000
   0.00000000  0.79225356  0.00000000       0.000
   0.00000000  0.79577464  0.00000000       0.000
   0.00000000  0.79929578  0.00000000       0.000
   0.00000000  0.80281686  0.00000000       0.000
   0.00000000  0.80633808  0.00000000       0.000
   0.00000000  0.80985922  0.00000000       0.000
   0.00000000  0.81338030  0.00000000       0.000
   0.00000000  0.81690144  0.00000000       0.000
   0.00000000  0.82042254  0.00000000       0.000
   0.00000000  0.82394368  0.00000000       0.000
   0.00000000  0.82746482  0.00000000       0.000
   0.00000000  0.83098596  0.00000000       0.000
   0.00000000  0.83450710  0.00000000       0.000
   0.00000000  0.83802826  0.00000000       0.000
   0.00000000  0.84154934  0.00000000       0.000
   0.00000000  0.84507048  0.00000000       0.000
   0.00000000  0.84859156  0.00000000       0.000
   0.00000000  0.85211272  0.00000000       0.000
   0.00000000  0.85563380  0.00000000       0.000
   0.00000000  0.85915494  0.00000000       0.000
   0.00000000  0.86267614  0.00000000       0.000
   0.00000000  0.86619722  0.00000000       0.000
   0.00000000  0.86971838  0.00000000       0.000
   0.00000000  0.87323946  0.00000000       0.000
   0.00000000  0.87676060  0.00000000       0.000
   0.00000000  0.88028168  0.00000000       0.000
   0.00000000  0.88380284  0.00000000       0.000
   0.00000000  0.88732404  0.00000000       0.000
   0.00000000  0.89084512  0.00000000       0.000
   0.00000000  0.89436626  0.00000000       0.000
   0.00000000  0.89788734  0.00000000       0.000
   0.00000000  0.90140850  0.00000000       0.000
   0.00000000  0.90492958  0.00000000       0.000
   0.00000000  0.90845072  0.00000000       0.000
   0.00000000  0.91197186  0.00000000       0.000
   0.00000000  0.91549296  0.00000000       0.000
   0.00000000  0.91901416  0.00000000       0.000
   0.00000000  0.92253530  0.00000000       0.000
   0.00000000  0.92605638  0.00000000       0.000
   0.00000000  0.92957752  0.00000000       0.000
   0.00000000  0.93309862  0.00000000       0.000
   0.00000000  0.93661976  0.00000000       0.000
   0.00000000  0.94014084  0.00000000       0.000
   0.00000000  0.94366204  0.00000000       0.000
   0.00000000  0.94718320  0.00000000       0.000
   0.00000000  0.95070428  0.00000000       0.000
   0.00000000  0.95422542  0.00000000       0.000
   0.00000000  0.95774650  0.00000000       0.000
   0.00000000  0.96126766  0.00000000       0.000
   0.00000000  0.96478874  0.00000000       0.000
   0.00000000  0.96830988  0.00000000       0.000
   0.00000000  0.97183096  0.00000000       0.000
   0.00000000  0.97535216  0.00000000       0.000
   0.00000000  0.97887332  0.00000000       0.000
   0.00000000  0.98239440  0.00000000       0.000
   0.00000000  0.98591554  0.00000000       0.000
   0.00000000  0.98943662  0.00000000       0.000
   0.00000000  0.99295778  0.00000000       0.000
   0.00000000  0.99647886  0.00000000       0.000
   0.00000000  1.00000012  0.00000000       0.000
   0.00000004  0.99866308 -0.00401066       0.000
   0.00000000  0.99732620 -0.00802140       0.000
   0.00000002  0.99598930 -0.01203206       0.000
  -0.00000002  0.99465242 -0.01604280       0.000
   0.00000002  0.99331550 -0.02005346       0.000
  -0.00000003  0.99197861 -0.02406421       0.000
   0.00000000  0.99064172 -0.02807486       0.000
   0.00000004  0.98930480 -0.03208552       0.000
  -0.00000001  0.98796791 -0.03609627       0.000
   0.00000004  0.98663100 -0.04010692       0.000
  -0.00000003  0.98529413 -0.04411767       0.000
   0.00000002  0.98395722 -0.04812832       0.000
  -0.00000003  0.98262033 -0.05213907       0.000
   0.00000001  0.98128341 -0.05614973       0.000
  -0.00000004  0.97994654 -0.06016048       0.000
  -0.00000001  0.97860963 -0.06417113       0.000
   0.00000003  0.97727271 -0.06818179       0.000
  -0.00000001  0.97593583 -0.07219253       0.000
   0.00000002  0.97459892 -0.07620320       0.000
  -0.00000003  0.97326205 -0.08021393       0.000
   0.00000001  0.97192513 -0.08422459       0.000
  -0.00000004  0.97058824 -0.08823534       0.000
   0.00000000  0.96925134 -0.09224600       0.000
   0.00000004  0.96791442 -0.09625666       0.000
  -0.00000002  0.96657754 -0.10026740       0.000
   0.00000003  0.96524063 -0.10427805       0.000
  -0.00000002  0.96390374 -0.10828880       0.000
   0.00000002  0.96256684 -0.11229946       0.000
  -0.00000004  0.96122996 -0.11631020       0.000
   0.00000000  0.95989304 -0.12032086       0.000
   0.00000005  0.95855613 -0.12433151       0.000
  -0.00000001  0.95721925 -0.12834227       0.000
   0.00000003  0.95588235 -0.13235291       0.000
  -0.00000001  0.95454545 -0.13636367       0.000
   0.00000002  0.95320854 -0.14037432       0.000
  -0.00000004  0.95187168 -0.14438506       0.000
   0.00000001  0.95053475 -0.14839573       0.000
   0.00000004  0.94919784 -0.15240638       0.000
  -0.00000000  0.94786096 -0.15641712       0.000
   0.00000002  0.94652406 -0.16042778       0.000
  -0.00000001  0.94518717 -0.16443853       0.000
   0.00000002  0.94385026 -0.16844918       0.000
  -0.00000003  0.94251337 -0.17245993       0.000
   0.00000001  0.94117647 -0.17647059       0.000
   0.00000004  0.93983956 -0.18048124       0.000
   0.00000000  0.93850266 -0.18449200       0.000
   0.00000004  0.93716576 -0.18850264       0.000
  -0.00000001  0.93582887 -0.19251341       0.000
   0.00000002  0.93449198 -0.19652404       0.000
  -0.00000003  0.93315509 -0.20053479       0.000
   0.00000001  0.93181817 -0.20454545       0.000
  -0.00000003  0.93048129 -0.20855619       0.000
   0.00000000  0.92914438 -0.21256686       0.000
   0.00000003  0.92780747 -0.21657751       0.000
   0.00000000  0.92647058 -0.22058826       0.000
   0.00000003  0.92513367 -0.22459891       0.000
  -0.00000002  0.92379680 -0.22860966       0.000
   0.00000001  0.92245989 -0.23262031       0.000
   0.00000005  0.92112297 -0.23663097       0.000
   0.00000001  0.91978609 -0.24064171       0.000
   0.00000004  0.91844918 -0.24465238       0.000
   0.00000000  0.91711230 -0.24866312       0.000
   0.00000003  0.91577539 -0.25267377       0.000
  -0.00000001  0.91443849 -0.25668453       0.000
   0.00000001  0.91310161 -0.26069517       0.000
  -0.00000003  0.91176471 -0.26470593       0.000
   0.00000001  0.91042779 -0.26871659       0.000
  -0.00000002  0.90909090 -0.27272734       0.000
  -0.00000002  0.90775402 -0.27673798       0.000
   0.00000003  0.90641711 -0.28074863       0.000
  -0.00000001  0.90508021 -0.28475939       0.000
   0.00000001  0.90374331 -0.28877003       0.000
  -0.00000003  0.90240643 -0.29278079       0.000
   0.00000001  0.90106951 -0.29679145       0.000
  -0.00000003  0.89973261 -0.30080221       0.000
   0.00000000  0.89839572 -0.30481284       0.000
   0.00000004  0.89705880 -0.30882352       0.000
  -0.00000001  0.89572193 -0.31283425       0.000
   0.00000002  0.89438502 -0.31684490       0.000
  -0.00000003  0.89304813 -0.32085565       0.000
   0.00000002  0.89171122 -0.32486630       0.000
  -0.00000003  0.89037433 -0.32887707       0.000
   0.00000000  0.88903744 -0.33288770       0.000
   0.00000005  0.88770051 -0.33689837       0.000
   0.00000000  0.88636362 -0.34090912       0.000
   0.00000003  0.88502673 -0.34491977       0.000
  -0.00000003  0.88368985 -0.34893051       0.000
   0.00000001  0.88235293 -0.35294117       0.000
  -0.00000002  0.88101604 -0.35695192       0.000
  -0.00000001  0.87967915 -0.36096257       0.000
   0.00000005  0.87834223 -0.36497323       0.000
  -0.00000000  0.87700534 -0.36898398       0.000
   0.00000003  0.87566843 -0.37299463       0.000
  -0.00000002  0.87433156 -0.37700538       0.000
   0.00000003  0.87299463 -0.38101605       0.000
  -0.00000002  0.87165774 -0.38502680       0.000
   0.00000001  0.87032085 -0.38903743       0.000
   0.00000004  0.86898394 -0.39304810       0.000
   0.00000000  0.86764706 -0.39705884       0.000
  -0.00000006  0.86631018 -0.40106958       0.000
  -0.00000002  0.86497326 -0.40508024       0.000
   0.00000003  0.86363635 -0.40909091       0.000
  -0.00000002  0.86229946 -0.41310166       0.000
   0.00000001  0.86096255 -0.41711231       0.000
   0.00000006  0.85962564 -0.42112296       0.000
  -0.00000001  0.85828877 -0.42513371       0.000
  -0.00000006  0.85695190 -0.42914444       0.000
  -0.00000002  0.85561498 -0.43315510       0.000
   0.00000003  0.85427805 -0.43716577       0.000
  -0.00000001  0.85294117 -0.44117651       0.000
   0.00000001  0.85160427 -0.44518717       0.000
   0.00000006  0.85026736 -0.44919782       0.000
   0.00000002  0.84893046 -0.45320858       0.000
   0.00000005  0.84759355 -0.45721923       0.000
  -0.00000001  0.84625669 -0.46122997       0.000
   0.00000003  0.84491977 -0.46524063       0.000
  -0.00000002  0.84358288 -0.46925138       0.000
   0.00000002  0.84224598 -0.47326202       0.000
  -0.00000004  0.84090910 -0.47727278       0.000
   0.00000002  0.83957218 -0.48128344       0.000
  -0.00000004  0.83823530 -0.48529418       0.000
   0.00000000  0.83689838 -0.48930484       0.000
   0.00000004  0.83556148 -0.49331550       0.000
  -0.00000002  0.83422460 -0.49732624       0.000
   0.00000003  0.83288767 -0.50133691       0.000
   0.00000006  0.83155078 -0.50534754       0.000
  -0.00000001  0.83021391 -0.50935829       0.000
  -0.00000003  0.82887701 -0.51336905       0.000
   0.00000000  0.82754010 -0.51737970       0.000
   0.00000003  0.82620319 -0.52139035       0.000
   0.00000000  0.82486630 -0.52540112       0.000
   0.00000003  0.82352939 -0.52941177       0.000
   0.00000006  0.82219248 -0.53342242       0.000
   0.00000003  0.82085559 -0.53743317       0.000
  -0.00000003  0.81951871 -0.54144391       0.000
   0.00000003  0.81818179 -0.54545459       0.000
   0.00000003  0.81684491 -0.54946521       0.000
  -0.00000003  0.81550803 -0.55347595       0.000
   0.00000004  0.81417110 -0.55748662       0.000
  -0.00000003  0.81283423 -0.56149737       0.000
   0.00000003  0.81149731 -0.56550803       0.000
  -0.00000003  0.81016043 -0.56951877       0.000
   0.00000003  0.80882349 -0.57352945       0.000
   0.00000003  0.80748663 -0.57754007       0.000
   0.00000000  0.80614972 -0.58155084       0.000
  -0.00000006  0.80481284 -0.58556158       0.000
  -0.00000002  0.80347594 -0.58957222       0.000
   0.00000002  0.80213902 -0.59358290       0.000
  -0.00000003  0.80080215 -0.59759363       0.000
   0.00000003  0.79946521 -0.60160431       0.000
   0.00000003  0.79812833 -0.60561493       0.000
   0.00000000  0.79679144 -0.60962570       0.000
   0.00000003  0.79545453 -0.61363635       0.000
   0.00000000  0.79411762 -0.61764712       0.000
   0.00000003  0.79278073 -0.62165775       0.000
  -0.00000004  0.79144386 -0.62566850       0.000
   0.00000003  0.79010693 -0.62967917       0.000
   0.00000003  0.78877005 -0.63368979       0.000
   0.00000000  0.78743314 -0.63770056       0.000
   0.00000003  0.78609625 -0.64171121       0.000
   0.00000000  0.78475934 -0.64572198       0.000
   0.00000003  0.78342245 -0.64973261       0.000
  -0.00000000  0.78208554 -0.65374338       0.000
   0.00000003  0.78074863 -0.65775403       0.000
  -0.00000006  0.77941180 -0.66176474       0.000
   0.00000000  0.77807486 -0.66577542       0.000
   0.00000003  0.77673795 -0.66978607       0.000
   0.00000001  0.77540105 -0.67379683       0.000
   0.00000002  0.77406416 -0.67780748       0.000
   0.00000000  0.77272726 -0.68181824       0.000
   0.00000003  0.77139035 -0.68582889       0.000
   0.00000006  0.77005344 -0.68983954       0.000
   0.00000000  0.76871658 -0.69385028       0.000
  -0.00000006  0.76737970 -0.69786102       0.000
   0.00000000  0.76604276 -0.70187170       0.000
   0.00000004  0.76470586 -0.70588234       0.000
  -0.00000001  0.76336897 -0.70989311       0.000
   0.00000003  0.76203207 -0.71390375       0.000
   0.00000006  0.76069516 -0.71791440       0.000
   0.00000000  0.75935828 -0.72192514       0.000
  -0.00000003  0.75802139 -0.72593591       0.000
   0.00000000  0.75668448 -0.72994656       0.000
   0.00000003  0.75534757 -0.73395721       0.000
   0.00000000  0.75401068 -0.73796796       0.000
   0.00000002  0.75267378 -0.74197862       0.000
  -0.00000003  0.75133691 -0.74598935       0.000
   0.00000000  0.75000000 -0.75000000       0.000
   0.00000000  0.74796194 -0.74796194       0.000
   0.00000000  0.74592394 -0.74592394       0.000
   0.00000001  0.74388587 -0.74388587       0.000
   0.00000001  0.74184781 -0.74184781       0.000
   0.00000001  0.73980981 -0.73980981       0.000
  -0.00000001  0.73777175 -0.73777175       0.000
  -0.00000001  0.73573369 -0.73573369       0.000
  -0.00000001  0.73369563 -0.73369563       0.000
   0.00000000  0.73165762 -0.73165762       0.000
   0.00000000  0.72961956 -0.72961956       0.000
   0.00000000  0.72758150 -0.72758150       0.000
   0.00000000  0.72554350 -0.72554350       0.000
   0.00000000  0.72350544 -0.72350544       0.000
   0.00000000  0.72146738 -0.72146738       0.000
   0.00000001  0.71942937 -0.71942937       0.000
   0.00000001  0.71739131 -0.71739131       0.000
   0.00000001  0.71535325 -0.71535325       0.000
  -0.00000001  0.71331525 -0.71331525       0.000
  -0.00000001  0.71127719 -0.71127719       0.000
  -0.00000001  0.70923913 -0.70923913       0.000
   0.00000000  0.70720106 -0.70720106       0.000
   0.00000000  0.70516306 -0.70516306       0.000
   0.00000000  0.70312500 -0.70312500       0.000
   0.00000000  0.70108694 -0.70108694       0.000
   0.00000000  0.69904894 -0.69904894       0.000
   0.00000001  0.69701087 -0.69701087       0.000
   0.00000001  0.69497281 -0.69497281       0.000
   0.00000001  0.69293481 -0.69293481       0.000
  -0.00000001  0.69089675 -0.69089675       0.000
  -0.00000001  0.68885869 -0.68885869       0.000
  -0.00000001  0.68682063 -0.68682063       0.000
   0.00000000  0.68478262 -0.68478262       0.000
   0.00000000  0.68274456 -0.68274456       0.000
   0.00000000  0.68070650 -0.68070650       0.000
   0.00000000  0.67866850 -0.67866850       0.000
   0.00000000  0.67663044 -0.67663044       0.000
   0.00000000  0.67459238 -0.67459238       0.000
   0.00000001  0.67255437 -0.67255437       0.000
   0.00000001  0.67051631 -0.67051631       0.000
   0.00000001  0.66847825 -0.66847825       0.000
  -0.00000001  0.66644025 -0.66644025       0.000
  -0.00000001  0.66440219 -0.66440219       0.000
  -0.00000001  0.66236413 -0.66236413       0.000
   0.00000000  0.66032606 -0.66032606       0.000
   0.00000000  0.65828806 -0.65828806       0.000
   0.00000000  0.65625000 -0.65625000       0.000
   0.00000000  0.65421194 -0.65421194       0.000
   0.00000000  0.65217394 -0.65217394       0.000
   0.00000001  0.65013587 -0.65013587       0.000
   0.00000001  0.64809781 -0.64809781       0.000
   0.00000001  0.64605981 -0.64605981       0.000
  -0.00000001  0.64402175 -0.64402175       0.000
  -0.00000001  0.64198369 -0.64198369       0.000
  -0.00000001  0.63994563 -0.63994563       0.000
   0.00000000  0.63790762 -0.63790762       0.000
   0.00000000  0.63586956 -0.63586956       0.000
   0.00000000  0.63383150 -0.63383150       0.000
   0.00000000  0.63179350 -0.63179350       0.000
   0.00000000  0.62975544 -0.62975544       0.000
   0.00000000  0.62771738 -0.62771738       0.000
   0.00000001  0.62567937 -0.62567937       0.000
   0.00000001  0.62364131 -0.62364131       0.000
   0.00000001  0.62160325 -0.62160325       0.000
  -0.00000001  0.61956525 -0.61956525       0.000
  -0.00000001  0.61752719 -0.61752719       0.000
  -0.00000001  0.61548913 -0.61548913       0.000
   0.00000000  0.61345112 -0.61345112       0.000
   0.00000000  0.61141306 -0.61141306       0.000
   0.00000000  0.60937500 -0.60937500       0.000
   0.00000000  0.60733694 -0.60733694       0.000
   0.00000000  0.60529888 -0.60529888       0.000
   0.00000001  0.60326087 -0.60326087       0.000
   0.00000001  0.60122281 -0.60122281       0.000
   0.00000001  0.59918475 -0.59918475       0.000
  -0.00000001  0.59714675 -0.59714675       0.000
  -0.00000001  0.59510869 -0.59510869       0.000
  -0.00000001  0.59307063 -0.59307063       0.000
   0.00000000  0.59103262 -0.59103262       0.000
   0.00000000  0.58899456 -0.58899456       0.000
   0.00000000  0.58695650 -0.58695650       0.000
   0.00000000  0.58491850 -0.58491850       0.000
   0.00000000  0.58288044 -0.58288044       0.000
   0.00000000  0.58084238 -0.58084238       0.000
   0.00000001  0.57880437 -0.57880437       0.000
   0.00000001  0.57676631 -0.57676631       0.000
   0.00000001  0.57472825 -0.57472825       0.000
  -0.00000001  0.57269025 -0.57269025       0.000
  -0.00000001  0.57065219 -0.57065219       0.000
  -0.00000001  0.56861413 -0.56861413       0.000
   0.00000000  0.56657606 -0.56657606       0.000
   0.00000000  0.56453806 -0.56453806       0.000
   0.00000000  0.56250000 -0.56250000       0.000
   0.00000000  0.56046194 -0.56046194       0.000
   0.00000000  0.55842388 -0.55842388       0.000
   0.00000001  0.55638587 -0.55638587       0.000
   0.00000001  0.55434787 -0.55434787       0.000
   0.00000001  0.55230981 -0.55230981       0.000
  -0.00000001  0.55027175 -0.55027175       0.000
  -0.00000001  0.54823369 -0.54823369       0.000
  -0.00000001  0.54619563 -0.54619563       0.000
   0.00000000  0.54415762 -0.54415762       0.000
   0.00000000  0.54211956 -0.54211956       0.000
   0.00000000  0.54008150 -0.54008150       0.000
   0.00000000  0.53804350 -0.53804350       0.000
   0.00000000  0.53600544 -0.53600544       0.000
   0.00000000  0.53396738 -0.53396738       0.000
   0.00000001  0.53192937 -0.53192937       0.000
   0.00000001  0.52989131 -0.52989131       0.000
   0.00000001  0.52785325 -0.52785325       0.000
  -0.00000001  0.52581525 -0.52581525       0.000
  -0.00000001  0.52377719 -0.52377719       0.000
  -0.00000001  0.52173913 -0.52173913       0.000
   0.00000000  0.51970112 -0.51970112       0.000
   0.00000000  0.51766306 -0.51766306       0.000
   0.00000000  0.51562500 -0.51562500       0.000
   0.00000000  0.51358700 -0.51358700       0.000
   0.00000000  0.51154894 -0.51154894       0.000
   0.00000001  0.50951087 -0.50951087       0.000
   0.00000001  0.50747281 -0.50747281       0.000
   0.00000001  0.50543475 -0.50543475       0.000
  -0.00000001  0.50339675 -0.50339675       0.000
  -0.00000001  0.50135869 -0.50135869       0.000
   0.00000000  0.49932066 -0.49932066       0.000
   0.00000000  0.49728262 -0.49728262       0.000
   0.00000000  0.49524456 -0.49524456       0.000
   0.00000001  0.49320653 -0.49320653       0.000
  -0.00000001  0.49116847 -0.49116847       0.000
   0.00000000  0.48913044 -0.48913044       0.000
  -0.00000001  0.48709241 -0.48709241       0.000
   0.00000000  0.48505434 -0.48505434       0.000
   0.00000001  0.48301631 -0.48301631       0.000
   0.00000001  0.48097825 -0.48097825       0.000
   0.00000000  0.47894022 -0.47894022       0.000
  -0.00000001  0.47690219 -0.47690219       0.000
  -0.00000001  0.47486413 -0.47486413       0.000
   0.00000001  0.47282609 -0.47282609       0.000
   0.00000001  0.47078803 -0.47078803       0.000
   0.00000000  0.46875000 -0.46875000       0.000
  -0.00000001  0.46671197 -0.46671197       0.000
  -0.00000001  0.46467391 -0.46467391       0.000
   0.00000001  0.46263587 -0.46263587       0.000
   0.00000001  0.46059781 -0.46059781       0.000
   0.00000000  0.45855978 -0.45855978       0.000
  -0.00000001  0.45652175 -0.45652175       0.000
  -0.00000001  0.45448369 -0.45448369       0.000
   0.00000000  0.45244566 -0.45244566       0.000
   0.00000001  0.45040759 -0.45040759       0.000
   0.00000000  0.44836956 -0.44836956       0.000
   0.00000001  0.44633153 -0.44633153       0.000
  -0.00000001  0.44429347 -0.44429347       0.000
   0.00000000  0.44225544 -0.44225544       0.000
   0.00000000  0.44021738 -0.44021738       0.000
   0.00000000  0.43817934 -0.43817934       0.000
   0.00000001  0.43614131 -0.43614131       0.000
   0.00000001  0.43410325 -0.43410325       0.000
   0.00000000  0.43206522 -0.43206522       0.000
   0.00000000  0.43002716 -0.43002716       0.000
  -0.00000001  0.42798913 -0.42798913       0.000
   0.00000001  0.42595109 -0.42595109       0.000
   0.00000001  0.42391303 -0.42391303       0.000
   0.00000000  0.42187500 -0.42187500       0.000
   0.00000000  0.41983694 -0.41983694       0.000
  -0.00000001  0.41779891 -0.41779891       0.000
   0.00000001  0.41576087 -0.41576087       0.000
   0.00000001  0.41372281 -0.41372281       0.000
   0.00000000  0.41168478 -0.41168478       0.000
  -0.00000001  0.40964675 -0.40964675       0.000
  -0.00000001  0.40760869 -0.40760869       0.000
   0.00000000  0.40557066 -0.40557066       0.000
   0.00000001  0.40353259 -0.40353259       0.000
   0.00000000  0.40149456 -0.40149456       0.000
   0.00000001  0.39945653 -0.39945653       0.000
  -0.00000001  0.39741847 -0.39741847       0.000
   0.00000000  0.39538044 -0.39538044       0.000
   0.00000000  0.39334238 -0.39334238       0.000
   0.00000000  0.39130434 -0.39130434       0.000
   0.00000001  0.38926631 -0.38926631       0.000
   0.00000001  0.38722825 -0.38722825       0.000
   0.00000000  0.38519022 -0.38519022       0.000
   0.00000000  0.38315216 -0.38315216       0.000
  -0.00000001  0.38111413 -0.38111413       0.000
   0.00000001  0.37907609 -0.37907609       0.000
   0.00000001  0.37703803 -0.37703803       0.000
   0.00000000  0.37500000 -0.37500000       0.000
   0.00000000  0.37296194 -0.37296194       0.000
  -0.00000001  0.37092391 -0.37092391       0.000
   0.00000001  0.36888587 -0.36888587       0.000
   0.00000001  0.36684781 -0.36684781       0.000
   0.00000000  0.36480978 -0.36480978       0.000
   0.00000000  0.36277172 -0.36277172       0.000
  -0.00000001  0.36073369 -0.36073369       0.000
  -0.00000001  0.35869569 -0.35869569       0.000
   0.00000000  0.35665762 -0.35665762       0.000
   0.00000001  0.35461959 -0.35461959       0.000
   0.00000001  0.35258153 -0.35258153       0.000
   0.00000000  0.35054350 -0.35054350       0.000
  -0.00000001  0.34850547 -0.34850547       0.000
  -0.00000001  0.34646741 -0.34646741       0.000
   0.00000001  0.34442937 -0.34442937       0.000
   0.00000001  0.34239131 -0.34239131       0.000
   0.00000000  0.34035328 -0.34035328       0.000
  -0.00000001  0.33831525 -0.33831525       0.000
  -0.00000001  0.33627719 -0.33627719       0.000
   0.00000000  0.33423916 -0.33423916       0.000
   0.00000001  0.33220109 -0.33220109       0.000
   0.00000000  0.33016306 -0.33016306       0.000
  -0.00000001  0.32812503 -0.32812503       0.000
  -0.00000001  0.32608697 -0.32608697       0.000
   0.00000000  0.32404894 -0.32404894       0.000
   0.00000001  0.32201087 -0.32201087       0.000
   0.00000000  0.31997284 -0.31997284       0.000
   0.00000001  0.31793481 -0.31793481       0.000
  -0.00000001  0.31589675 -0.31589675       0.000
   0.00000000  0.31385872 -0.31385872       0.000
   0.00000000  0.31182066 -0.31182066       0.000
   0.00000000  0.30978262 -0.30978262       0.000
   0.00000001  0.30774459 -0.30774459       0.000
   0.00000001  0.30570653 -0.30570653       0.000
   0.00000000  0.30366850 -0.30366850       0.000
   0.00000000  0.30163044 -0.30163044       0.000
  -0.00000001  0.29959241 -0.29959241       0.000
   0.00000001  0.29755437 -0.29755437       0.000
   0.00000001  0.29551631 -0.29551631       0.000
   0.00000000  0.29347828 -0.29347828       0.000
   0.00000000  0.29144022 -0.29144022       0.000
  -0.00000001  0.28940219 -0.28940219       0.000
   0.00000000  0.28736416 -0.28736416       0.000
   0.00000001  0.28532609 -0.28532609       0.000
   0.00000000  0.28328806 -0.28328806       0.000
   0.00000000  0.28125000 -0.28125000       0.000
  -0.00000001  0.27921197 -0.27921197       0.000
   0.00000000  0.27717394 -0.27717394       0.000
   0.00000001  0.27513587 -0.27513587       0.000
   0.00000000  0.27309784 -0.27309784       0.000
   0.00000000  0.27105978 -0.27105978       0.000
  -0.00000001  0.26902175 -0.26902175       0.000
   0.00000000  0.26698372 -0.26698372       0.000
   0.00000000  0.26494566 -0.26494566       0.000
   0.00000000  0.26290762 -0.26290762       0.000
   0.00000000  0.26086956 -0.26086956       0.000
   0.00000001  0.25883153 -0.25883153       0.000
   0.00000000  0.25679350 -0.25679350       0.000
   0.00000000  0.25475544 -0.25475544       0.000
  -0.00000001  0.25271741 -0.25271741       0.000
   0.00000000  0.25067934 -0.25067934       0.000
   0.00000001  0.24864131 -0.24864131       0.000
   0.00000001  0.24660325 -0.24660325       0.000
  -0.00000001  0.24456525 -0.24456525       0.000
  -0.00000001  0.24252719 -0.24252719       0.000
  -0.00000001  0.24048913 -0.24048913       0.000
   0.00000000  0.23845112 -0.23845112       0.000
   0.00000000  0.23641306 -0.23641306       0.000
   0.00000000  0.23437500 -0.23437500       0.000
   0.00000000  0.23233694 -0.23233694       0.000
   0.00000000  0.23029894 -0.23029894       0.000
   0.00000001  0.22826087 -0.22826087       0.000
   0.00000001  0.22622281 -0.22622281       0.000
   0.00000001  0.22418481 -0.22418481       0.000
  -0.00000001  0.22214675 -0.22214675       0.000
  -0.00000001  0.22010869 -0.22010869       0.000
  -0.00000001  0.21807069 -0.21807069       0.000
   0.00000000  0.21603262 -0.21603262       0.000
   0.00000000  0.21399456 -0.21399456       0.000
   0.00000000  0.21195650 -0.21195650       0.000
   0.00000000  0.20991850 -0.20991850       0.000
   0.00000000  0.20788044 -0.20788044       0.000
   0.00000000  0.20584238 -0.20584238       0.000
   0.00000001  0.20380437 -0.20380437       0.000
   0.00000001  0.20176631 -0.20176631       0.000
   0.00000001  0.19972825 -0.19972825       0.000
  -0.00000001  0.19769025 -0.19769025       0.000
  -0.00000001  0.19565219 -0.19565219       0.000
  -0.00000001  0.19361413 -0.19361413       0.000
   0.00000000  0.19157606 -0.19157606       0.000
   0.00000000  0.18953806 -0.18953806       0.000
   0.00000000  0.18750000 -0.18750000       0.000
   0.00000000  0.18546194 -0.18546194       0.000
   0.00000000  0.18342394 -0.18342394       0.000
   0.00000001  0.18138587 -0.18138587       0.000
   0.00000001  0.17934781 -0.17934781       0.000
   0.00000001  0.17730981 -0.17730981       0.000
  -0.00000001  0.17527175 -0.17527175       0.000
  -0.00000001  0.17323369 -0.17323369       0.000
  -0.00000001  0.17119563 -0.17119563       0.000
   0.00000000  0.16915762 -0.16915762       0.000
   0.00000000  0.16711956 -0.16711956       0.000
   0.00000000  0.16508150 -0.16508150       0.000
   0.00000000  0.16304350 -0.16304350       0.000
   0.00000000  0.16100544 -0.16100544       0.000
   0.00000000  0.15896738 -0.15896738       0.000
   0.00000001  0.15692937 -0.15692937       0.000
   0.00000001  0.15489131 -0.15489131       0.000
   0.00000001  0.15285325 -0.15285325       0.000
  -0.00000001  0.15081519 -0.15081519       0.000
  -0.00000001  0.14877719 -0.14877719       0.000
  -0.00000001  0.14673913 -0.14673913       0.000
   0.00000000  0.14470106 -0.14470106       0.000
   0.00000000  0.14266306 -0.14266306       0.000
   0.00000000  0.14062500 -0.14062500       0.000
   0.00000000  0.13858694 -0.13858694       0.000
   0.00000000  0.13654894 -0.13654894       0.000
   0.00000001  0.13451087 -0.13451087       0.000
   0.00000001  0.13247281 -0.13247281       0.000
   0.00000001  0.13043475 -0.13043475       0.000
  -0.00000001  0.12839675 -0.12839675       0.000
  -0.00000001  0.12635869 -0.12635869       0.000
  -0.00000001  0.12432063 -0.12432063       0.000
   0.00000000  0.12228262 -0.12228262       0.000
   0.00000000  0.12024456 -0.12024456       0.000
   0.00000000  0.11820650 -0.11820650       0.000
   0.00000000  0.11616850 -0.11616850       0.000
   0.00000000  0.11413044 -0.11413044       0.000
   0.00000000  0.11209238 -0.11209238       0.000
   0.00000001  0.11005431 -0.11005431       0.000
   0.00000001  0.10801631 -0.10801631       0.000
   0.00000001  0.10597825 -0.10597825       0.000
  -0.00000001  0.10394019 -0.10394019       0.000
  -0.00000001  0.10190219 -0.10190219       0.000
  -0.00000001  0.09986413 -0.09986413       0.000
   0.00000000  0.09782606 -0.09782606       0.000
   0.00000000  0.09578806 -0.09578806       0.000
   0.00000000  0.09375000 -0.09375000       0.000
   0.00000000  0.09171194 -0.09171194       0.000
   0.00000000  0.08967388 -0.08967388       0.000
   0.00000001  0.08763587 -0.08763587       0.000
   0.00000001  0.08559781 -0.08559781       0.000
   0.00000001  0.08355975 -0.08355975       0.000
  -0.00000001  0.08152175 -0.08152175       0.000
  -0.00000001  0.07948369 -0.07948369       0.000
  -0.00000001  0.07744563 -0.07744563       0.000
   0.00000000  0.07540762 -0.07540762       0.000
   0.00000000  0.07336956 -0.07336956       0.000
   0.00000000  0.07133150 -0.07133150       0.000
   0.00000000  0.06929350 -0.06929350       0.000
   0.00000000  0.06725544 -0.06725544       0.000
   0.00000000  0.06521738 -0.06521738       0.000
   0.00000001  0.06317931 -0.06317931       0.000
   0.00000001  0.06114131 -0.06114131       0.000
   0.00000001  0.05910325 -0.05910325       0.000
  -0.00000001  0.05706519 -0.05706519       0.000
  -0.00000001  0.05502719 -0.05502719       0.000
  -0.00000001  0.05298913 -0.05298913       0.000
   0.00000000  0.05095106 -0.05095106       0.000
   0.00000000  0.04891306 -0.04891306       0.000
   0.00000000  0.04687500 -0.04687500       0.000
   0.00000000  0.04483694 -0.04483694       0.000
   0.00000000  0.04279888 -0.04279888       0.000
   0.00000001  0.04076087 -0.04076087       0.000
   0.00000001  0.03872281 -0.03872281       0.000
   0.00000001  0.03668475 -0.03668475       0.000
  -0.00000001  0.03464675 -0.03464675       0.000
  -0.00000001  0.03260869 -0.03260869       0.000
  -0.00000001  0.03057063 -0.03057063       0.000
   0.00000000  0.02853262 -0.02853262       0.000
   0.00000000  0.02649456 -0.02649456       0.000
   0.00000000  0.02445650 -0.02445650       0.000
   0.00000000  0.02241844 -0.02241844       0.000
   0.00000000  0.02038044 -0.02038044       0.000
   0.00000000  0.01834238 -0.01834238       0.000
   0.00000001  0.01630431 -0.01630431       0.000
   0.00000001  0.01426631 -0.01426631       0.000
   0.00000001  0.01222825 -0.01222825       0.000
  -0.00000001  0.01019019 -0.01019019       0.000
  -0.00000001  0.00815219 -0.00815219       0.000
  -0.00000001  0.00611413 -0.00611413       0.000
   0.00000000  0.00407606 -0.00407606       0.000
   0.00000000  0.00203800 -0.00203800       0.000
   0.00000000  0.00000000  0.00000000       0.000
   0.00144092  0.00144092 -0.00144092       0.000
   0.00288184  0.00288184 -0.00288184       0.000
   0.00432277  0.00432277 -0.00432277       0.000
   0.00576369  0.00576369 -0.00576369       0.000
   0.00720461  0.00720461 -0.00720461       0.000
   0.00864553  0.00864553 -0.00864553       0.000
   0.01008645  0.01008645 -0.01008645       0.000
   0.01152738  0.01152738 -0.01152738       0.000
   0.01296830  0.01296830 -0.01296830       0.000
   0.01440922  0.01440922 -0.01440922       0.000
   0.01585014  0.01585014 -0.01585014       0.000
   0.01729107  0.01729107 -0.01729107       0.000
   0.01873199  0.01873199 -0.01873199       0.000
   0.02017291  0.02017291 -0.02017291       0.000
   0.02161383  0.02161383 -0.02161383       0.000
   0.02305475  0.02305475 -0.02305475       0.000
   0.02449568  0.02449568 -0.02449568       0.000
   0.02593660  0.02593660 -0.02593660       0.000
   0.02737752  0.02737752 -0.02737752       0.000
   0.02881844  0.02881844 -0.02881844       0.000
   0.03025936  0.03025936 -0.03025936       0.000
   0.03170029  0.03170029 -0.03170029       0.000
   0.03314121  0.03314121 -0.03314121       0.000
   0.03458213  0.03458213 -0.03458213       0.000
   0.03602305  0.03602305 -0.03602305       0.000
   0.03746397  0.03746397 -0.03746397       0.000
   0.03890490  0.03890490 -0.03890490       0.000
   0.04034582  0.04034582 -0.04034582       0.000
   0.04178674  0.04178674 -0.04178674       0.000
   0.04322767  0.04322767 -0.04322767       0.000
   0.04466859  0.04466859 -0.04466859       0.000
   0.04610951  0.04610951 -0.04610951       0.000
   0.04755043  0.04755043 -0.04755043       0.000
   0.04899135  0.04899135 -0.04899135       0.000
   0.05043228  0.05043228 -0.05043228       0.000
   0.05187320  0.05187320 -0.05187320       0.000
   0.05331412  0.05331412 -0.05331412       0.000
   0.05475504  0.05475504 -0.05475504       0.000
   0.05619597  0.05619597 -0.05619597       0.000
   0.05763689  0.05763689 -0.05763689       0.000
   0.05907781  0.05907781 -0.05907781       0.000
   0.06051873  0.06051873 -0.06051873       0.000
   0.06195965  0.06195965 -0.06195965       0.000
   0.06340057  0.06340057 -0.06340057       0.000
   0.06484149  0.06484149 -0.06484149       0.000
   0.06628242  0.06628242 -0.06628242       0.000
   0.06772334  0.06772334 -0.06772334       0.000
   0.06916426  0.06916426 -0.06916426       0.000
   0.07060519  0.07060519 -0.07060519       0.000
   0.07204611  0.07204611 -0.07204611       0.000
   0.07348703  0.07348703 -0.07348703       0.000
   0.07492795  0.07492795 -0.07492795       0.000
   0.07636887  0.07636887 -0.07636887       0.000
   0.07780980  0.07780980 -0.07780980       0.000
   0.07925072  0.07925072 -0.07925072       0.000
   0.08069164  0.08069164 -0.08069164       0.000
   0.08213256  0.08213256 -0.08213256       0.000
   0.08357348  0.08357348 -0.08357348       0.000
   0.08501440  0.08501440 -0.08501440       0.000
   0.08645533  0.08645533 -0.08645533       0.000
   0.08789625  0.08789625 -0.08789625       0.000
   0.08933717  0.08933717 -0.08933717       0.000
   0.09077810  0.09077810 -0.09077810       0.000
   0.09221902  0.09221902 -0.09221902       0.000
   0.09365994  0.09365994 -0.09365994       0.000
   0.09510086  0.09510086 -0.09510086       0.000
   0.09654178  0.09654178 -0.09654178       0.000
   0.09798270  0.09798270 -0.09798270       0.000
   0.09942363  0.09942363 -0.09942363       0.000
   0.10086455  0.10086455 -0.10086455       0.000
   0.10230547  0.10230547 -0.10230547       0.000
   0.10374640  0.10374640 -0.10374640       0.000
   0.10518732  0.10518732 -0.10518732       0.000
   0.10662824  0.10662824 -0.10662824       0.000
   0.10806917  0.10806917 -0.10806917       0.000
   0.10951009  0.10951009 -0.10951009       0.000
   0.11095101  0.11095101 -0.11095101       0.000
   0.11239193  0.11239193 -0.11239193       0.000
   0.11383285  0.11383285 -0.11383285       0.000
   0.11527377  0.11527377 -0.11527377       0.000
   0.11671469  0.11671469 -0.11671469       0.000
   0.11815561  0.11815561 -0.11815561       0.000
   0.11959653  0.11959653 -0.11959653       0.000
   0.12103745  0.12103745 -0.12103745       0.000
   0.12247838  0.12247838 -0.12247838       0.000
   0.12391930  0.12391930 -0.12391930       0.000
   0.12536022  0.12536022 -0.12536022       0.000
   0.12680115  0.12680115 -0.12680115       0.000
   0.12824208  0.12824208 -0.12824208       0.000
   0.12968299  0.12968299 -0.12968299       0.000
   0.13112392  0.13112392 -0.13112392       0.000
   0.13256484  0.13256484 -0.13256484       0.000
   0.13400576  0.13400576 -0.13400576       0.000
   0.13544668  0.13544668 -0.13544668       0.000
   0.13688761  0.13688761 -0.13688761       0.000
   0.13832852  0.13832852 -0.13832852       0.000
   0.13976945  0.13976945 -0.13976945       0.000
   0.14121038  0.14121038 -0.14121038       0.000
   0.14265129  0.14265129 -0.14265129       0.000
   0.14409222  0.14409222 -0.14409222       0.000
   0.14553314  0.14553314 -0.14553314       0.000
   0.14697406  0.14697406 -0.14697406       0.000
   0.14841498  0.14841498 -0.14841498       0.000
   0.14985590  0.14985590 -0.14985590       0.000
   0.15129682  0.15129682 -0.15129682       0.000
   0.15273774  0.15273774 -0.15273774       0.000
   0.15417868  0.15417868 -0.15417868       0.000
   0.15561959  0.15561959 -0.15561959       0.000
   0.15706052  0.15706052 -0.15706052       0.000
   0.15850143  0.15850143 -0.15850143       0.000
   0.15994236  0.15994236 -0.15994236       0.000
   0.16138327  0.16138327 -0.16138327       0.000
   0.16282421  0.16282421 -0.16282421       0.000
   0.16426513  0.16426513 -0.16426513       0.000
   0.16570605  0.16570605 -0.16570605       0.000
   0.16714697  0.16714697 -0.16714697       0.000
   0.16858789  0.16858789 -0.16858789       0.000
   0.17002881  0.17002881 -0.17002881       0.000
   0.17146975  0.17146975 -0.17146975       0.000
   0.17291066  0.17291066 -0.17291066       0.000
   0.17435159  0.17435159 -0.17435159       0.000
   0.17579250  0.17579250 -0.17579250       0.000
   0.17723343  0.17723343 -0.17723343       0.000
   0.17867434  0.17867434 -0.17867434       0.000
   0.18011528  0.18011528 -0.18011528       0.000
   0.18155620  0.18155620 -0.18155620       0.000
   0.18299712  0.18299712 -0.18299712       0.000
   0.18443803  0.18443803 -0.18443803       0.000
   0.18587895  0.18587895 -0.18587895       0.000
   0.18731987  0.18731987 -0.18731987       0.000
   0.18876079  0.18876079 -0.18876079       0.000
   0.19020173  0.19020173 -0.19020173       0.000
   0.19164264  0.19164264 -0.19164264       0.000
   0.19308357  0.19308357 -0.19308357       0.000
   0.19452448  0.19452448 -0.19452448       0.000
   0.19596541  0.19596541 -0.19596541       0.000
   0.19740632  0.19740632 -0.19740632       0.000
   0.19884726  0.19884726 -0.19884726       0.000
   0.20028818  0.20028818 -0.20028818       0.000
   0.20172910  0.20172910 -0.20172910       0.000
   0.20317002  0.20317002 -0.20317002       0.000
   0.20461094  0.20461094 -0.20461094       0.000
   0.20605186  0.20605186 -0.20605186       0.000
   0.20749280  0.20749280 -0.20749280       0.000
   0.20893371  0.20893371 -0.20893371       0.000
   0.21037464  0.21037464 -0.21037464       0.000
   0.21181555  0.21181555 -0.21181555       0.000
   0.21325648  0.21325648 -0.21325648       0.000
   0.21469739  0.21469739 -0.21469739       0.000
   0.21613833  0.21613833 -0.21613833       0.000
   0.21757925  0.21757925 -0.21757925       0.000
   0.21902017  0.21902017 -0.21902017       0.000
   0.22046109  0.22046109 -0.22046109       0.000
   0.22190201  0.22190201 -0.22190201       0.000
   0.22334293  0.22334293 -0.22334293       0.000
   0.22478387  0.22478387 -0.22478387       0.000
   0.22622478  0.22622478 -0.22622478       0.000
   0.22766571  0.22766571 -0.22766571       0.000
   0.22910662  0.22910662 -0.22910662       0.000
   0.23054755  0.23054755 -0.23054755       0.000
   0.23198846  0.23198846 -0.23198846       0.000
   0.23342937  0.23342937 -0.23342937       0.000
   0.23487031  0.23487031 -0.23487031       0.000
   0.23631123  0.23631123 -0.23631123       0.000
   0.23775215  0.23775215 -0.23775215       0.000
   0.23919307  0.23919307 -0.23919307       0.000
   0.24063399  0.24063399 -0.24063399       0.000
   0.24207491  0.24207491 -0.24207491       0.000
   0.24351585  0.24351585 -0.24351585       0.000
   0.24495676  0.24495676 -0.24495676       0.000
   0.24639769  0.24639769 -0.24639769       0.000
   0.24783860  0.24783860 -0.24783860       0.000
   0.24927953  0.24927953 -0.24927953       0.000
   0.25072044  0.25072044 -0.25072044       0.000
   0.25216138  0.25216138 -0.25216138       0.000
   0.25360230  0.25360230 -0.25360230       0.000
   0.25504324  0.25504324 -0.25504324       0.000
   0.25648415  0.25648415 -0.25648415       0.000
   0.25792506  0.25792506 -0.25792506       0.000
   0.25936598  0.25936598 -0.25936598       0.000
   0.26080692  0.26080692 -0.26080692       0.000
   0.26224783  0.26224783 -0.26224783       0.000
   0.26368877  0.26368877 -0.26368877       0.000
   0.26512969  0.26512969 -0.26512969       0.000
   0.26657060  0.26657060 -0.26657060       0.000
   0.26801151  0.26801151 -0.26801151       0.000
   0.26945245  0.26945245 -0.26945245       0.000
   0.27089337  0.27089337 -0.27089337       0.000
   0.27233431  0.27233431 -0.27233431       0.000
   0.27377522  0.27377522 -0.27377522       0.000
   0.27521613  0.27521613 -0.27521613       0.000
   0.27665704  0.27665704 -0.27665704       0.000
   0.27809796  0.27809796 -0.27809796       0.000
   0.27953890  0.27953890 -0.27953890       0.000
   0.28097981  0.28097981 -0.28097981       0.000
   0.28242075  0.28242075 -0.28242075       0.000
   0.28386167  0.28386167 -0.28386167       0.000
   0.28530258  0.28530258 -0.28530258       0.000
   0.28674349  0.28674349 -0.28674349       0.000
   0.28818443  0.28818443 -0.28818443       0.000
   0.28962535  0.28962535 -0.28962535       0.000
   0.29106629  0.29106629 -0.29106629       0.000
   0.29250720  0.29250720 -0.29250720       0.000
   0.29394811  0.29394811 -0.29394811       0.000
   0.29538903  0.29538903 -0.29538903       0.000
   0.29682997  0.29682997 -0.29682997       0.000
   0.29827091  0.29827091 -0.29827091       0.000
   0.29971179  0.29971179 -0.29971179       0.000
   0.30115274  0.30115274 -0.30115274       0.000
   0.30259365  0.30259365 -0.30259365       0.000
   0.30403459  0.30403459 -0.30403459       0.000
   0.30547547  0.30547547 -0.30547547       0.000
   0.30691642  0.30691642 -0.30691642       0.000
   0.30835736  0.30835736 -0.30835736       0.000
   0.30979827  0.30979827 -0.30979827       0.000
   0.31123918  0.31123918 -0.31123918       0.000
   0.31268010  0.31268010 -0.31268010       0.000
   0.31412104  0.31412104 -0.31412104       0.000
   0.31556198  0.31556198 -0.31556198       0.000
   0.31700286  0.31700286 -0.31700286       0.000
   0.31844380  0.31844380 -0.31844380       0.000
   0.31988472  0.31988472 -0.31988472       0.000
   0.32132566  0.32132566 -0.32132566       0.000
   0.32276654  0.32276654 -0.32276654       0.000
   0.32420748  0.32420748 -0.32420748       0.000
   0.32564843  0.32564843 -0.32564843       0.000
   0.32708931  0.32708931 -0.32708931       0.000
   0.32853025  0.32853025 -0.32853025       0.000
   0.32997116  0.32997116 -0.32997116       0.000
   0.33141211  0.33141211 -0.33141211       0.000
   0.33285299  0.33285299 -0.33285299       0.000
   0.33429393  0.33429393 -0.33429393       0.000
   0.33573487  0.33573487 -0.33573487       0.000
   0.33717579  0.33717579 -0.33717579       0.000
   0.33861670  0.33861670 -0.33861670       0.000
   0.34005761  0.34005761 -0.34005761       0.000
   0.34149855  0.34149855 -0.34149855       0.000
   0.34293950  0.34293950 -0.34293950       0.000
   0.34438038  0.34438038 -0.34438038       0.000
   0.34582132  0.34582132 -0.34582132       0.000
   0.34726223  0.34726223 -0.34726223       0.000
   0.34870318  0.34870318 -0.34870318       0.000
   0.35014406  0.35014406 -0.35014406       0.000
   0.35158500  0.35158500 -0.35158500       0.000
   0.35302594  0.35302594 -0.35302594       0.000
   0.35446686  0.35446686 -0.35446686       0.000
   0.35590777  0.35590777 -0.35590777       0.000
   0.35734868  0.35734868 -0.35734868       0.000
   0.35878962  0.35878962 -0.35878962       0.000
   0.36023057  0.36023057 -0.36023057       0.000
   0.36167145  0.36167145 -0.36167145       0.000
   0.36311239  0.36311239 -0.36311239       0.000
   0.36455330  0.36455330 -0.36455330       0.000
   0.36599424  0.36599424 -0.36599424       0.000
   0.36743513  0.36743513 -0.36743513       0.000
   0.36887607  0.36887607 -0.36887607       0.000
   0.37031701  0.37031701 -0.37031701       0.000
   0.37175789  0.37175789 -0.37175789       0.000
   0.37319884  0.37319884 -0.37319884       0.000
   0.37463975  0.37463975 -0.37463975       0.000
   0.37608069  0.37608069 -0.37608069       0.000
   0.37752157  0.37752157 -0.37752157       0.000
   0.37896252  0.37896252 -0.37896252       0.000
   0.38040346  0.38040346 -0.38040346       0.000
   0.38184437  0.38184437 -0.38184437       0.000
   0.38328528  0.38328528 -0.38328528       0.000
   0.38472620  0.38472620 -0.38472620       0.000
   0.38616714  0.38616714 -0.38616714       0.000
   0.38760808  0.38760808 -0.38760808       0.000
   0.38904896  0.38904896 -0.38904896       0.000
   0.39048991  0.39048991 -0.39048991       0.000
   0.39193082  0.39193082 -0.39193082       0.000
   0.39337176  0.39337176 -0.39337176       0.000
   0.39481264  0.39481264 -0.39481264       0.000
   0.39625359  0.39625359 -0.39625359       0.000
   0.39769453  0.39769453 -0.39769453       0.000
   0.39913544  0.39913544 -0.39913544       0.000
   0.40057635  0.40057635 -0.40057635       0.000
   0.40201727  0.40201727 -0.40201727       0.000
   0.40345821  0.40345821 -0.40345821       0.000
   0.40489915  0.40489915 -0.40489915       0.000
   0.40634003  0.40634003 -0.40634003       0.000
   0.40778098  0.40778098 -0.40778098       0.000
   0.40922189  0.40922189 -0.40922189       0.000
   0.41066283  0.41066283 -0.41066283       0.000
   0.41210371  0.41210371 -0.41210371       0.000
   0.41354465  0.41354465 -0.41354465       0.000
   0.41498560  0.41498560 -0.41498560       0.000
   0.41642648  0.41642648 -0.41642648       0.000
   0.41786742  0.41786742 -0.41786742       0.000
   0.41930833  0.41930833 -0.41930833       0.000
   0.42074928  0.42074928 -0.42074928       0.000
   0.42219016  0.42219016 -0.42219016       0.000
   0.42363110  0.42363110 -0.42363110       0.000
   0.42507204  0.42507204 -0.42507204       0.000
   0.42651296  0.42651296 -0.42651296       0.000
   0.42795387  0.42795387 -0.42795387       0.000
   0.42939478  0.42939478 -0.42939478       0.000
   0.43083572  0.43083572 -0.43083572       0.000
[...]
      6       9.0859      0.00000
      7       9.0859      0.00000
      8      13.3374      0.00000

 k-point  1169 :       0.4524    0.4524    0.4524
  band No.  band energies     occupation 
      1      -3.9685      2.00000
      2      -1.0393      2.00000
      3       4.6090      2.00000
      4       4.6090      2.00000
      5       7.2787      0.00000
      6       9.0848      0.00000
      7       9.0848      0.00000
      8      13.3356      0.00000

 k-point  1170 :       0.4539    0.4539    0.4539
  band No.  band energies     occupation 
      1      -3.9616      2.00000
      2      -1.0496      2.00000
      3       4.6080      2.00000
      4       4.6080      2.00000
      5       7.2775      0.00000
      6       9.0836      0.00000
      7       9.0836      0.00000
      8      13.3338      0.00000

 k-point  1171 :       0.4553    0.4553    0.4553
  band No.  band energies     occupation 
      1      -3.9548      2.00000
      2      -1.0597      2.00000
      3       4.6071      2.00000
      4       4.6071      2.00000
      5       7.2765      0.00000
      6       9.0825      0.00000
      7       9.0825      0.00000
      8      13.3321      0.00000

 k-point  1172 :       0.4568    0.4568    0.4568
  band No.  band energies     occupation 
      1      -3.9481      2.00000
      2      -1.0694      2.00000
      3       4.6062      2.00000
      4       4.6062      2.00000
      5       7.2754      0.00000
      6       9.0815      0.00000
      7       9.0815      0.00000
      8      13.3304      0.00000

 k-point  1173 :       0.4582    0.4582    0.4582
  band No.  band energies     occupation 
      1      -3.9416      2.00000
      2      -1.0790      2.00000
      3       4.6053      2.00000
      4       4.6053      2.00000
      5       7.2744      0.00000
      6       9.0804      0.00000
      7       9.0804      0.00000
      8      13.3288      0.00000

 k-point  1174 :       0.4597    0.4597    0.4597
  band No.  band energies     occupation 
      1      -3.9354      2.00000
      2      -1.0882      2.00000
      3       4.6045      2.00000
      4       4.6045      2.00000
      5       7.2734      0.00000
      6       9.0794      0.00000
      7       9.0794      0.00000
      8      13.3272      0.00000

 k-point  1175 :       0.4611    0.4611    0.4611
  band No.  band energies     occupation 
      1      -3.9292      2.00000
      2      -1.0971      2.00000
      3       4.6037      2.00000
      4       4.6037      2.00000
      5       7.2725      0.00000
      6       9.0785      0.00000
      7       9.0785      0.00000
      8      13.3257      0.00000

 k-point  1176 :       0.4625    0.4625    0.4625
  band No.  band energies     occupation 
      1      -3.9233      2.00000
      2      -1.1058      2.00000
      3       4.6029      2.00000
      4       4.6029      2.00000
      5       7.2716      0.00000
      6       9.0775      0.00000
      7       9.0775      0.00000
      8      13.3242      0.00000

 k-point  1177 :       0.4640    0.4640    0.4640
  band No.  band energies     occupation 
      1      -3.9176      2.00000
      2      -1.1141      2.00000
      3       4.6021      2.00000
      4       4.6021      2.00000
      5       7.2707      0.00000
      6       9.0766      0.00000
      7       9.0766      0.00000
      8      13.3228      0.00000

 k-point  1178 :       0.4654    0.4654    0.4654
  band No.  band energies     occupation 
      1      -3.9120      2.00000
      2      -1.1222      2.00000
      3       4.6014      2.00000
      4       4.6014      2.00000
      5       7.2698      0.00000
      6       9.0758      0.00000
      7       9.0758      0.00000
      8      13.3214      0.00000

 k-point  1179 :       0.4669    0.4669    0.4669
  band No.  band energies     occupation 
      1      -3.9067      2.00000
      2      -1.1300      2.00000
      3       4.6007      2.00000
      4       4.6007      2.00000
      5       7.2690      0.00000
      6       9.0749      0.00000
      7       9.0749      0.00000
      8      13.3201      0.00000

 k-point  1180 :       0.4683    0.4683    0.4683
  band No.  band energies     occupation 
      1      -3.9015      2.00000
      2      -1.1375      2.00000
      3       4.6000      2.00000
      4       4.6000      2.00000
      5       7.2683      0.00000
      6       9.0741      0.00000
      7       9.0741      0.00000
      8      13.3189      0.00000

 k-point  1181 :       0.4697    0.4697    0.4697
  band No.  band energies     occupation 
      1      -3.8965      2.00000
      2      -1.1446      2.00000
      3       4.5994      2.00000
      4       4.5994      2.00000
      5       7.2675      0.00000
      6       9.0734      0.00000
      7       9.0734      0.00000
      8      13.3177      0.00000

 k-point  1182 :       0.4712    0.4712    0.4712
  band No.  band energies     occupation 
      1      -3.8918      2.00000
      2      -1.1515      2.00000
      3       4.5988      2.00000
      4       4.5988      2.00000
      5       7.2668      0.00000
      6       9.0726      0.00000
      7       9.0726      0.00000
      8      13.3165      0.00000

 k-point  1183 :       0.4726    0.4726    0.4726
  band No.  band energies     occupation 
      1      -3.8872      2.00000
      2      -1.1581      2.00000
      3       4.5982      2.00000
      4       4.5982      2.00000
      5       7.2661      0.00000
      6       9.0719      0.00000
      7       9.0719      0.00000
      8      13.3154      0.00000

 k-point  1184 :       0.4741    0.4741    0.4741
  band No.  band energies     occupation 
      1      -3.8829      2.00000
      2      -1.1643      2.00000
      3       4.5977      2.00000
      4       4.5977      2.00000
      5       7.2655      0.00000
      6       9.0713      0.00000
      7       9.0713      0.00000
      8      13.3144      0.00000

 k-point  1185 :       0.4755    0.4755    0.4755
  band No.  band energies     occupation 
      1      -3.8788      2.00000
      2      -1.1702      2.00000
      3       4.5971      2.00000
      4       4.5971      2.00000
      5       7.2649      0.00000
      6       9.0706      0.00000
      7       9.0706      0.00000
      8      13.3134      0.00000

 k-point  1186 :       0.4769    0.4769    0.4769
  band No.  band energies     occupation 
      1      -3.8749      2.00000
      2      -1.1758      2.00000
      3       4.5967      2.00000
      4       4.5967      2.00000
      5       7.2643      0.00000
      6       9.0700      0.00000
      7       9.0700      0.00000
      8      13.3125      0.00000

 k-point  1187 :       0.4784    0.4784    0.4784
  band No.  band energies     occupation 
      1      -3.8712      2.00000
      2      -1.1811      2.00000
      3       4.5962      2.00000
      4       4.5962      2.00000
      5       7.2638      0.00000
      6       9.0695      0.00000
      7       9.0695      0.00000
      8      13.3116      0.00000

 k-point  1188 :       0.4798    0.4798    0.4798
  band No.  band energies     occupation 
      1      -3.8678      2.00000
      2      -1.1860      2.00000
      3       4.5958      2.00000
      4       4.5958      2.00000
      5       7.2633      0.00000
      6       9.0690      0.00000
      7       9.0690      0.00000
      8      13.3108      0.00000

 k-point  1189 :       0.4813    0.4813    0.4813
  band No.  band energies     occupation 
      1      -3.8645      2.00000
      2      -1.1907      2.00000
      3       4.5954      2.00000
      4       4.5954      2.00000
      5       7.2628      0.00000
      6       9.0685      0.00000
      7       9.0685      0.00000
      8      13.3100      0.00000

 k-point  1190 :       0.4827    0.4827    0.4827
  band No.  band energies     occupation 
      1      -3.8615      2.00000
      2      -1.1949      2.00000
      3       4.5950      2.00000
      4       4.5950      2.00000
      5       7.2624      0.00000
      6       9.0680      0.00000
      7       9.0680      0.00000
      8      13.3093      0.00000

 k-point  1191 :       0.4841    0.4841    0.4841
  band No.  band energies     occupation 
      1      -3.8588      2.00000
      2      -1.1989      2.00000
      3       4.5947      2.00000
      4       4.5947      2.00000
      5       7.2620      0.00000
      6       9.0676      0.00000
      7       9.0676      0.00000
      8      13.3087      0.00000

 k-point  1192 :       0.4856    0.4856    0.4856
  band No.  band energies     occupation 
      1      -3.8562      2.00000
      2      -1.2025      2.00000
      3       4.5943      2.00000
      4       4.5943      2.00000
      5       7.2617      0.00000
      6       9.0672      0.00000
      7       9.0672      0.00000
      8      13.3081      0.00000

 k-point  1193 :       0.4870    0.4870    0.4870
  band No.  band energies     occupation 
      1      -3.8539      2.00000
      2      -1.2058      2.00000
      3       4.5941      2.00000
      4       4.5941      2.00000
      5       7.2613      0.00000
      6       9.0669      0.00000
      7       9.0669      0.00000
      8      13.3075      0.00000

 k-point  1194 :       0.4885    0.4885    0.4885
  band No.  band energies     occupation 
      1      -3.8519      2.00000
      2      -1.2087      2.00000
      3       4.5938      2.00000
      4       4.5938      2.00000
      5       7.2610      0.00000
      6       9.0666      0.00000
      7       9.0666      0.00000
      8      13.3071      0.00000

 k-point  1195 :       0.4899    0.4899    0.4899
  band No.  band energies     occupation 
      1      -3.8500      2.00000
      2      -1.2113      2.00000
      3       4.5936      2.00000
      4       4.5936      2.00000
      5       7.2608      0.00000
      6       9.0663      0.00000
      7       9.0663      0.00000
      8      13.3066      0.00000

 k-point  1196 :       0.4914    0.4914    0.4914
  band No.  band energies     occupation 
      1      -3.8485      2.00000
      2      -1.2136      2.00000
      3       4.5934      2.00000
      4       4.5934      2.00000
      5       7.2606      0.00000
      6       9.0661      0.00000
      7       9.0661      0.00000
      8      13.3063      0.00000

 k-point  1197 :       0.4928    0.4928    0.4928
  band No.  band energies     occupation 
      1      -3.8471      2.00000
      2      -1.2155      2.00000
      3       4.5932      2.00000
      4       4.5932      2.00000
      5       7.2604      0.00000
      6       9.0659      0.00000
      7       9.0659      0.00000
      8      13.3060      0.00000

 k-point  1198 :       0.4942    0.4942    0.4942
  band No.  band energies     occupation 
      1      -3.8460      2.00000
      2      -1.2170      2.00000
      3       4.5931      2.00000
      4       4.5931      2.00000
      5       7.2602      0.00000
      6       9.0657      0.00000
      7       9.0657      0.00000
      8      13.3057      0.00000

 k-point  1199 :       0.4957    0.4957    0.4957
  band No.  band energies     occupation 
      1      -3.8452      2.00000
      2      -1.2183      2.00000
      3       4.5930      2.00000
      4       4.5930      2.00000
      5       7.2601      0.00000
      6       9.0656      0.00000
      7       9.0656      0.00000
      8      13.3055      0.00000

 k-point  1200 :       0.4971    0.4971    0.4971
  band No.  band energies     occupation 
      1      -3.8445      2.00000
      2      -1.2191      2.00000
      3       4.5929      2.00000
      4       4.5929      2.00000
      5       7.2600      0.00000
      6       9.0655      0.00000
      7       9.0655      0.00000
      8      13.3054      0.00000

 k-point  1201 :       0.4986    0.4986    0.4986
  band No.  band energies     occupation 
      1      -3.8442      2.00000
      2      -1.2197      2.00000
      3       4.5929      2.00000
      4       4.5929      2.00000
      5       7.2600      0.00000
      6       9.0654      0.00000
      7       9.0654      0.00000
      8      13.3053      0.00000

 k-point  1202 :       0.5000    0.5000    0.5000
  band No.  band energies     occupation 
      1      -3.8440      2.00000
      2      -1.2198      2.00000
      3       4.5929      2.00000
      4       4.5929      2.00000
      5       7.2599      0.00000
      6       9.0654      0.00000
      7       9.0654      0.00000
      8      13.3052      0.00000


--------------------------------------------------------------------------------------------------------


 soft charge-density along one line, spin component           1
         0         1         2         3         4         5         6         7         8         9
 total charge-density along one line
 
 pseudopotential strength for first ion, spin component:           1
 18.401  25.671  -0.000   0.000  -0.000  -0.000   0.000  -0.000
 25.671  35.818  -0.000   0.000  -0.000  -0.000   0.000  -0.000
 -0.000  -0.000   4.177   0.000  -0.000   7.781   0.000  -0.000
  0.000   0.000   0.000   4.177   0.000   0.000   7.781   0.000
 -0.000  -0.000  -0.000   0.000   4.177  -0.000   0.000   7.781
 -0.000  -0.000   7.781   0.000  -0.000  14.507   0.000  -0.000
  0.000   0.000   0.000   7.781   0.000   0.000  14.507   0.000
 -0.000  -0.000  -0.000   0.000   7.781  -0.000   0.000  14.507
 total augmentation occupancy for first ion, spin component:           1
  2.000   0.000   0.000   0.000   0.000   0.000   0.000   0.000
  0.000   0.000   0.000   0.000   0.000   0.000   0.000   0.000
  0.000   0.000   0.667   0.000   0.000   0.000   0.000   0.000
  0.000   0.000   0.000   0.667   0.000   0.000   0.000   0.000
  0.000   0.000   0.000   0.000   0.667   0.000   0.000   0.000
  0.000   0.000   0.000   0.000   0.000   0.000   0.000   0.000
  0.000   0.000   0.000   0.000   0.000   0.000   0.000   0.000
  0.000   0.000   0.000   0.000   0.000   0.000   0.000   0.000


------------------------ aborting loop because EDIFF is reached ----------------------------------------


 


 total charge     
 
# of ion     s       p       d       tot
----------------------------------------
  1        0.746   0.949   0.000   1.695
  2        0.746   0.949   0.000   1.695
------------------------------------------------
tot        1.491   1.898   0.000   3.389
 
    CHARGE:  cpu time    0.0080: real time    0.0048
    FORLOC:  cpu time    0.0000: real time    0.0002
    FORNL :  cpu time    0.0240: real time    0.0273
    STRESS:  cpu time    0.3800: real time    0.3812
    FORCOR:  cpu time    0.0040: real time    0.0048
    FORHAR:  cpu time    0.0000: real time    0.0010
    OFIELD:  cpu time    0.0000: real time    0.0000

  FORCE on cell =-STRESS in cart. coord.  units (eV):
  Direction    XX          YY          ZZ          XY          YZ          ZX
  --------------------------------------------------------------------------------------
  Alpha Z     3.36229     3.36229     3.36229
  Ewald     -76.17385   -76.17385   -76.17385     0.00000     0.00000    -0.00000
  Hartree     4.94827     4.94827     4.94827     0.00000    -0.00000    -0.00000
  E(xc)     -25.56522   -25.56522   -25.56522     0.00000    -0.00000    -0.00000
  Local     -29.21833   -29.21833   -29.21833     0.00001    -0.00001    -0.00001
  n-local    74.01407    79.73733    78.97102    -1.15441    -2.58914    -0.75229
  augment   -11.46604   -11.46604   -11.46604    -0.00001     0.00001     0.00001
  Kinetic    55.17019    57.00672    58.68110    -0.95252    -3.74253    -0.96742
  Fock        0.00000     0.00000     0.00000     0.00000     0.00000     0.00000
  -------------------------------------------------------------------------------------
  Total       0.41394     0.41394     0.41394     0.00000     0.00000     0.00000
  in kB      16.56012    16.56012    16.56012     0.00000     0.00000     0.00000
  external pressure =       16.56 kB  Pullay stress =        0.00 kB


 VOLUME and BASIS-vectors are now :
 -----------------------------------------------------------------------------
  energy-cutoff  :      500.00
  volume of cell :       40.05
      direct lattice vectors                 reciprocal lattice vectors
     2.715500000  2.715500000  0.000000000     0.184128153  0.184128153  0.184128153
     2.715500000  0.000000000 -2.715500000     0.184128153 -0.184128153 -0.184128153
     0.000000000  2.715500000 -2.715500000    -0.184128153  0.184128153 -0.184128153

  length of vectors
     3.840296929  3.840296929  3.840296929     0.318919316  0.318919316  0.318919316


 FORCES acting on ions
    electron-ion (+dipol)            ewald-force                    non-local-force                 convergence-correction
 -----------------------------------------------------------------------------------------------
   -.164E-07 -.131E-07 0.131E-07   -.923E-14 -.515E-14 0.930E-14   -.486E-16 -.347E-16 0.763E-16   0.103E-08 0.103E-08 -.103E-08
   0.164E-07 0.131E-07 -.131E-07   0.907E-14 0.563E-14 -.939E-14   0.173E-16 0.694E-16 -.555E-16   -.103E-08 -.103E-08 0.103E-08
 -----------------------------------------------------------------------------------------------
   -.122E-13 0.139E-13 -.813E-13   -.164E-15 0.474E-15 -.970E-16   -.312E-16 0.347E-16 0.208E-16   0.187E-14 0.561E-14 -.336E-14
 
 
 POSITION                                       TOTAL-FORCE (eV/Angst)
 -----------------------------------------------------------------------------------
      0.00000      0.00000      0.00000        -0.000000      0.000000     -0.000000
      1.35775      1.35775     -1.35775         0.000000     -0.000000      0.000000
 -----------------------------------------------------------------------------------
    total drift:                               -0.000000      0.000000     -0.000000


--------------------------------------------------------------------------------------------------------



  FREE ENERGIE OF THE ION-ELECTRON SYSTEM (eV)
  ---------------------------------------------------
  free  energy   TOTEN  =       -11.17743642 eV

  energy  without entropy=      -11.17743642  energy(sigma->0) =      -11.17743642
 


--------------------------------------------------------------------------------------------------------


    POTLOK:  cpu time    0.0080: real time    0.0066


--------------------------------------------------------------------------------------------------------




--------------------------------------------------------------------------------------------------------


 writing wavefunctions
     LOOP+:  cpu time    6.4884: real time    7.5813
    4ORBIT:  cpu time    0.0000: real time    0.0000
 


 total charge     
 
# of ion     s       p       d       tot
----------------------------------------
  1        0.746   0.949   0.000   1.695
  2        0.746   0.949   0.000   1.695
------------------------------------------------
tot        1.491   1.898   0.000   3.389
 

 total amount of memory used by VASP on root node    51673. kBytes
========================================================================

   base      :      30000. kBytes
   nonl-proj :      13544. kBytes
   fftplans  :        428. kBytes
   grid      :        621. kBytes
   one-center:          3. kBytes
   wavefun   :       7077. kBytes
 
  
  
 General timing and accounting informations for this job:
 ========================================================
  
                  Total CPU time used (sec):       11.421
                            User time (sec):        8.245
                          System time (sec):        3.176
                         Elapsed time (sec):       14.197
  
                   Maximum memory used (kb):       51840.
                   Average memory used (kb):           0.
  
                          Minor page faults:        13369
                          Major page faults:            0
                 Voluntary context switches:          755
