PROCAR new format
# of k-points: 1202         # of bands:   8         # of ions:   2

 k-point    1 :    0.00000000 0.00000000 0.00000000     weight = 0.00490196

band   1 # energy   -6.19423977 # occ.  2.00000000
 
ion      s      p      d    tot
  1  0.213  0.000  0.000  0.213
  2  0.213  0.000  0.000  0.213
tot  0.426  0.000  0.000  0.426
 
band   2 # energy    5.79717461 # occ.  2.00000000
 
ion      s      p      d    tot
  1  0.000  0.216  0.000  0.216
  2  0.000  0.216  0.000  0.216
tot  0.000  0.433  0.000  0.433
 
band   3 # energy    5.79717470 # occ.  2.00000000
 
ion      s      p      d    tot
  1  0.000  0.216  0.000  0.216
  2  0.000  0.216  0.000  0.216
tot  0.000  0.433  0.000  0.433
 
band   4 # energy    5.79717470 # occ.  2.00000000
 
ion      s      p      d    tot
  1  0.000  0.216  0.000  0.216
  2  0.000  0.216  0.000  0.216
tot  0.000  0.433  0.000  0.433
 
band   5 # energy    8.31036629 # occ.  0.00000000
 
ion      s      p      d    tot
  1  0.000  0.151  0.000  0.151
  2  0.000  0.151  0.000  0.151
tot  0.000  0.303  0.000  0.303
 
band   6 # energy    8.31036633 # occ.  0.00000000
 
ion      s      p      d    tot
  1  0.000  0.151  0.000  0.151
  2  0.000  0.151  0.000  0.151
tot  0.000  0.303  0.000  0.303
 
band   7 # energy    8.31036634 # occ.  0.00000000
 
ion      s      p      d    tot
  1  0.000  0.151  0.000  0.151
  2  0.000  0.151  0.000  0.151
tot  0.000  0.303  0.000  0.303
 
band   8 # energy    9.11948527 # occ.  0.00000000
 
ion      s      p      d    tot
  1  0.359  0.000  0.000  0.359
  2  0.359  0.000  0.000  0.359
tot  0.717  0.000  0.000  0.717
 

 k-point    2 :    0.16666667 0.00000000 0.00000000     weight = 0.03921569

band   1 # energy   -5.83159181 # occ.  2.00000000
 
ion      s      p      d    tot
  1  0.211  0.004  0.000  0.215
  2  0.211  0.004  0.000  0.215
tot  0.422  0.008  0.000  0.430
 
band   2 # energy    3.39694593 # occ.  2.00000000
 
ion      s      p      d    tot
  1  0.076  0.143  0.000  0.219
  2  0.076  0.143  0.000  0.219
tot  0.152  0.285  0.000  0.437
 
band   3 # energy    5.34156201 # occ.  2.00000000
 
ion      s      p      d    tot
  1  0.000  0.213  0.000  0.213
  2  0.000  0.213  0.000  0.213
tot  0.000  0.426  0.000  0.426
 
band   4 # energy    5.34156209 # occ.  2.00000000
 
ion      s      p      d    tot
  1  0.000  0.213  0.000  0.213
  2  0.000  0.213  0.000  0.213
tot  0.000  0.426  0.000  0.426
 
band   5 # energy    8.08404576 # occ.  0.00000000
 
ion      s      p      d    tot
  1  0.127  0.073  0.000  0.199
  2  0.127  0.073  0.000  0.199
tot  0.253  0.145  0.000  0.399
 
band   6 # energy    8.96204434 # occ.  0.00000000
 
ion      s      p      d    tot
  1  0.000  0.154  0.000  0.154
  2  0.000  0.154  0.000  0.154
tot  0.000  0.308  0.000  0.308
 
band   7 # energy    8.96204438 # occ.  0.00000000
 
ion      s      p      d    tot
  1  0.000  0.154  0.000  0.154
  2  0.000  0.154  0.000  0.154
tot  0.000  0.308  0.000  0.308
 
band   8 # energy   11.20034142 # occ.  0.00000000
 
ion      s      p      d    tot
  1  0.171  0.117  0.000  0.289
  2  0.171  0.117  0.000  0.289
tot  0.343  0.235  0.000  0.577
 

 k-point    3 :    0.33333333 0.00000000 0.00000000     weight = 0.03921569

band   1 # energy   -4.81030299 # occ.  2.00000000
 
ion      s      p      d    tot
  1  0.210  0.013  0.000  0.223
  2  0.210  0.013  0.000  0.223
tot  0.421  0.025  0.000  0.446
 
band   2 # energy    0.42955250 # occ.  2.00000000
 
ion      s      p      d    tot
  1  0.104  0.103  0.000  0.208
  2  0.104  0.103  0.000  0.208
tot  0.209  0.207  0.000  0.416
 
band   3 # energy    4.79045955 # occ.  2.00000000
 
ion      s      p      d    tot
  1  0.000  0.216  0.000  0.216
  2  0.000  0.216  0.000  0.216
tot  0.000  0.432  0.000  0.432
 
band   4 # energy    4.79045962 # occ.  2.00000000
 
ion      s      p      d    tot
  1  0.000  0.216  0.000  0.216
  2  0.000  0.216  0.000  0.216
tot  0.000  0.432  0.000  0.432
 
band   5 # energy    7.48668630 # occ.  0.00000000
 
ion      s      p      d    tot
  1  0.174  0.030  0.000  0.205
  2  0.174  0.030  0.000  0.205
tot  0.348  0.061  0.000  0.409
 
band   6 # energy    9.24199804 # occ.  0.00000000
 
ion      s      p      d    tot
  1  0.000  0.114  0.000  0.114
  2  0.000  0.114  0.000  0.114
tot  0.000  0.228  0.000  0.228
 
band   7 # energy    9.24199808 # occ.  0.00000000
 
ion      s      p      d    tot
  1  0.000  0.114  0.000  0.114
  2  0.000  0.114  0.000  0.114
tot  0.000  0.228  0.000  0.228
 
band   8 # energy   13.50225254 # occ.  0.00000000
 
ion      s      p      d    tot
  1  0.012  0.114  0.000  0.127
  2  0.012  0.115  0.000  0.127
tot  0.025  0.229  0.000  0.254
 

 k-point    4 :    0.50000000 0.00000000 0.00000000     weight = 0.01960784

band   1 # energy   -3.84404860 # occ.  2.00000000
 
ion      s      p      d    tot
  1  0.225  0.014  0.000  0.239
  2  0.225  0.014  0.000  0.239
tot  0.451  0.027  0.000  0.478
 
band   2 # energy   -1.21982803 # occ.  2.00000000
 
ion      s      p      d    tot
  1  0.097  0.094  0.000  0.191
  2  0.097  0.094  0.000  0.191
tot  0.194  0.188  0.000  0.382
 
band   3 # energy    4.59286046 # occ.  2.00000000
 
ion      s      p      d    tot
  1  0.000  0.219  0.000  0.219
  2  0.000  0.219  0.000  0.219
tot  0.000  0.437  0.000  0.437
 
band   4 # energy    4.59286054 # occ.  2.00000000
 
ion      s      p      d    tot
  1  0.000  0.219  0.000  0.219
  2  0.000  0.219  0.000  0.219
tot  0.000  0.437  0.000  0.437
 
band   5 # energy    7.25993997 # occ.  0.00000000
 
ion      s      p      d    tot
  1  0.188  0.018  0.000  0.206
  2  0.188  0.018  0.000  0.206
tot  0.376  0.036  0.000  0.412
 
band   6 # energy    9.06541933 # occ.  0.00000000
 
ion      s      p      d    tot
  1  0.000  0.094  0.000  0.094
  2  0.000  0.094  0.000  0.094
tot  0.000  0.187  0.000  0.187
 
band   7 # energy    9.06541936 # occ.  0.00000000
 
ion      s      p      d    tot
  1  0.000  0.094  0.000  0.094
  2  0.000  0.094  0.000  0.094
tot  0.000  0.187  0.000  0.187
 
band   8 # energy   13.30524764 # occ.  0.00000000
 
ion      s      p      d    tot
  1  0.006  0.050  0.000  0.057
  2  0.006  0.050  0.000  0.057
tot  0.013  0.101  0.000  0.114
 

 k-point    5 :    0.16666667 0.16666667 0.00000000     weight = 0.02941176

band   1 # energy   -5.70826617 # occ.  2.00000000
 
ion      s      p      d    tot
  1  0.210  0.005  0.000  0.216
  2  0.210  0.005  0.000  0.216
tot  0.421  0.011  0.000  0.431
 
band   2 # energy    3.75601860 # occ.  2.00000000
 
ion      s      p      d    tot
  1  0.123  0.128  0.000  0.251
  2  0.123  0.128  0.000  0.251
tot  0.246  0.257  0.000  0.502
 
band   3 # energy    4.58837956 # occ.  2.00000000
 
ion      s      p      d    tot
  1  0.000  0.201  0.000  0.201
  2  0.000  0.201  0.000  0.201
tot  0.000  0.402  0.000  0.402
 
band   4 # energy    4.58837961 # occ.  2.00000000
 
ion      s      p      d    tot
  1  0.000  0.201  0.000  0.201
  2  0.000  0.201  0.000  0.201
tot  0.000  0.402  0.000  0.402
 
band   5 # energy    7.41728049 # occ.  0.00000000
 
ion      s      p      d    tot
  1  0.030  0.101  0.000  0.132
  2  0.030  0.101  0.000  0.132
tot  0.061  0.203  0.000  0.263
 
band   6 # energy   10.01930214 # occ.  0.00000000
 
ion      s      p      d    tot
  1  0.112  0.064  0.000  0.176
  2  0.112  0.064  0.000  0.176
tot  0.225  0.128  0.000  0.352
 
band   7 # energy   10.10582536 # occ.  0.00000000
 
ion      s      p      d    tot
  1  0.000  0.166  0.000  0.166
  2  0.000  0.166  0.000  0.166
tot  0.000  0.333  0.000  0.333
 
band   8 # energy   10.10582580 # occ.  0.00000000
 
ion      s      p      d    tot
  1  0.000  0.166  0.000  0.166
  2  0.000  0.166  0.000  0.166
tot  0.000  0.333  0.000  0.333
 

 k-point    6 :    0.33333333 0.16666667 0.00000000     weight = 0.11764706

band   1 # energy   -4.88915077 # occ.  2.00000000
 
ion      s      p      d    tot
  1  0.208  0.013  0.000  0.221
  2  0.208  0.013  0.000  0.221
tot  0.416  0.027  0.000  0.443
 
band   2 # energy    1.34319457 # occ.  2.00000000
 
ion      s      p      d    tot
  1  0.126  0.104  0.000  0.230
  2  0.126  0.104  0.000  0.230
tot  0.253  0.208  0.000  0.461
 
band   3 # energy    3.77834923 # occ.  2.00000000
 
ion      s      p      d    tot
  1  0.034  0.168  0.000  0.203
  2  0.034  0.168  0.000  0.203
tot  0.069  0.336  0.000  0.405
 
band   4 # energy    4.03341441 # occ.  2.00000000
 
ion      s      p      d    tot
  1  0.000  0.201  0.000  0.201
  2  0.000  0.201  0.000  0.201
tot  0.000  0.403  0.000  0.403
 
band   5 # energy    7.67394064 # occ.  0.00000000
 
ion      s      p      d    tot
  1  0.040  0.087  0.000  0.128
  2  0.040  0.087  0.000  0.128
tot  0.081  0.174  0.000  0.255
 
band   6 # energy    9.78538904 # occ.  0.00000000
 
ion      s      p      d    tot
  1  0.067  0.078  0.000  0.145
  2  0.067  0.078  0.000  0.145
tot  0.134  0.155  0.000  0.289
 
band   7 # energy   10.24890793 # occ.  0.00000000
 
ion      s      p      d    tot
  1  0.028  0.101  0.000  0.129
  2  0.028  0.101  0.000  0.129
tot  0.056  0.203  0.000  0.259
 
band   8 # energy   10.82634910 # occ.  0.00000000
 
ion      s      p      d    tot
  1  0.000  0.140  0.000  0.140
  2  0.000  0.140  0.000  0.140
tot  0.000  0.279  0.000  0.279
 

 k-point    7 :    0.50000000 0.16666667 0.00000000     weight = 0.11764706

band   1 # energy   -3.68690671 # occ.  2.00000000
 
ion      s      p      d    tot
  1  0.217  0.019  0.000  0.236
  2  0.217  0.019  0.000  0.236
tot  0.434  0.039  0.000  0.473
 
band   2 # energy   -0.84366700 # occ.  2.00000000
 
ion      s      p      d    tot
  1  0.120  0.087  0.000  0.207
  2  0.120  0.087  0.000  0.207
tot  0.240  0.175  0.000  0.415
 
band   3 # energy    2.98744466 # occ.  2.00000000
 
ion      s      p      d    tot
  1  0.043  0.155  0.000  0.198
  2  0.043  0.155  0.000  0.198
tot  0.086  0.310  0.000  0.396
 
band   4 # energy    4.00606333 # occ.  2.00000000
 
ion      s      p      d    tot
  1  0.000  0.206  0.000  0.206
  2  0.000  0.206  0.000  0.206
tot  0.000  0.413  0.000  0.413
 
band   5 # energy    7.74396501 # occ.  0.00000000
 
ion      s      p      d    tot
  1  0.062  0.058  0.000  0.121
  2  0.062  0.058  0.000  0.121
tot  0.125  0.116  0.000  0.241
 
band   6 # energy    9.84565670 # occ.  0.00000000
 
ion      s      p      d    tot
  1  0.062  0.099  0.000  0.161
  2  0.062  0.099  0.000  0.161
tot  0.124  0.198  0.000  0.322
 
band   7 # energy   10.35777759 # occ.  0.00000000
 
ion      s      p      d    tot
  1  0.000  0.107  0.000  0.107
  2  0.000  0.107  0.000  0.107
tot  0.000  0.214  0.000  0.214
 
band   8 # energy   12.13638008 # occ.  0.00000000
 
ion      s      p      d    tot
  1  0.021  0.103  0.000  0.123
  2  0.021  0.103  0.000  0.123
tot  0.042  0.205  0.000  0.247
 

 k-point    8 :   -0.33333333 0.16666667 0.00000000     weight = 0.11764706

band   1 # energy   -4.07632065 # occ.  2.00000000
 
ion      s      p      d    tot
  1  0.212  0.018  0.000  0.230
  2  0.212  0.018  0.000  0.230
tot  0.423  0.037  0.000  0.460
 
band   2 # energy   -0.23845915 # occ.  2.00000000
 
ion      s      p      d    tot
  1  0.125  0.090  0.000  0.215
  2  0.125  0.090  0.000  0.215
tot  0.250  0.180  0.000  0.430
 
band   3 # energy    2.71137088 # occ.  2.00000000
 
ion      s      p      d    tot
  1  0.035  0.154  0.000  0.190
  2  0.035  0.154  0.000  0.190
tot  0.071  0.309  0.000  0.380
 
band   4 # energy    4.49097053 # occ.  2.00000000
 
ion      s      p      d    tot
  1  0.000  0.213  0.000  0.213
  2  0.000  0.213  0.000  0.213
tot  0.000  0.427  0.000  0.427
 
band   5 # energy    8.16751823 # occ.  0.00000000
 
ion      s      p      d    tot
  1  0.080  0.063  0.000  0.143
  2  0.080  0.063  0.000  0.143
tot  0.161  0.125  0.000  0.286
 
band   6 # energy    9.84272260 # occ.  0.00000000
 
ion      s      p      d    tot
  1  0.047  0.099  0.000  0.145
  2  0.047  0.099  0.000  0.145
tot  0.093  0.197  0.000  0.290
 
band   7 # energy    9.96573614 # occ.  0.00000000
 
ion      s      p      d    tot
  1  0.000  0.115  0.000  0.115
  2  0.000  0.115  0.000  0.115
tot  0.000  0.231  0.000  0.231
 
band   8 # energy   13.02906535 # occ.  0.00000000
 
ion      s      p      d    tot
  1  0.029  0.103  0.000  0.132
  2  0.030  0.107  0.000  0.137
tot  0.059  0.210  0.000  0.269
 

 k-point    9 :   -0.16666667 0.16666667 0.00000000     weight = 0.05882353

band   1 # energy   -5.24068266 # occ.  2.00000000
 
ion      s      p      d    tot
  1  0.209  0.010  0.000  0.219
  2  0.209  0.010  0.000  0.219
tot  0.418  0.020  0.000  0.438
 
band   2 # energy    2.06674795 # occ.  2.00000000
 
ion      s      p      d    tot
  1  0.122  0.113  0.000  0.235
  2  0.122  0.113  0.000  0.235
tot  0.245  0.226  0.000  0.471
 
band   3 # energy    3.34480034 # occ.  2.00000000
 
ion      s      p      d    tot
  1  0.012  0.168  0.000  0.180
  2  0.012  0.168  0.000  0.180
tot  0.024  0.337  0.000  0.361
 
band   4 # energy    5.23085778 # occ.  2.00000000
 
ion      s      p      d    tot
  1  0.000  0.221  0.000  0.221
  2  0.000  0.221  0.000  0.221
tot  0.000  0.441  0.000  0.441
 
band   5 # energy    8.78320303 # occ.  0.00000000
 
ion      s      p      d    tot
  1  0.095  0.091  0.000  0.186
  2  0.095  0.091  0.000  0.186
tot  0.190  0.182  0.000  0.373
 
band   6 # energy    9.30573487 # occ.  0.00000000
 
ion      s      p      d    tot
  1  0.000  0.150  0.000  0.150
  2  0.000  0.150  0.000  0.150
tot  0.000  0.299  0.000  0.299
 
band   7 # energy    9.57662177 # occ.  0.00000000
 
ion      s      p      d    tot
  1  0.031  0.121  0.000  0.152
  2  0.031  0.121  0.000  0.152
tot  0.062  0.243  0.000  0.304
 
band   8 # energy   11.37470512 # occ.  0.00000000
 
ion      s      p      d    tot
  1  0.070  0.094  0.000  0.164
  2  0.070  0.094  0.000  0.164
tot  0.140  0.188  0.000  0.328
 

 k-point   10 :    0.33333333 0.33333333 0.00000000     weight = 0.02941176

band   1 # energy   -4.28243885 # occ.  2.00000000
 
ion      s      p      d    tot
  1  0.203  0.021  0.000  0.224
  2  0.203  0.021  0.000  0.224
tot  0.407  0.042  0.000  0.449
 
band   2 # energy    0.78187023 # occ.  2.00000000
 
ion      s      p      d    tot
  1  0.175  0.079  0.000  0.254
  2  0.175  0.079  0.000  0.254
tot  0.349  0.158  0.000  0.507
 
band   3 # energy    3.35728127 # occ.  2.00000000
 
ion      s      p      d    tot
  1  0.000  0.197  0.000  0.197
  2  0.000  0.197  0.000  0.197
tot  0.000  0.395  0.000  0.395
 
band   4 # energy    3.35728132 # occ.  2.00000000
 
ion      s      p      d    tot
  1  0.000  0.197  0.000  0.197
  2  0.000  0.197  0.000  0.197
tot  0.000  0.395  0.000  0.395
 
band   5 # energy    6.41247535 # occ.  0.00000000
 
ion      s      p      d    tot
  1  0.052  0.056  0.000  0.108
  2  0.052  0.056  0.000  0.108
tot  0.104  0.112  0.000  0.216
 
band   6 # energy    7.66397230 # occ.  0.00000000
 
ion      s      p      d    tot
  1  0.043  0.030  0.000  0.073
  2  0.043  0.030  0.000  0.073
tot  0.087  0.060  0.000  0.146
 
band   7 # energy   13.02127271 # occ.  0.00000000
 
ion      s      p      d    tot
  1  0.000  0.166  0.000  0.166
  2  0.000  0.166  0.000  0.166
tot  0.000  0.332  0.000  0.332
 
band   8 # energy   13.02127530 # occ.  0.00000000
 
ion      s      p      d    tot
  1  0.000  0.166  0.000  0.166
  2  0.000  0.166  0.000  0.166
tot  0.000  0.332  0.000  0.332
 

 k-point   11 :    0.50000000 0.33333333 0.00000000     weight = 0.11764706

band   1 # energy   -3.11167396 # occ.  2.00000000
 
ion      s      p      d    tot
  1  0.203  0.031  0.000  0.234
  2  0.203  0.031  0.000  0.234
tot  0.406  0.063  0.000  0.469
 
band   2 # energy   -0.77694308 # occ.  2.00000000
 
ion      s      p      d    tot
  1  0.185  0.061  0.000  0.246
  2  0.185  0.061  0.000  0.246
tot  0.371  0.122  0.000  0.492
 
band   3 # energy    2.11375703 # occ.  2.00000000
 
ion      s      p      d    tot
  1  0.006  0.162  0.000  0.168
  2  0.006  0.162  0.000  0.168
tot  0.012  0.325  0.000  0.336
 
band   4 # energy    3.22110088 # occ.  2.00000000
 
ion      s      p      d    tot
  1  0.000  0.199  0.000  0.199
  2  0.000  0.199  0.000  0.199
tot  0.000  0.397  0.000  0.397
 
band   5 # energy    6.74203910 # occ.  0.00000000
 
ion      s      p      d    tot
  1  0.051  0.042  0.000  0.093
  2  0.051  0.042  0.000  0.093
tot  0.101  0.085  0.000  0.186
 
band   6 # energy    8.41455922 # occ.  0.00000000
 
ion      s      p      d    tot
  1  0.034  0.072  0.000  0.106
  2  0.034  0.072  0.000  0.106
tot  0.068  0.143  0.000  0.212
 
band   7 # energy   13.19682067 # occ.  0.00000000
 
ion      s      p      d    tot
  1  0.000  0.126  0.000  0.126
  2  0.000  0.126  0.000  0.126
tot  0.000  0.252  0.000  0.252
 
band   8 # energy   13.22358283 # occ.  0.00000000
 
ion      s      p      d    tot
  1  0.041  0.141  0.000  0.183
  2  0.041  0.141  0.000  0.183
tot  0.083  0.282  0.000  0.365
 

 k-point   12 :   -0.33333333 0.33333333 0.00000000     weight = 0.05882353

band   1 # energy   -2.90967292 # occ.  2.00000000
 
ion      s      p      d    tot
  1  0.215  0.028  0.000  0.242
  2  0.215  0.028  0.000  0.242
tot  0.429  0.056  0.000  0.485
 
band   2 # energy   -0.98685224 # occ.  2.00000000
 
ion      s      p      d    tot
  1  0.176  0.063  0.000  0.239
  2  0.176  0.063  0.000  0.239
tot  0.352  0.126  0.000  0.477
 
band   3 # energy    1.31906536 # occ.  2.00000000
 
ion      s      p      d    tot
  1  0.004  0.150  0.000  0.154
  2  0.004  0.150  0.000  0.154
tot  0.008  0.300  0.000  0.308
 
band   4 # energy    3.66752577 # occ.  2.00000000
 
ion      s      p      d    tot
  1  0.000  0.203  0.000  0.203
  2  0.000  0.203  0.000  0.203
tot  0.000  0.406  0.000  0.406
 
band   5 # energy    7.25231348 # occ.  0.00000000
 
ion      s      p      d    tot
  1  0.054  0.044  0.000  0.099
  2  0.054  0.044  0.000  0.099
tot  0.109  0.089  0.000  0.198
 
band   6 # energy   11.50269236 # occ.  0.00000000
 
ion      s      p      d    tot
  1  0.006  0.077  0.000  0.082
  2  0.006  0.076  0.000  0.082
tot  0.011  0.153  0.000  0.164
 
band   7 # energy   12.22508859 # occ.  0.00000000
 
ion      s      p      d    tot
  1  0.000  0.152  0.000  0.152
  2  0.000  0.152  0.000  0.152
tot  0.000  0.305  0.000  0.305
 
band   8 # energy   12.81818405 # occ.  0.00000000
 
ion      s      p      d    tot
  1  0.045  0.136  0.000  0.181
  2  0.047  0.134  0.000  0.180
tot  0.092  0.270  0.000  0.362
 

 k-point   13 :    0.50000000 0.50000000 0.00000000     weight = 0.01470588

band   1 # energy   -2.03309689 # occ.  2.00000000
 
ion      s      p      d    tot
  1  0.193  0.046  0.000  0.239
  2  0.193  0.046  0.000  0.239
tot  0.386  0.091  0.000  0.477
 
band   2 # energy   -2.03309687 # occ.  2.00000000
 
ion      s      p      d    tot
  1  0.193  0.046  0.000  0.239
  2  0.193  0.046  0.000  0.239
tot  0.386  0.091  0.000  0.477
 
band   3 # energy    2.92106570 # occ.  2.00000000
 
ion      s      p      d    tot
  1  0.000  0.197  0.000  0.197
  2  0.000  0.197  0.000  0.197
tot  0.000  0.394  0.000  0.394
 
band   4 # energy    2.92106575 # occ.  2.00000000
 
ion      s      p      d    tot
  1  0.000  0.197  0.000  0.197
  2  0.000  0.197  0.000  0.197
tot  0.000  0.394  0.000  0.394
 
band   5 # energy    6.38180342 # occ.  0.00000000
 
ion      s      p      d    tot
  1  0.052  0.034  0.000  0.086
  2  0.052  0.034  0.000  0.086
tot  0.105  0.068  0.000  0.172
 
band   6 # energy    6.38180343 # occ.  0.00000000
 
ion      s      p      d    tot
  1  0.052  0.034  0.000  0.086
  2  0.052  0.034  0.000  0.086
tot  0.105  0.068  0.000  0.172
 
band   7 # energy   15.85817050 # occ.  0.00000000
 
ion      s      p      d    tot
  1  0.000  0.240  0.000  0.240
  2  0.000  0.240  0.000  0.240
tot  0.000  0.480  0.000  0.480
 
band   8 # energy   15.85974276 # occ.  0.00000000
 
ion      s      p      d    tot
  1  0.000  0.239  0.000  0.239
  2  0.000  0.242  0.000  0.242
tot  0.000  0.481  0.000  0.481
 

 k-point   14 :    0.50000000 0.33333333 0.16666667     weight = 0.11764706

band   1 # energy   -3.89369929 # occ.  2.00000000
 
ion      s      p      d    tot
  1  0.207  0.023  0.000  0.229
  2  0.207  0.023  0.000  0.229
tot  0.413  0.045  0.000  0.459
 
band   2 # energy    0.14476843 # occ.  2.00000000
 
ion      s      p      d    tot
  1  0.170  0.076  0.000  0.246
  2  0.170  0.076  0.000  0.246
tot  0.340  0.152  0.000  0.492
 
band   3 # energy    2.17641520 # occ.  2.00000000
 
ion      s      p      d    tot
  1  0.012  0.158  0.000  0.170
  2  0.012  0.158  0.000  0.170
tot  0.024  0.316  0.000  0.340
 
band   4 # energy    3.47115709 # occ.  2.00000000
 
ion      s      p      d    tot
  1  0.005  0.184  0.000  0.188
  2  0.005  0.184  0.000  0.188
tot  0.009  0.367  0.000  0.376
 
band   5 # energy    8.56901673 # occ.  0.00000000
 
ion      s      p      d    tot
  1  0.029  0.101  0.000  0.131
  2  0.029  0.101  0.000  0.131
tot  0.059  0.202  0.000  0.261
 
band   6 # energy    9.40246196 # occ.  0.00000000
 
ion      s      p      d    tot
  1  0.019  0.059  0.000  0.079
  2  0.019  0.059  0.000  0.079
tot  0.039  0.118  0.000  0.157
 
band   7 # energy    9.97325415 # occ.  0.00000000
 
ion      s      p      d    tot
  1  0.064  0.101  0.000  0.166
  2  0.064  0.101  0.000  0.166
tot  0.128  0.203  0.000  0.331
 
band   8 # energy   12.81599300 # occ.  0.00000000
 
ion      s      p      d    tot
  1  0.006  0.148  0.000  0.153
  2  0.005  0.148  0.000  0.153
tot  0.011  0.296  0.000  0.307
 

 k-point   15 :   -0.33333333 0.33333333 0.16666667     weight = 0.11764706

band   1 # energy   -2.89904478 # occ.  2.00000000
 
ion      s      p      d    tot
  1  0.216  0.027  0.000  0.243
  2  0.216  0.027  0.000  0.243
tot  0.432  0.055  0.000  0.487
 
band   2 # energy   -1.06453395 # occ.  2.00000000
 
ion      s      p      d    tot
  1  0.165  0.067  0.000  0.232
  2  0.165  0.067  0.000  0.232
tot  0.329  0.134  0.000  0.463
 
band   3 # energy    1.73329390 # occ.  2.00000000
 
ion      s      p      d    tot
  1  0.021  0.149  0.000  0.169
  2  0.021  0.149  0.000  0.169
tot  0.041  0.297  0.000  0.339
 
band   4 # energy    2.99614586 # occ.  2.00000000
 
ion      s      p      d    tot
  1  0.001  0.177  0.000  0.179
  2  0.001  0.177  0.000  0.179
tot  0.003  0.355  0.000  0.357
 
band   5 # energy    9.05234579 # occ.  0.00000000
 
ion      s      p      d    tot
  1  0.008  0.085  0.000  0.093
  2  0.008  0.085  0.000  0.093
tot  0.016  0.170  0.000  0.186
 
band   6 # energy    9.28340394 # occ.  0.00000000
 
ion      s      p      d    tot
  1  0.062  0.086  0.000  0.148
  2  0.062  0.086  0.000  0.148
tot  0.124  0.173  0.000  0.296
 
band   7 # energy   11.81270768 # occ.  0.00000000
 
ion      s      p      d    tot
  1  0.019  0.084  0.000  0.103
  2  0.019  0.084  0.000  0.103
tot  0.038  0.169  0.000  0.207
 
band   8 # energy   12.25069438 # occ.  0.00000000
 
ion      s      p      d    tot
  1  0.034  0.121  0.000  0.155
  2  0.034  0.121  0.000  0.155
tot  0.067  0.243  0.000  0.310
 

 k-point   16 :    0.00000000 0.00000000 0.00000000     weight = 0.00000000

band   1 # energy   -6.19423977 # occ.  2.00000000
 
ion      s      p      d    tot
  1  0.213  0.000  0.000  0.213
  2  0.213  0.000  0.000  0.213
tot  0.426  0.000  0.000  0.426
 
band   2 # energy    5.79717461 # occ.  2.00000000
 
ion      s      p      d    tot
  1  0.000  0.216  0.000  0.216
  2  0.000  0.216  0.000  0.216
tot  0.000  0.433  0.000  0.433
 
band   3 # energy    5.79717470 # occ.  2.00000000
 
ion      s      p      d    tot
  1  0.000  0.216  0.000  0.216
  2  0.000  0.216  0.000  0.216
tot  0.000  0.433  0.000  0.433
 
band   4 # energy    5.79717470 # occ.  2.00000000
 
ion      s      p      d    tot
  1  0.000  0.216  0.000  0.216
  2  0.000  0.216  0.000  0.216
tot  0.000  0.433  0.000  0.433
 
band   5 # energy    8.31036629 # occ.  0.00000000
 
ion      s      p      d    tot
  1  0.000  0.151  0.000  0.151
  2  0.000  0.151  0.000  0.151
tot  0.000  0.303  0.000  0.303
 
band   6 # energy    8.31036633 # occ.  0.00000000
 
ion      s      p      d    tot
  1  0.000  0.151  0.000  0.151
  2  0.000  0.151  0.000  0.151
tot  0.000  0.303  0.000  0.303
 
band   7 # energy    8.31036633 # occ.  0.00000000
 
ion      s      p      d    tot
  1  0.000  0.151  0.000  0.151
  2  0.000  0.151  0.000  0.151
tot  0.000  0.303  0.000  0.303
 
band   8 # energy    9.11948526 # occ.  0.00000000
 
ion      s      p      d    tot
  1  0.359  0.000  0.000  0.359
  2  0.359  0.000  0.000  0.359
tot  0.717  0.000  0.000  0.717
 

 k-point   17 :    0.00176056 0.00000000 0.00176056     weight = 0.00000000

band   1 # energy   -6.19418647 # occ.  2.00000000
 
ion      s      p      d    tot
  1  0.213  0.000  0.000  0.213
  2  0.213  0.000  0.000  0.213
tot  0.426  0.000  0.000  0.426
 
band   2 # energy    5.79679445 # occ.  2.00000000
 
ion      s      p      d    tot
  1  0.000  0.216  0.000  0.216
  2  0.000  0.216  0.000  0.216
tot  0.000  0.433  0.000  0.433
 
band   3 # energy    5.79693003 # occ.  2.00000000
 
ion      s      p      d    tot
  1  0.000  0.216  0.000  0.216
  2  0.000  0.216  0.000  0.216
tot  0.000  0.433  0.000  0.433
 
band   4 # energy    5.79693009 # occ.  2.00000000
 
ion      s      p      d    tot
  1  0.000  0.216  0.000  0.216
  2  0.000  0.216  0.000  0.216
tot  0.000  0.433  0.000  0.433
 
band   5 # energy    8.31022287 # occ.  0.00000000
 
ion      s      p      d    tot
  1  0.000  0.151  0.000  0.151
  2  0.000  0.151  0.000  0.151
tot  0.000  0.302  0.000  0.302
 
band   6 # energy    8.31067758 # occ.  0.00000000
 
ion      s      p      d    tot
  1  0.000  0.151  0.000  0.151
  2  0.000  0.151  0.000  0.151
tot  0.000  0.303  0.000  0.303
 
band   7 # energy    8.31067761 # occ.  0.00000000
 
ion      s      p      d    tot
  1  0.000  0.151  0.000  0.151
  2  0.000  0.151  0.000  0.151
tot  0.000  0.303  0.000  0.303
 
band   8 # energy    9.11985892 # occ.  0.00000000
 
ion      s      p      d    tot
  1  0.359  0.000  0.000  0.359
  2  0.359  0.000  0.000  0.359
tot  0.717  0.000  0.000  0.717
 

 k-point   18 :    0.00352113 0.00000000 0.00352113     weight = 0.00000000

band   1 # energy   -6.19402412 # occ.  2.00000000
 
ion      s      p      d    tot
  1  0.213  0.000  0.000  0.213
  2  0.213  0.000  0.000  0.213
tot  0.426  0.000  0.000  0.426
 
band   2 # energy    5.79565434 # occ.  2.00000000
 
ion      s      p      d    tot
  1  0.000  0.216  0.000  0.216
  2  0.000  0.216  0.000  0.216
tot  0.000  0.433  0.000  0.433
 
band   3 # energy    5.79619659 # occ.  2.00000000
 
ion      s      p      d    tot
  1  0.000  0.216  0.000  0.216
  2  0.000  0.216  0.000  0.216
tot  0.000  0.433  0.000  0.433
 
band   4 # energy    5.79619665 # occ.  2.00000000
 
ion      s      p      d    tot
  1  0.000  0.216  0.000  0.216
  2  0.000  0.216  0.000  0.216
tot  0.000  0.433  0.000  0.433
 
band   5 # energy    8.30979265 # occ.  0.00000000
 
ion      s      p      d    tot
  1  0.000  0.151  0.000  0.151
  2  0.000  0.151  0.000  0.151
tot  0.000  0.302  0.000  0.302
 
band   6 # energy    8.31161107 # occ.  0.00000000
 
ion      s      p      d    tot
  1  0.000  0.151  0.000  0.151
  2  0.000  0.151  0.000  0.151
tot  0.000  0.303  0.000  0.303
 
band   7 # energy    8.31161114 # occ.  0.00000000
 
ion      s      p      d    tot
  1  0.000  0.151  0.000  0.151
  2  0.000  0.151  0.000  0.151
tot  0.000  0.303  0.000  0.303
 
band   8 # energy    9.12097932 # occ.  0.00000000
 
ion      s      p      d    tot
  1  0.358  0.000  0.000  0.359
  2  0.358  0.000  0.000  0.359
tot  0.717  0.000  0.000  0.717
 

 k-point   19 :    0.00528169 0.00000000 0.00528169     weight = 0.00000000

band   1 # energy   -6.19375274 # occ.  2.00000000
 
ion      s      p      d    tot
  1  0.213  0.000  0.000  0.213
  2  0.213  0.000  0.000  0.213
tot  0.426  0.000  0.000  0.426
 
band   2 # energy    5.79375598 # occ.  2.00000000
 
ion      s      p      d    tot
  1  0.000  0.216  0.000  0.217
  2  0.000  0.216  0.000  0.217
tot  0.001  0.432  0.000  0.433
 
band   3 # energy    5.79497545 # occ.  2.00000000
 
ion      s      p      d    tot
  1  0.000  0.216  0.000  0.216
  2  0.000  0.216  0.000  0.216
tot  0.000  0.433  0.000  0.433
 
band   4 # energy    5.79497551 # occ.  2.00000000
 
ion      s      p      d    tot
  1  0.000  0.216  0.000  0.216
  2  0.000  0.216  0.000  0.216
tot  0.000  0.433  0.000  0.433
 
band   5 # energy    8.30907586 # occ.  0.00000000
 
ion      s      p      d    tot
  1  0.000  0.151  0.000  0.151
  2  0.000  0.151  0.000  0.151
tot  0.000  0.302  0.000  0.302
 
band   6 # energy    8.31316553 # occ.  0.00000000
 
ion      s      p      d    tot
  1  0.000  0.151  0.000  0.151
  2  0.000  0.151  0.000  0.151
tot  0.000  0.303  0.000  0.303
 
band   7 # energy    8.31316556 # occ.  0.00000000
 
ion      s      p      d    tot
  1  0.000  0.151  0.000  0.151
  2  0.000  0.151  0.000  0.151
tot  0.000  0.303  0.000  0.303
 
band   8 # energy    9.12284448 # occ.  0.00000000
 
ion      s      p      d    tot
  1  0.358  0.000  0.000  0.358
  2  0.358  0.000  0.000  0.358
tot  0.716  0.001  0.000  0.717
 

 k-point   20 :    0.00704225 0.00000000 0.00704225     weight = 0.00000000

band   1 # energy   -6.19337232 # occ.  2.00000000
 
ion      s      p      d    tot
  1  0.213  0.000  0.000  0.213
  2  0.213  0.000  0.000  0.213
tot  0.426  0.000  0.000  0.426
 
band   2 # energy    5.79110210 # occ.  2.00000000
 
ion      s      p      d    tot
  1  0.001  0.216  0.000  0.217
  2  0.001  0.216  0.000  0.217
tot  0.002  0.432  0.000  0.433
 
band   3 # energy    5.79326852 # occ.  2.00000000
 
ion      s      p      d    tot
  1  0.000  0.216  0.000  0.216
  2  0.000  0.216  0.000  0.216