    8    8    1    1
  0.1940965E+02  0.5374217E-09  0.5374217E-09  0.6583682E-09  0.5000000E-15
  1.000000000000000E-004
  CAR 
 Name                                    
     84     51     52
 
  0.0000000E+00  0.0000000E+00  0.0000000E+00  0.6944444E-02
    1      -68.306091
    2      -68.276229
    3      -68.276226
    4      -68.257158
    5      -68.251326
    6      -68.251326
    7      -19.858684
    8      -19.854308
    9      -19.854304
   10      -19.749891
   11      -19.743185
   12      -11.617867
   13       -9.871614
   14       -9.853815
   15       -9.853815
   16       -4.496766
   17       -4.385085
   18       -4.333537
   19       -4.333528
   20       -4.330577
   21       -4.011249
   22       -1.701118
   23       -1.070135
   24       -1.014128
   25       -0.595673
   26       -0.430727
   27       -0.430728
   28        0.179178
   29        0.179179
   30        0.533130
   31        0.580741
   32        0.580741
   33        1.600728
   34        1.683188
   35        1.835020
   36        2.185319
   37        2.243144
   38        2.243147
   39        2.405879
   40        4.256779
   41        4.256776
   42        4.309410
   43        5.846026
   44        7.309855
   45        8.446177
   46        9.304501
   47        9.304794
   48       10.515260
   49       10.816780
   50       10.871310
   51       11.274749
   52       12.613177
 
  0.1666667E+00  0.1890277E-23 -0.1387779E-16  0.2777778E-01
    1      -68.306060
    2      -68.276232
    3      -68.276230
    4      -68.257125
    5      -68.251329
    6      -68.251322
    7      -19.858878
    8      -19.854480
    9      -19.854296
   10      -19.749745
   11      -19.743112
   12      -11.512914
   13       -9.949292
   14       -9.902848
   15       -9.889201
   16       -4.549078
   17       -4.360731
   18       -4.347423
   19       -4.326780
   20       -4.320446
   21       -3.913456
   22       -1.773918
   23       -1.219807
   24       -1.017971
   25       -0.681161
   26       -0.274188
   27       -0.209085
   28        0.071490
   29        0.160729
   30        0.516154
   31        0.566259
   32        0.749143
   33        1.648311
   34        1.771176
   35        1.877496
   36        2.040391
   37        2.199049
   38        2.407359
   39        2.527716
   40        3.647801
   41        3.996198
   42        4.182997
   43        6.465016
   44        7.761990
   45        8.671709
   46        9.049380
   47        9.162957
   48       10.294574
   49       10.770872
   50       10.969693
   51       11.183520
   52       12.076991
 
  0.3333333E+00  0.3780554E-23 -0.2775558E-16  0.2777778E-01
    1      -68.306007
    2      -68.276173
    3      -68.276173
    4      -68.257068
    5      -68.251266
    6      -68.251265
    7      -19.859190
    8      -19.854776
    9      -19.854267
   10      -19.749392
   11      -19.742935
   12      -11.229882
   13      -10.228855
   14       -9.979245
   15       -9.935700
   16       -4.613943
   17       -4.382307
   18       -4.360553
   19       -4.313250
   20       -4.290165
   21       -3.698361
   22       -1.813250
   23       -1.337866
   24       -0.994990
   25       -0.565027
   26       -0.400952
   27       -0.177704
   28        0.005762
   29        0.151374
   30        0.513909
   31        0.643220
   32        0.894286
   33        1.743192
   34        1.856621
   35        1.950263
   36        2.056476
   37        2.230634
   38        2.545783
   39        2.709656
   40        3.096758
   41        3.420474
   42        3.904796
   43        7.125412
   44        8.509311
   45        8.798709
   46        8.904247
   47        9.665487
   48       10.314484
   49       10.896038
   50       11.197856
   51       11.785471
   52       12.024620
 
  0.5000000E+00  0.8979554E-23 -0.5551115E-16  0.2777778E-01
    1      -68.306121
    2      -68.276409
    3      -68.276313
    4      -68.257180
    5      -68.251488
    6      -68.251414
    7      -19.859321
    8      -19.854905
    9      -19.854260
   10      -19.749203
   11      -19.742828
   12      -10.974364
   13      -10.489859
   14      -10.013739
   15       -9.957722
   16       -4.642758
   17       -4.387394
   18       -4.368375
   19       -4.308722
   20       -4.279301
   21       -3.583691
   22       -1.763112
   23       -1.372557
   24       -0.933089
   25       -0.703414
   26       -0.449718
   27       -0.212482
   28        0.074327
   29        0.203884
   30        0.441453
   31        0.742673
   32        0.865966
   33        1.764427
   34        1.857675
   35        1.945881
   36        2.149648
   37        2.269661
   38        2.723204
   39        2.849869
   40        2.933649
   41        3.021529
   42        3.687705
   43        7.379544
   44        8.656934
   45        8.871299
   46        9.777448
   47       10.121374
   48       10.189938
   49       10.824604
   50       11.278126
   51       11.527403
   52       12.087179
 
  0.1666667E+00  0.1666667E+00  0.0000000E+00  0.1388889E-01
    1      -68.306117
    2      -68.276312
    3      -68.276217
    4      -68.257180
    5      -68.251404
    6      -68.251315
    7      -19.859102
    8      -19.854465
    9      -19.854437
   10      -19.749608
   11      -19.743046
   12      -11.374809
   13      -10.043729
   14       -9.954399
   15       -9.946191
   16       -4.623395
   17       -4.372642
   18       -4.364466
   19       -4.312492
   20       -4.298325
   21       -3.790432
   22       -1.903611
   23       -1.377995
   24       -0.853927
   25       -0.483818
   26       -0.445719
   27       -0.160231
   28        0.122872
   29        0.182614
   30        0.494361
   31        0.673925
   32        0.798127
   33        1.688790
   34        1.854428
   35        1.928030
   36        2.032080
   37        2.221073
   38        2.483661
   39        2.622532
   40        3.133197
   41        4.015585
   42        4.044184
   43        6.646095
   44        8.080594
   45        8.417750
   46        8.670811
   47        9.300759
   48       10.429426
   49       10.786139
   50       11.062890
   51       11.312490
   52       11.478791
 
  0.3333333E+00  0.1666667E+00 -0.5551115E-16  0.2777778E-01
    1      -68.306152
    2      -68.276291
    3      -68.276221
    4      -68.257212
    5      -68.251377
    6      -68.251322
    7      -19.859440
    8      -19.854757
    9      -19.854436
   10      -19.749245
   11      -19.742880
   12      -11.090192
   13      -10.272502
   14      -10.065087
   15       -9.975665
   16       -4.661495
   17       -4.399757
   18       -4.368002
   19       -4.303680
   20       -4.281001
   21       -3.660513
   22       -1.949745
   23       -1.528593
   24       -0.966533
   25       -0.621297
   26       -0.259892
   27       -0.066004
   28        0.123290
   29        0.174589
   30        0.531684
   31        0.742379
   32        0.834829
   33        1.726562
   34        1.862554
   35        1.970246
   36        2.084872
   37        2.342293
   38        2.661297
   39        2.717686
   40        2.984744
   41        3.555586
   42        3.858085
   43        6.915916
   44        8.354736
   45        8.591338
   46        8.938822
   47        9.642975
   48       10.673036
   49       11.090845
   50       11.462065
   51       11.701813
   52       12.085597
 
  0.5000000E+00  0.1666667E+00 -0.5551115E-16  0.2777778E-01
    1      -68.306145
    2      -68.276330
    3      -68.276244
    4      -68.257207
    5      -68.251416
    6      -68.251342
    7      -19.859558
    8      -19.854915
    9      -19.854449
   10      -19.749032
   11      -19.742782
   12      -10.935498
   13      -10.428952
   14      -10.099719
   15       -9.954899
   16       -4.654438
   17       -4.392847
   18       -4.366152
   19       -4.300508
   20       -4.277960
   21       -3.655174
   22       -1.966773
   23       -1.589512
   24       -1.055181
   25       -0.746664
   26       -0.232846
   27       -0.008929
   28        0.060101
   29        0.232219
   30        0.532024
   31        0.745114
   32        0.921584
   33        1.757056
   34        1.847196
   35        1.920949
   36        2.069930
   37        2.520272
   38        2.704234
   39        2.897662
   40        3.011921
   41        3.333014
   42        3.603184
   43        7.122321
   44        8.570050
   45        8.905474
   46        9.575213
   47        9.934769
   48       10.505024
   49       10.722039
   50       11.047318
   51       11.622440
   52       12.247332
 
 -0.3333333E+00  0.1666667E+00  0.4163336E-16  0.1388889E-01
    1      -68.306144
    2      -68.276277
    3      -68.276248
    4      -68.257206
    5      -68.251372
    6      -68.251341
    7      -19.859403
    8      -19.854834
    9      -19.854476
   10      -19.749228
   11      -19.742895
   12      -11.212850
   13      -10.187727
   14      -10.042016
   15       -9.904038
   16       -4.584305
   17       -4.371667
   18       -4.362441
   19       -4.306761
   20       -4.291789
   21       -3.802880
   22       -2.030729
   23       -1.530246
   24       -0.923004
   25       -0.788544
   26       -0.320423
   27       -0.054697
   28        0.104969
   29        0.190427
   30        0.537302
   31        0.650552
   32        0.989764
   33        1.732346
   34        1.842495
   35        1.986687
   36        2.045564
   37        2.368310
   38        2.551746
   39        2.834492
   40        3.014585
   41        3.623505
   42        3.856451
   43        6.989441
   44        8.606934
   45        8.784537
   46        8.986157
   47        9.848085
   48       10.357456
   49       10.681765
   50       11.290667
   51       11.633937
   52       12.163022
 
 -0.1666667E+00  0.1666667E+00 -0.8035128E-17  0.1388889E-01
    1      -68.306103
    2      -68.276343
    3      -68.276153
    4      -68.257167
    5      -68.251436
    6      -68.251249
    7      -19.859062
    8      -19.854556
    9      -19.854456
   10      -19.749588
   11      -19.743059
   12      -11.452930
   13      -10.001290
   14       -9.941136
   15       -9.870630
   16       -4.499737
   17       -4.377626
   18       -4.347455
   19       -4.335065
   20       -4.307927
   21       -3.934801
   22       -1.889291
   23       -1.391766
   24       -0.965373
   25       -0.622709
   26       -0.494357
   27       -0.035618
   28        0.102499
   29        0.175530
   30        0.447807
   31        0.671246
   32        0.821251
   33        1.670056
   34        1.838375
   35        1.917718
   36        1.988555
   37        2.142612
   38        2.509572
   39        2.668347
   40        3.342570
   41        3.923454
   42        4.177625
   43        6.603549
   44        7.958982
   45        8.914256
   46        9.205190
   47        9.398209
   48       10.332229
   49       10.600500
   50       11.058063
   51       11.283465
   52       11.454578
 
  0.1666667E+00  0.3333333E+00  0.5551115E-16  0.2777778E-01
    1      -68.306152
    2      -68.276290
    3      -68.276222
    4      -68.257212
    5      -68.251379
    6      -68.251320
    7      -19.859439
    8      -19.854758
    9      -19.854435
   10      -19.749246
   11      -19.742880
   12      -11.090191
   13      -10.272498
   14      -10.065119
   15       -9.975639
   16       -4.660242
   17       -4.398489
   18       -4.372974
   19       -4.302968
   20       -4.281005
   21       -3.656791
   22       -1.949352
   23       -1.564268
   24       -0.914976
   25       -0.556831
   26       -0.305054
   27       -0.149083
   28        0.104402
   29        0.241931
   30        0.500600
   31        0.740943
   32        0.858555
   33        1.739492
   34        1.854864
   35        1.989044
   36        2.069862
   37        2.439836
   38        2.514392
   39        2.767593
   40        2.965490
   41        3.567107
   42        3.862731
   43        6.911506
   44        8.367219
   45        8.571153
   46        8.935252
   47        9.759934
   48       10.461845
   49       11.145452
   50       11.260536
   51       11.751131
   52       12.337730
 
  0.3333333E+00  0.3333333E+00 -0.5551115E-16  0.1388889E-01
    1      -68.306216
    2      -68.276410
    3      -68.276380
    4      -68.257277
    5      -68.251508
    6      -68.251473
    7      -19.859837
    8      -19.854888
    9      -19.854634
   10      -19.748869
   11      -19.742744
   12      -10.876490
   13      -10.286500
   14      -10.138611
   15      -10.111299
   16       -4.689112
   17       -4.413071
   18       -4.380196
   19       -4.286843
   20       -4.276549
   21       -3.679572
   22       -2.146771
   23       -1.735706
   24       -1.396869
   25       -0.327702
   26       -0.072847
   27       -0.015472
   28        0.121666
   29        0.294978
   30        0.546152
   31        0.740657
   32        0.888633
   33        1.728208
   34        1.806721
   35        2.041195
   36        2.091620
   37        2.466395
   38        2.810553
   39        3.019379
   40        3.125889
   41        3.638717
   42        3.679978
   43        6.659263
   44        8.351058
   45        8.907746
   46        9.098309
   47        9.655323
   48       10.596587
   49       10.999113
   50       11.457769
   51       11.513415
   52       12.116613
 
  0.5000000E+00  0.3333333E+00  0.5551115E-16  0.2777778E-01
    1      -68.306230
    2      -68.276348
    3      -68.276278
    4      -68.257290
    5      -68.251451
    6      -68.251372
    7      -19.859976
    8      -19.855070
    9      -19.854633
   10      -19.748636
   11      -19.742664
   12      -10.833354
   13      -10.311912
   14      -10.183214
   15      -10.057571
   16       -4.677352
   17       -4.392433
   18       -4.369025
   19       -4.283758
   20       -4.275240
   21       -3.794480
   22       -2.349336
   23       -1.773555
   24       -1.340284
   25       -0.663853
   26       -0.082762
   27        0.135392
   28        0.226757
   29        0.331638
   30        0.601216
   31        0.722040
   32        0.962637
   33        1.765948
   34        1.798960
   35        1.992022
   36        2.103445
   37        2.593196
   38        2.895909
   39        3.154007
   40        3.242828
   41        3.515894
   42        3.703566
   43        6.642022
   44        8.313855
   45        8.944651
   46        9.486697
   47       10.035669
   48       10.276225
   49       11.122805
   50       11.356027
   51       11.706645
   52       11.912834
 
 -0.3333333E+00  0.3333333E+00  0.1686693E-16  0.1388889E-01
    1      -68.306024
    2      -68.276196
    3      -68.276132
    4      -68.257087
    5      -68.251293
    6      -68.251227
    7      -19.859787
    8      -19.854999
    9      -19.854618
   10      -19.748842
   11      -19.742752
   12      -11.042685
   13      -10.246706
   14      -10.106177
   15       -9.954146
   16       -4.604125
   17       -4.385433
   18       -4.350626
   19       -4.293726
   20       -4.283305
   21       -3.884760
   22       -2.341541
   23       -1.608528
   24       -1.111147
   25       -0.973579
   26       -0.057295
   27        0.036049
   28        0.217259
   29        0.293216
   30        0.594125
   31        0.735961
   32        1.034460
   33        1.755253
   34        1.840459
   35        1.958767
   36        2.082353
   37        2.664892
   38        2.740410
   39        2.876072
   40        3.041818
   41        3.491090
   42        3.958102
   43        6.822138
   44        8.598573
   45        8.669502
   46        9.337026
   47        9.753837
   48       10.394297
   49       11.045489
   50       11.291178
   51       11.418533
   52       12.272041
 
 -0.1666667E+00  0.3333333E+00 -0.1387779E-16  0.1388889E-01
    1      -68.306145
    2      -68.276279
    3      -68.276247
    4      -68.257207
    5      -68.251369
    6      -68.251344
    7      -19.859404
    8      -19.854842
    9      -19.854470
   10      -19.749228
   11      -19.742896
   12      -11.212773
   13      -10.188081
   14      -10.041743
   15       -9.904119
   16       -4.564279
   17       -4.390621
   18       -4.355574
   19       -4.305754
   20       -4.295181
   21       -3.816091
   22       -2.039498
   23       -1.458769
   24       -1.055832
   25       -0.706048
   26       -0.339011
   27       -0.002815
   28        0.115480
   29        0.152846
   30        0.515101
   31        0.760886
   32        0.881939
   33        1.718985
   34        1.858093
   35        1.938896
   36        2.132133
   37        2.282381
   38        2.597255
   39        2.789685
   40        3.074525
   41        3.632579
   42        3.840497
   43        6.998636
   44        8.655372
   45        8.753454
   46        8.973520
   47        9.746362
   48       10.394475
   49       10.893122
   50       11.419676
   51       11.845085
   52       12.293389
 
  0.1666667E+00  0.5000000E+00 -0.1110223E-15  0.2777778E-01
    1      -68.306145
    2      -68.276325
    3      -68.276249
    4      -68.257205
    5      -68.251417
    6      -68.251343
    7      -19.859558
    8      -19.854920
    9      -19.854444
   10      -19.749032
   11      -19.742782
   12      -10.935276
   13      -10.429383
   14      -10.099623
   15       -9.954861
   16       -4.639997
   17       -4.405310
   18       -4.365693
   19       -4.300141
   20       -4.278394
   21       -3.662543
   22       -1.989117
   23       -1.549104
   24       -1.100740
   25       -0.646740
   26       -0.298475
   27       -0.027808
   28        0.110812
   29        0.203107
   30        0.520899
   31        0.806168
   32        0.854525
   33        1.752681
   34        1.847260
   35        1.926205
   36        2.109135
   37        2.466607
   38        2.737066
   39        2.819335
   40        3.090902
   41        3.308232
   42        3.622110
   43        7.127851
   44        8.569384
   45        8.894324
   46        9.596215
   47        9.922324
   48       10.492973
   49       10.679158
   50       11.022669
   51       11.806100
   52       12.031723
 
  0.3333333E+00  0.5000000E+00  0.0000000E+00  0.2777778E-01
    1      -68.306229
    2      -68.276354
    3      -68.276273
    4      -68.257292
    5      -68.251450
    6      -68.251371
    7      -19.859976
    8      -19.855075
    9      -19.854629
   10      -19.748636
   11      -19.742664
   12      -10.833034
   13      -10.313270
   14      -10.182193
   15      -10.057626
   16       -4.660882
   17       -4.416324
   18       -4.360475
   19       -4.283167
   20       -4.276012
   21       -3.798973
   22       -2.358311
   23       -1.762894
   24       -1.350221
   25       -0.596760
   26       -0.127681
   27        0.141239
   28        0.171278
   29        0.375657
   30        0.597843
   31        0.749809
   32        0.921481
   33        1.754901
   34        1.816489
   35        1.950780
   36        2.162558
   37        2.687472
   38        2.751425
   39        3.084880
   40        3.341468
   41        3.526442
   42        3.701612
   43        6.649359
   44        8.313753
   45        8.968327
   46        9.440042
   47        9.940876
   48       10.421393
   49       11.026866
   50       11.327553
   51       11.653717
   52       11.982070
 
  0.5000000E+00  0.5000000E+00  0.1110223E-15  0.1388889E-01
    1      -68.306114
    2      -68.276246
    3      -68.276170
    4      -68.257177
    5      -68.251348
    6      -68.251267
    7      -19.860148
    8      -19.855190
    9      -19.854631
   10      -19.748400
   11      -19.742580
   12      -10.764121
   13      -10.239902
   14      -10.187828
   15      -10.177377
   16       -4.687098
   17       -4.404410
   18       -4.348071
   19       -4.277163
   20       -4.273460
   21       -3.880033
   22       -2.534257
   23       -1.829012
   24       -1.373058
   25       -0.464510
   26       -0.310040
   27        0.182527
   28        0.217622
   29        0.508162
   30        0.640169
   31        0.666180
   32        0.892825
   33        1.772463
   34        1.812854
   35        2.044850
   36        2.119274
   37        2.709634
   38        2.845369
   39        3.338770
   40        3.455414
   41        3.682230
   42        3.784163
   43        6.310839
   44        7.947368
   45        8.790142
   46        9.751680
   47       10.187590
   48       10.713022
   49       10.981705
   50       11.337972
   51       11.655555
   52       12.314439
 
 -0.3579045E-40 -0.3081488E-32  0.2500000E+00  0.1388889E-01
    1      -68.306228
    2      -68.276207
    3      -68.276203
    4      -68.257289
    5      -68.251303
    6      -68.251299
    7      -19.858789
    8      -19.854144
    9      -19.854141
   10      -19.749935
   11      -19.743160
   12      -11.430296
   13      -10.172280
   14       -9.861972
   15       -9.861972
   16       -4.740589
   17       -4.357456
   18       -4.351265
   19       -4.351255
   20       -4.293713
   21       -3.711584
   22       -1.931945
   23       -1.115985
   24       -0.638275
   25       -0.299060
   26       -0.299061
   27       -0.245230
   28        0.173756
   29        0.173757
   30        0.518571
   31        0.628172
   32        0.628172
   33        1.549342
   34        1.767895
   35        1.953669
   36        2.000574
   37        2.425674
   38        2.503862
   39        2.503859
   40        3.537339
   41        3.827832
   42        3.827834
   43        6.690146
   44        7.551285
   45        8.183342
   46        8.183349
   47        8.607423
   48        9.490845
   49       10.063558
   50       10.468077
   51       11.334821
   52       11.334818
 
  0.1666667E+00  0.1182529E-23  0.2500000E+00  0.2777778E-01
    1      -68.306110
    2      -68.276258
    3      -68.276182
    4      -68.257173
    5      -68.251352
    6      -68.251277
    7      -19.858910
    8      -19.854435
    9      -19.854242
   10      -19.749762
   11      -19.743107
   12      -11.451808
   13      -10.017699
   14       -9.944497
   15       -9.883243
   16       -4.636813
   17       -4.370439
   18       -4.345938
   19       -4.327458
   20       -4.301269
   21       -3.804463
   22       -1.829263
   23       -1.183240
   24       -0.974356
   25       -0.553462
   26       -0.257687
   27       -0.172375
   28        0.061750
   29        0.166750
   30        0.525970
   31        0.590526
   32        0.737316
   33        1.653671
   34        1.799174
   35        1.898847
   36        2.036006
   37        2.275164
   38        2.400748
   39        2.538868
   40        3.418574
   41        3.845244
   42        4.194879
   43        6.615582
   44        7.847978
   45        8.411011
   46        8.759041
   47        8.971164
   48       10.113249
   49       10.675123
   50       10.905736
   51       11.003806
   52       11.375366
 
  0.3333333E+00  0.4727168E-23  0.2500000E+00  0.2777778E-01
    1      -68.306156
    2      -68.276279
    3      -68.276269
    4      -68.257217
    5      -68.251375
    6      -68.251359
    7      -19.859179
    8      -19.854812
    9      -19.854304
   10      -19.749387
   11      -19.742946
   12      -11.281181
   13      -10.171562
   14      -10.012275
   15       -9.882376
   16       -4.564422
   17       -4.384649
   18       -4.357797
   19       -4.310409
   20       -4.300492
   21       -3.760063
   22       -1.824919
   23       -1.387056
   24       -0.916450
   25       -0.673535
   26       -0.386377
   27       -0.201162
   28       -0.001088
   29        0.109376
   30        0.535013
   31        0.601205
   32        0.932646
   33        1.731448
   34        1.860206
   35        1.924241
   36        2.047828
   37        2.213410
   38        2.551599
   39        2.731984
   40        3.209746
   41        3.540374
   42        3.806529
   43        7.130497
   44        8.662466
   45        8.795671
   46        8.889739
   47        9.688577
   48       10.332854
   49       10.885534
   50       11.357753
   51       11.702396
   52       12.311030
 
  0.5000000E+00  0.6617445E-23  0.2500000E+00  0.2777778E-01
    1      -68.306153
    2      -68.276316
    3      -68.276268
    4      -68.257214
    5      -68.251390
    6      -68.251375
    7      -19.859325
    8      -19.854902
    9      -19.854259
   10      -19.749198
   11      -19.742830
   12      -10.994301
   13      -10.352621
   14      -10.234400
   15       -9.855105
   16       -4.627741
   17       -4.433825
   18       -4.352701
   19       -4.308680
   20       -4.278872
   21       -3.550723
   22       -1.827497
   23       -1.266071
   24       -0.918356
   25       -0.687303
   26       -0.517367
   27       -0.175566
   28       -0.046144
   29        0.121996
   30        0.531342
   31        0.725884
   32        0.936719
   33        1.774321
   34        1.840013
   35        1.919973
   36        2.180492
   37        2.315707
   38        2.465538
   39        2.659944
   40        3.103974
   41        3.402942
   42        3.627700
   43        7.342415
   44        8.218232
   45        8.836644
   46        9.690022
   47       10.001957
   48       10.715949
   49       11.046363
   50       11.621988
   51       12.041628
   52       12.476084
 
 -0.3333333E+00 -0.2833941E-23  0.2500000E+00  0.2777778E-01
    1      -68.306265
    2      -68.276472
    3      -68.276316
    4      -68.257323
    5      -68.251558
    6      -68.251411
    7      -19.859273
    8      -19.854681
    9      -19.854167
   10      -19.749437
   11      -19.742927
   12      -10.952437
   13      -10.400558
   14      -10.252825
   15       -9.865155
   16       -4.717294
   17       -4.438368
   18       -4.357974
   19       -4.323780
   20       -4.273073
   21       -3.456602
   22       -1.820422
   23       -1.094354
   24       -0.913416
   25       -0.714281
   26       -0.352298
   27       -0.061513
   28        0.088008
   29        0.161082
   30        0.483301
   31        0.797199
   32        0.818017
   33        1.762744
   34        1.837164
   35        1.909832
   36        2.118301
   37        2.351075
   38        2.469665
   39        2.699274
   40        2.963207
   41        3.239526
   42        3.763277
   43        7.198902
   44        7.881401
   45        8.485068
   46        9.339319
   47        9.483772
   48       10.260870
   49       10.684448
   50       11.042151
   51       11.234530
   52       11.553760
 
 -0.1666667E+00 -0.2598025E-23  0.2500000E+00  0.2777778E-01
    1      -68.306244
    2      -68.276276
    3      -68.276226
    4      -68.257301
    5      -68.251371
    6      -68.251318
    7      -19.859003
    8      -19.854293
    9      -19.854111
   10      -19.749801
   11      -19.743084
   12      -11.227945
   13      -10.328703
   14       -9.984710
   15       -9.869974
   16       -4.764095
   17       -4.400957
   18       -4.358442
   19       -4.342025
   20       -4.282462
   21       -3.563842
   22       -1.942208
   23       -1.077428
   24       -0.670622
   25       -0.452080
   26       -0.255722
   27       -0.047259
   28        0.086488
   29        0.170227
   30        0.553682
   31        0.687884
   32        0.728288
   33        1.676613
   34        1.784592
   35        1.930386
   36        1.985902
   37        2.393606
   38        2.550638
   39        2.767906
   40        3.046126
   41        3.407702
   42        3.853367
   43        6.936969
   44        7.853747
   45        7.886324
   46        8.134421
   47        8.998699
   48        9.559629
   49       10.156627
   50       10.498752
   51       11.602315
   52       11.878131
 
  0.1666667E+00  0.1666667E+00  0.2500000E+00  0.1388889E-01
    1      -68.306031
    2      -68.276331
    3      -68.276209
    4      -68.257096
    5      -68.251424
    6      -68.251305
    7      -19.859074
    8      -19.854531
    9      -19.854451
   10      -19.749597
   11      -19.743054
   12      -11.433113
   13      -10.007701
   14       -9.942901
   15       -9.896608
   16       -4.545494
   17       -4.368276
   18       -4.352968
   19       -4.323202
   20       -4.307887
   21       -3.893828
   22       -1.892934
   23       -1.390542
   24       -0.936784
   25       -0.580536
   26       -0.481285
   27       -0.081117
   28        0.115407
   29        0.178407
   30        0.462120
   31        0.671347
   32        0.815057
   33        1.674123
   34        1.846849
   35        1.917524
   36        2.002587
   37        2.166672
   38        2.498613
   39        2.652103
   40        3.265582
   41        3.984530
   42        4.135685
   43        6.607662
   44        7.989466
   45        8.744452
   46        9.056905
   47        9.341513
   48       10.405329
   49       10.701523
   50       11.061539
   51       11.406912
   52       11.943259
 
  0.3333333E+00  0.1666667E+00  0.2500000E+00  0.1388889E-01
    1      -68.306090
    2      -68.276249
    3      -68.276219
    4      -68.257153
    5      -68.251343
    6      -68.251310
    7      -19.859398
    8      -19.854856
    9      -19.854469
   10      -19.749225
   11      -19.742894
   12      -11.229202
   13      -10.169254
   14      -10.055138
   15       -9.884333
   16       -4.539417
   17       -4.400406
   18       -4.350551
   19       -4.306806
   20       -4.297534
   21       -3.839927
   22       -2.058082
   23       -1.402279
   24       -1.117706
   25       -0.745057
   26       -0.318546
   27        0.025286
   28        0.114098
   29        0.133719
   30        0.511586
   31        0.759414
   32        0.895134
   33        1.722376
   34        1.848027
   35        1.922126