 vasp.5.3.5 31Mar14 (build Apr 15 2015 10:45:18) complex                        
  
 executed on             LinuxIFC date 2016.02.17  10:20:45
 running on  256 total cores
 distrk:  each k-point on   16 cores,   16 groups
 distr:  one band on NCORES_PER_BAND=   4 cores,    4 groups


--------------------------------------------------------------------------------------------------------


 INCAR:
 POTCAR:    PAW_PBE Cu_pv 06Sep2000               
 POTCAR:    PAW_PBE Zn 06Sep2000                  
 POTCAR:    PAW_PBE Sn_d 06Sep2000                
 POTCAR:    PAW_PBE S 06Sep2000                   

 ----------------------------------------------------------------------------- 
|                                                                             |
|           W    W    AA    RRRRR   N    N  II  N    N   GGGG   !!!           |
|           W    W   A  A   R    R  NN   N  II  NN   N  G    G  !!!           |
|           W    W  A    A  R    R  N N  N  II  N N  N  G       !!!           |
|           W WW W  AAAAAA  RRRRR   N  N N  II  N  N N  G  GGG   !            |
|           WW  WW  A    A  R   R   N   NN  II  N   NN  G    G                |
|           W    W  A    A  R    R  N    N  II  N    N   GGGG   !!!           |
|                                                                             |
|      For optimal performance we recommend to set                            |
|        NCORE= 4 - approx SQRT( number of cores)                             |
|      NCORE specifies how many cores store one orbital (NPAR=cpu/NCORE).     |
|      This setting can  greatly improve the performance of VASP for DFT.     |
|      The default, NPAR=number of cores might be grossly inefficient         |
|      on modern multi-core architectures or massively parallel machines.     |
|      Do your own testing !!!!                                               |
|      Unfortunately you need to use the default for GW and RPA calculations. |
|      (for HF NCORE is supported but not extensively tested yet)             |
|                                                                             |
 ----------------------------------------------------------------------------- 


 ----------------------------------------------------------------------------- 
|                                                                             |
|           W    W    AA    RRRRR   N    N  II  N    N   GGGG   !!!           |
|           W    W   A  A   R    R  NN   N  II  NN   N  G    G  !!!           |
|           W    W  A    A  R    R  N N  N  II  N N  N  G       !!!           |
|           W WW W  AAAAAA  RRRRR   N  N N  II  N  N N  G  GGG   !            |
|           WW  WW  A    A  R   R   N   NN  II  N   NN  G    G                |
|           W    W  A    A  R    R  N    N  II  N    N   GGGG   !!!           |
|                                                                             |
|      You have enabled k-point parallelism (KPAR>1).                         |
|      This developmental code was originally  written by Paul Kent at ORNL,  |
|      and carefully double checked in Vienna.                                |
|      GW as well as linear response parallelism added by Martijn Marsman     |
|      and Georg Kresse.                                                      |
|      Carefully verify results versus KPAR=1.                                |
|      Report problems to Paul Kent and Vienna.                               |
|                                                                             |
 ----------------------------------------------------------------------------- 


 ----------------------------------------------------------------------------- 
|                                                                             |
|           W    W    AA    RRRRR   N    N  II  N    N   GGGG   !!!           |
|           W    W   A  A   R    R  NN   N  II  NN   N  G    G  !!!           |
|           W    W  A    A  R    R  N N  N  II  N N  N  G       !!!           |
|           W WW W  AAAAAA  RRRRR   N  N N  II  N  N N  G  GGG   !            |
|           WW  WW  A    A  R   R   N   NN  II  N   NN  G    G                |
|           W    W  A    A  R    R  N    N  II  N    N   GGGG   !!!           |
|                                                                             |
|      You have selected ISYM=2 for HF type calculation. This will symmetrize |
|      the charge density but not the exchange potential.                     |
|      I suggest to use ISYM=3 instead. This uses symmetry to obtain          |
|      the orbitals at all k-points in the Brillouine zone, but does not      |
|      apply symmetry to the Hartree potential directly.                      |
|      The resultant charge might have lower symmetry than the crystal,       |
|      but at least, Hartree and exchange are fully compatible.               |
|                                                                             |
 ----------------------------------------------------------------------------- 

 POTCAR:    PAW_PBE Cu_pv 06Sep2000               
   VRHFIN =Cu: d10 p1                                                           
   LEXCH  = PE                                                                  
   EATOM  =  4120.1201 eV,  302.8203 Ry                                         
                                                                                
   TITEL  = PAW_PBE Cu_pv 06Sep2000                                             
   LULTRA =        F    use ultrasoft PP ?                                      
   IUNSCR =        1    unscreen: 0-lin 1-nonlin 2-no                           
   RPACOR =    1.500    partial core radius                                     
   POMASS =   63.546; ZVAL   =   17.000    mass and valenz                      
   RCORE  =    2.000    outmost cutoff radius                                   
   RWIGS  =    2.000; RWIGS  =    1.058    wigner-seitz radius (au A)           
   ENMAX  =  368.648; ENMIN  =  276.486 eV                                      
   RCLOC  =    1.304    cutoff for local pot                                    
   LCOR   =        T    correct aug charges                                     
   LPAW   =        T    paw PP                                                  
   EAUG   =  758.233                                                            
   DEXC   =    0.000                                                            
   RMAX   =    2.046    core radius for proj-oper                               
   RAUG   =    1.300    factor for augmentation sphere                          
   RDEP   =    2.025    radius for radial grids                                 
   RDEPT  =    1.558    core radius for aug-charge                              
                                                                                
   Atomic configuration                                                         
    8 entries                                                                   
     n  l   j            E        occ.                                          
     1  0  0.50     -8850.2467   2.0000                                         
     2  0  0.50     -1062.3498   2.0000                                         
     2  1  1.50      -916.8226   6.0000                                         
     3  0  0.50      -114.6929   2.0000                                         
     3  1  1.50       -72.1325   6.0000                                         
     3  2  2.50        -5.0394  10.0000                                         
     4  0  0.50        -4.6097   1.0000                                         
     4  3  2.50        -1.3606   0.0000                                         
   Description                                                                  
     l       E           TYP  RCUT    TYP  RCUT                                 
     1    -72.1324777     23  1.700                                             
     1     -1.3605826     23  1.700                                             
     2     -5.0393776     23  2.000                                             
     2     -6.3999602     23  2.000                                             
     0     -4.6097062     23  1.800                                             
     0     14.1620818     23  1.800                                             
  local pseudopotential read in
  partial core-charges read in
  partial kinetic energy density read in
  atomic valenz-charges read in
  non local Contribution for L=           1  read in
    real space projection operators read in
  non local Contribution for L=           1  read in
    real space projection operators read in
  non local Contribution for L=           2  read in
    real space projection operators read in
  non local Contribution for L=           2  read in
    real space projection operators read in
  non local Contribution for L=           0  read in
    real space projection operators read in
  non local Contribution for L=           0  read in
    real space projection operators read in
    PAW grid and wavefunctions read in
 
   number of l-projection  operators is LMAX  =           6
   number of lm-projection operators is LMMAX =          18
 
 POTCAR:    PAW_PBE Zn 06Sep2000                  
   VRHFIN =Zn: d10 p2                                                           
   LEXCH  = PE                                                                  
   EATOM  =  1748.8345 eV,  128.5357 Ry                                         
                                                                                
   TITEL  = PAW_PBE Zn 06Sep2000                                                
   LULTRA =        F    use ultrasoft PP ?                                      
   IUNSCR =        1    unscreen: 0-lin 1-nonlin 2-no                           
   RPACOR =    2.000    partial core radius                                     
   POMASS =   65.390; ZVAL   =   12.000    mass and valenz                      
   RCORE  =    2.300    outmost cutoff radius                                   
   RWIGS  =    2.400; RWIGS  =    1.270    wigner-seitz radius (au A)           
   ENMAX  =  276.723; ENMIN  =  207.542 eV                                      
   RCLOC  =    1.828    cutoff for local pot                                    
   LCOR   =        T    correct aug charges                                     
   LPAW   =        T    paw PP                                                  
   EAUG   =  575.892                                                            
   DEXC   =    0.000                                                            
   RMAX   =    2.347    core radius for proj-oper                               
   RAUG   =    1.300    factor for augmentation sphere                          
   RDEP   =    2.324    radius for radial grids                                 
   RDEPT  =    1.788    core radius for aug-charge                              
                                                                                
   Atomic configuration                                                         
    9 entries                                                                   
     n  l   j            E        occ.                                          
     1  0  0.50     -9524.6913   2.0000                                         
     2  0  0.50     -1158.1882   2.0000                                         
     2  1  1.50     -1003.8506   6.0000                                         
     3  0  0.50      -129.2194   2.0000                                         
     3  1  1.50       -83.3890   6.0000                                         
     3  2  2.50       -10.1410  10.0000                                         
     4  0  0.50        -5.9785   2.0000                                         
     4  1  0.50        -4.0817   0.0000                                         
     4  3  2.50        -1.3606   0.0000                                         
   Description                                                                  
     l       E           TYP  RCUT    TYP  RCUT                                 
     2    -10.1410010     23  2.300                                             
     2    -11.5015836     23  2.300                                             
     0     -5.9785163     23  2.300                                             
     0      1.1858015     23  2.300                                             
     1     -2.7211652     23  2.300                                             
     1     13.2444212     23  2.300                                             
  local pseudopotential read in
  partial core-charges read in
  partial kinetic energy density read in
  atomic valenz-charges read in
  non local Contribution for L=           2  read in
    real space projection operators read in
  non local Contribution for L=           2  read in
    real space projection operators read in
  non local Contribution for L=           0  read in
    real space projection operators read in
  non local Contribution for L=           0  read in
    real space projection operators read in
  non local Contribution for L=           1  read in
    real space projection operators read in
  non local Contribution for L=           1  read in
    real space projection operators read in
    PAW grid and wavefunctions read in
 
   number of l-projection  operators is LMAX  =           6
   number of lm-projection operators is LMMAX =          18
 
 POTCAR:    PAW_PBE Sn_d 06Sep2000                
   VRHFIN =Sn: s2p2                                                             
   LEXCH  = PE                                                                  
   EATOM  =  1893.1092 eV,  139.1396 Ry                                         
                                                                                
   TITEL  = PAW_PBE Sn_d 06Sep2000                                              
   LULTRA =        F    use ultrasoft PP ?                                      
   IUNSCR =        1    unscreen: 0-lin 1-nonlin 2-no                           
   RPACOR =    2.300    partial core radius                                     
   POMASS =  118.710; ZVAL   =   14.000    mass and valenz                      
   RCORE  =    2.500    outmost cutoff radius                                   
   RWIGS  =    2.960; RWIGS  =    1.566    wigner-seitz radius (au A)           
   ENMAX  =  241.083; ENMIN  =  180.812 eV                                      
   ICORE  =        3    local potential                                         
   LCOR   =        T    correct aug charges                                     
   LPAW   =        T    paw PP                                                  
   EAUG   =  439.825                                                            
   DEXC   =    0.000                                                            
   RMAX   =    2.560    core radius for proj-oper                               
   RAUG   =    1.300    factor for augmentation sphere                          
   RDEP   =    2.659    radius for radial grids                                 
   RDEPT  =    2.046    core radius for aug-charge                              
                                                                                
   Atomic configuration                                                         
   12 entries                                                                   
     n  l   j            E        occ.                                          
     1  0  0.50    -29007.2859   2.0000                                         
     2  0  0.50     -4378.8056   2.0000                                         
     2  1  1.50     -3930.4293   6.0000                                         
     3  0  0.50      -845.0264   2.0000                                         
     3  1  1.50      -698.5725   6.0000                                         
     3  2  2.50      -473.2839  10.0000                                         
     4  0  0.50      -133.9036   2.0000                                         
     4  1  1.50       -89.6752   6.0000                                         
     4  2  2.50       -25.8375  10.0000                                         
     5  0  0.50       -10.5484   2.0000                                         
     5  1  0.50        -3.6940   2.0000                                         
     4  3  2.50        -2.7416   0.0000                                         
   Description                                                                  
     l       E           TYP  RCUT    TYP  RCUT                                 
     2    -25.8374624     23  2.500                                             
     2     -5.4423304     23  2.500                                             
     0    -10.5483727     23  2.500                                             
     0     13.6058260     23  2.500                                             
     1     -3.6939829     23  2.500                                             
     1      1.9821976     23  2.500                                             
     3     -1.3605826      7  2.500                                             
  local pseudopotential read in
  partial core-charges read in
  partial kinetic energy density read in
  atomic valenz-charges read in
  non local Contribution for L=           2  read in
    real space projection operators read in
  non local Contribution for L=           2  read in
    real space projection operators read in
  non local Contribution for L=           0  read in
    real space projection operators read in
  non local Contribution for L=           0  read in
    real space projection operators read in
  non local Contribution for L=           1  read in
    real space projection operators read in
  non local Contribution for L=           1  read in
    real space projection operators read in
    PAW grid and wavefunctions read in
 
   number of l-projection  operators is LMAX  =           6
   number of lm-projection operators is LMMAX =          18
 
 POTCAR:    PAW_PBE S 06Sep2000                   
   VRHFIN =S : s2p4                                                             
   LEXCH  = PE                                                                  
   EATOM  =   276.8230 eV,   20.3459 Ry                                         
                                                                                
   TITEL  = PAW_PBE S 06Sep2000                                                 
   LULTRA =        F    use ultrasoft PP ?                                      
   IUNSCR =        1    unscreen: 0-lin 1-nonlin 2-no                           
   RPACOR =    1.500    partial core radius                                     
   POMASS =   32.066; ZVAL   =    6.000    mass and valenz                      
   RCORE  =    1.900    outmost cutoff radius                                   
   RWIGS  =    2.200; RWIGS  =    1.164    wigner-seitz radius (au A)           
   ENMAX  =  258.689; ENMIN  =  194.016 eV                                      
   ICORE  =        2    local potential                                         
   LCOR   =        T    correct aug charges                                     
   LPAW   =        T    paw PP                                                  
   EAUG   =  335.092                                                            
   DEXC   =    0.000                                                            
   RMAX   =    1.942    core radius for proj-oper                               
   RAUG   =    1.300    factor for augmentation sphere                          
   RDEP   =    1.954    radius for radial grids                                 
   RDEPT  =    1.744    core radius for aug-charge                              
                                                                                
   Atomic configuration                                                         
    6 entries                                                                   
     n  l   j            E        occ.                                          
     1  0  0.50     -2405.8406   2.0000                                         
     2  0  0.50      -211.7007   2.0000                                         
     2  1  1.50      -156.4958   6.0000                                         
     3  0  0.50       -17.2562   2.0000                                         
     3  1  0.50        -7.0085   4.0000                                         
     3  2  1.50        -6.8029   0.0000                                         
   Description                                                                  
     l       E           TYP  RCUT    TYP  RCUT                                 
     0    -17.2561641     23  1.900                                             
     0    -15.8743224     23  1.900                                             
     1     -7.0085400     23  1.900                                             
     1     -2.7779785     23  1.900                                             
     2     -6.8029130     23  1.900                                             
  local pseudopotential read in
  partial core-charges read in
  partial kinetic energy density read in
  atomic valenz-charges read in
  non local Contribution for L=           0  read in
    real space projection operators read in
  non local Contribution for L=           0  read in
    real space projection operators read in
  non local Contribution for L=           1  read in
    real space projection operators read in
  non local Contribution for L=           1  read in
    real space projection operators read in
    PAW grid and wavefunctions read in
 
   number of l-projection  operators is LMAX  =           4
   number of lm-projection operators is LMMAX =           8
 
  PAW_PBE Cu_pv 06Sep2000               :
 energy of atom  1       EATOM=-4120.1201
 kinetic energy error for atom=    0.0655 (will be added to EATOM!!)
  PAW_PBE Zn 06Sep2000                  :
 energy of atom  2       EATOM=-1748.8345
 kinetic energy error for atom=    0.0029 (will be added to EATOM!!)
  PAW_PBE Sn_d 06Sep2000                :
 energy of atom  3       EATOM=-1893.1092
 kinetic energy error for atom=    0.0032 (will be added to EATOM!!)
  PAW_PBE S 06Sep2000                   :
 energy of atom  4       EATOM= -276.8230
 kinetic energy error for atom=    0.0020 (will be added to EATOM!!)
 
 
 POSCAR: Cu2ZnSnS4 (l.c. = a, z3 = c /2a) - HSE06
  positions in direct lattice
  velocities in cartesian coordinates
 exchange correlation table for  LEXCH =        8
   RHO(1)=    0.500       N(1)  =     2000
   RHO(2)=  100.500       N(2)  =     4000
 


--------------------------------------------------------------------------------------------------------


 ion  position               nearest neighbor table
   1  0.000  0.000  0.000-   6 2.29   7 2.29   5 2.29   8 2.29
   2  0.750  0.250  0.500-   8 2.30   6 2.30   5 2.30   7 2.30
   3  0.500  0.500  0.000-   8 2.32   5 2.32   7 2.32   6 2.32
   4  0.250  0.750  0.500-   7 2.40   5 2.40   6 2.40   8 2.40
   5  0.118  0.134  0.244-   1 2.29   2 2.30   3 2.32   4 2.40
   6  0.639  0.623  0.244-   1 2.29   2 2.30   3 2.32   4 2.40
   7  0.866  0.361  0.756-   1 2.29   2 2.30   3 2.32   4 2.40
   8  0.377  0.882  0.756-   1 2.29   2 2.30   3 2.32   4 2.40
 
  LATTYP: Found a body centered tetragonal cell.
 ALAT       =     5.3742173666
 C/A-ratio  =     2.0007458811
  
  Lattice vectors:
  
 A1 = (   2.6871088888,  -2.6871084778,   5.3762216301)
 A2 = (  -2.6871088888,   2.6871084778,   5.3762216301)
 A3 = (  -2.6871084778,  -2.6871088888,  -5.3762216301)


Analysis of symmetry for initial positions (statically):
=====================================================================
 Subroutine PRICEL returns:
 Original cell was already a primitive cell.
 

 Routine SETGRP: Setting up the symmetry group for a 
 body centered tetragonal supercell.


 Subroutine GETGRP returns: Found  4 space group operations
 (whereof  4 operations were pure point group operations)
 out of a pool of 16 trial point group operations.


The static configuration has the point symmetry S_4 .


Analysis of symmetry for dynamics (positions and initial velocities):
=====================================================================
 Subroutine PRICEL returns:
 Original cell was already a primitive cell.
 

 Routine SETGRP: Setting up the symmetry group for a 
 body centered tetragonal supercell.


 Subroutine GETGRP returns: Found  4 space group operations
 (whereof  4 operations were pure point group operations)
 out of a pool of 16 trial point group operations.


The dynamic configuration has the point symmetry S_4 .
 
 
 KPOINTS: Automatic mesh                          

Automatic generation of k-mesh.
Space group operators:
 irot       det(A)        alpha          n_x          n_y          n_z        tau_x        tau_y        tau_z
    1     1.000000     0.000000     1.000000     0.000000     0.000000     0.000000     0.000000     0.000000
    2    -1.000000    90.000000     0.000000    -0.000000    -1.000000     0.000000     0.000000     0.000000
    3     1.000000   180.000000    -0.000000     0.000000     1.000000     0.000000     0.000000     0.000000
    4    -1.000000    90.000000     0.000000     0.000000     1.000000     0.000000     0.000000     0.000000
 
 Subroutine IBZKPT returns following result:
 ===========================================
 
 Found     51 irreducible k-points:
 
 Following reciprocal coordinates:
            Coordinates               Weight
  0.000000  0.000000  0.000000      1.000000
  0.166667  0.000000 -0.000000      4.000000
  0.333333  0.000000 -0.000000      4.000000
  0.500000  0.000000 -0.000000      4.000000
  0.166667  0.166667  0.000000      2.000000
  0.333333  0.166667 -0.000000      4.000000
  0.500000  0.166667 -0.000000      4.000000
 -0.333333  0.166667  0.000000      2.000000
 -0.166667  0.166667 -0.000000      2.000000
  0.166667  0.333333  0.000000      4.000000
  0.333333  0.333333 -0.000000      2.000000
  0.500000  0.333333  0.000000      4.000000
 -0.333333  0.333333  0.000000      2.000000
 -0.166667  0.333333 -0.000000      2.000000
  0.166667  0.500000 -0.000000      4.000000
  0.333333  0.500000  0.000000      4.000000
  0.500000  0.500000  0.000000      2.000000
 -0.000000 -0.000000  0.250000      2.000000
  0.166667  0.000000  0.250000      4.000000
  0.333333  0.000000  0.250000      4.000000
  0.500000  0.000000  0.250000      4.000000
 -0.333333 -0.000000  0.250000      4.000000
 -0.166667 -0.000000  0.250000      4.000000
  0.166667  0.166667  0.250000      2.000000
  0.333333  0.166667  0.250000      2.000000
  0.500000  0.166667  0.250000      4.000000
 -0.333333  0.166667  0.250000      2.000000
 -0.166667  0.166667  0.250000      4.000000
  0.166667  0.333333  0.250000      2.000000
  0.333333  0.333333  0.250000      2.000000
  0.500000  0.333333  0.250000      4.000000
 -0.333333  0.333333  0.250000      4.000000
 -0.166667  0.333333  0.250000      2.000000
  0.166667  0.500000  0.250000      4.000000
  0.333333  0.500000  0.250000      4.000000
  0.500000  0.500000  0.250000      2.000000
  0.166667 -0.333333  0.250000      2.000000
 -0.333333 -0.333333  0.250000      2.000000
 -0.166667 -0.333333  0.250000      2.000000
  0.333333 -0.166667  0.250000      2.000000
 -0.333333 -0.166667  0.250000      2.000000
 -0.166667 -0.166667  0.250000      2.000000
 -0.000000 -0.000000  0.500000      1.000000
  0.166667  0.000000  0.500000      4.000000
  0.333333  0.000000  0.500000      4.000000
  0.166667  0.166667  0.500000      2.000000
 -0.333333  0.166667  0.500000      2.000000
 -0.166667  0.166667  0.500000      2.000000
  0.333333  0.333333  0.500000      2.000000
 -0.333333  0.333333  0.500000      2.000000
 -0.166667  0.333333  0.500000      2.000000
 
 Following cartesian coordinates:
            Coordinates               Weight
  0.000000  0.000000  0.000000      1.000000
  0.168304  0.000000 -0.084120      4.000000
  0.336607  0.000000 -0.168241      4.000000
  0.504911  0.000000 -0.252361      4.000000
  0.168304  0.168304 -0.168241      2.000000
  0.336607  0.168304 -0.252361      4.000000
  0.504911  0.168304 -0.336482      4.000000
 -0.336607  0.168304  0.084120      2.000000
 -0.168304  0.168304 -0.000000      2.000000
  0.168304  0.336607 -0.252361      4.000000
  0.336607  0.336607 -0.336482      2.000000
  0.504911  0.336607 -0.420602      4.000000
 -0.336607  0.336607 -0.000000      2.000000
 -0.168304  0.336607 -0.084120      2.000000
  0.168304  0.504911 -0.336482      4.000000
  0.336607  0.504911 -0.420602      4.000000
  0.504911  0.504911 -0.504722      2.000000
 -0.000000  0.000000  0.252361      2.000000
  0.168304  0.000000  0.168241      4.000000
  0.336607  0.000000  0.084120      4.000000
  0.504911  0.000000 -0.000000      4.000000
 -0.336607 -0.000000  0.420602      4.000000
 -0.168304 -0.000000  0.336482      4.000000
  0.168304  0.168304  0.084120      2.000000
  0.336607  0.168304 -0.000000      2.000000
  0.504911  0.168304 -0.084120      4.000000
 -0.336607  0.168304  0.336482      2.000000
 -0.168304  0.168304  0.252361      4.000000
  0.168304  0.336607 -0.000000      2.000000
  0.336607  0.336607 -0.084120      2.000000
  0.504911  0.336607 -0.168241      4.000000
 -0.336607  0.336607  0.252361      4.000000
 -0.168304  0.336607  0.168241      2.000000
  0.168304  0.504911 -0.084120      4.000000
  0.336607  0.504911 -0.168241      4.000000
  0.504911  0.504911 -0.252361      2.000000
  0.168304 -0.336607  0.336482      2.000000
 -0.336607 -0.336607  0.588843      2.000000
 -0.168304 -0.336607  0.504722      2.000000
  0.336607 -0.168304  0.168241      2.000000
 -0.336607 -0.168304  0.504722      2.000000
 -0.168304 -0.168304  0.420602      2.000000
 -0.000000  0.000000  0.504722      1.000000
  0.168304  0.000000  0.420602      4.000000
  0.336607  0.000000  0.336482      4.000000
  0.168304  0.168304  0.336482      2.000000
 -0.336607  0.168304  0.588843      2.000000
 -0.168304  0.168304  0.504722      2.000000
  0.336607  0.336607  0.168241      2.000000
 -0.336607  0.336607  0.504722      2.000000
 -0.168304  0.336607  0.420602      2.000000
 

 ----------------------------------------------------------------------------- 
|                                                                             |
|           W    W    AA    RRRRR   N    N  II  N    N   GGGG   !!!           |
|           W    W   A  A   R    R  NN   N  II  NN   N  G    G  !!!           |
|           W    W  A    A  R    R  N N  N  II  N N  N  G       !!!           |
|           W WW W  AAAAAA  RRRRR   N  N N  II  N  N N  G  GGG   !            |
|           WW  WW  A    A  R   R   N   NN  II  N   NN  G    G                |
|           W    W  A    A  R    R  N    N  II  N    N   GGGG   !!!           |
|                                                                             |
|      Your generating k-point grid is not commensurate to the symmetry       |
|      of the lattice.  This can cause   slow convergence with respect        |
|      to k-points for HF type calculations                                   |
|      suggested SOLUTIONS:                                                   |
|       ) if not already the case, use automatic k-point generation           |
|       ) shift your grid to Gamma (G) (e.g. required for hex or fcc lattice) |
|                                                                             |
 ----------------------------------------------------------------------------- 

 
 Subroutine IBZKPT_HF returns following result:
 ==============================================
 
 Found    336 k-points in 1st BZ
 the following    336 k-points will be used (e.g. in the exchange kernel)
 Following reciprocal coordinates:   # in IRBZ
  0.000000  0.000000  0.000000       1 t-inv F
  0.166667  0.000000 -0.000000       2 t-inv F
  0.333333  0.000000 -0.000000       3 t-inv F
  0.500000  0.000000 -0.000000       4 t-inv F
  0.166667  0.166667  0.000000       5 t-inv F
  0.333333  0.166667 -0.000000       6 t-inv F
  0.500000  0.166667 -0.000000       7 t-inv F
 -0.333333  0.166667  0.000000       8 t-inv F
 -0.166667  0.166667 -0.000000       9 t-inv F
  0.166667  0.333333  0.000000      10 t-inv F
  0.333333  0.333333 -0.000000      11 t-inv F
  0.500000  0.333333  0.000000      12 t-inv F
 -0.333333  0.333333  0.000000      13 t-inv F
 -0.166667  0.333333 -0.000000      14 t-inv F
  0.166667  0.500000 -0.000000      15 t-inv F
  0.333333  0.500000  0.000000      16 t-inv F
  0.500000  0.500000  0.000000      17 t-inv F
 -0.000000 -0.000000  0.250000      18 t-inv F
  0.166667  0.000000  0.250000      19 t-inv F
  0.333333  0.000000  0.250000      20 t-inv F
  0.500000  0.000000  0.250000      21 t-inv F
 -0.333333 -0.000000  0.250000      22 t-inv F
 -0.166667 -0.000000  0.250000      23 t-inv F
  0.166667  0.166667  0.250000      24 t-inv F
  0.333333  0.166667  0.250000      25 t-inv F
  0.500000  0.166667  0.250000      26 t-inv F
 -0.333333  0.166667  0.250000      27 t-inv F
 -0.166667  0.166667  0.250000      28 t-inv F
  0.166667  0.333333  0.250000      29 t-inv F
  0.333333  0.333333  0.250000      30 t-inv F
  0.500000  0.333333  0.250000      31 t-inv F
 -0.333333  0.333333  0.250000      32 t-inv F
 -0.166667  0.333333  0.250000      33 t-inv F
  0.166667  0.500000  0.250000      34 t-inv F
  0.333333  0.500000  0.250000      35 t-inv F
  0.500000  0.500000  0.250000      36 t-inv F
  0.166667 -0.333333  0.250000      37 t-inv F
 -0.333333 -0.333333  0.250000      38 t-inv F
 -0.166667 -0.333333  0.250000      39 t-inv F
  0.333333 -0.166667  0.250000      40 t-inv F
 -0.333333 -0.166667  0.250000      41 t-inv F
 -0.166667 -0.166667  0.250000      42 t-inv F
 -0.000000 -0.000000  0.500000      43 t-inv F
  0.166667  0.000000  0.500000      44 t-inv F
  0.333333  0.000000  0.500000      45 t-inv F
  0.166667  0.166667  0.500000      46 t-inv F
 -0.333333  0.166667  0.500000      47 t-inv F
 -0.166667  0.166667  0.500000      48 t-inv F
  0.333333  0.333333  0.500000      49 t-inv F
 -0.333333  0.333333  0.500000      50 t-inv F
 -0.166667  0.333333  0.500000      51 t-inv F
  0.000000 -0.166667  0.000000       2 t-inv F
 -0.166667 -0.000000 -0.166667       2 t-inv F
 -0.000000  0.166667  0.166667       2 t-inv F
  0.000000 -0.333333  0.000000       3 t-inv F
 -0.333333 -0.000000 -0.333333       3 t-inv F
 -0.000000  0.333333  0.333333       3 t-inv F
  0.000000 -0.500000  0.000000       4 t-inv F
 -0.500000 -0.000000 -0.500000       4 t-inv F
 -0.000000  0.500000  0.500000       4 t-inv F
  0.166667 -0.166667  0.166667       5 t-inv F
 -0.166667 -0.166667 -0.333333       5 t-inv F
 -0.166667  0.166667  0.166667       5 t-inv F
  0.166667 -0.333333  0.166667       6 t-inv F
 -0.333333 -0.166667 -0.500000       6 t-inv F
 -0.166667  0.333333  0.333333       6 t-inv F
  0.166667 -0.500000  0.166667       7 t-inv F
 -0.500000 -0.166667 -0.666667       7 t-inv F
 -0.166667  0.500000  0.500000       7 t-inv F
  0.166667  0.333333  0.166667       8 t-inv F
  0.333333 -0.166667  0.166667       8 t-inv F
 -0.166667 -0.333333 -0.333333       8 t-inv F
  0.166667  0.166667  0.166667       9 t-inv F
  0.166667 -0.166667 -0.000000       9 t-inv F
 -0.166667 -0.166667 -0.166667       9 t-inv F
  0.333333 -0.166667  0.333333      10 t-inv F
 -0.166667 -0.333333 -0.500000      10 t-inv F
 -0.333333  0.166667  0.166667      10 t-inv F
  0.333333 -0.333333  0.333333      11 t-inv F
 -0.333333 -0.333333 -0.666667      11 t-inv F
 -0.333333  0.333333  0.333333      11 t-inv F
  0.333333 -0.500000  0.333333      12 t-inv F
 -0.500000 -0.333333 -0.833333      12 t-inv F
 -0.333333  0.500000  0.500000      12 t-inv F
  0.333333  0.333333  0.333333      13 t-inv F
  0.333333 -0.333333  0.000000      13 t-inv F
 -0.333333 -0.333333 -0.333333      13 t-inv F
  0.333333  0.166667  0.333333      14 t-inv F
  0.166667 -0.333333 -0.166667      14 t-inv F
 -0.333333 -0.166667 -0.166667      14 t-inv F
  0.500000 -0.166667  0.500000      15 t-inv F
 -0.166667 -0.500000 -0.666667      15 t-inv F
 -0.500000  0.166667  0.166667      15 t-inv F
  0.500000 -0.333333  0.500000      16 t-inv F
 -0.333333 -0.500000 -0.833333      16 t-inv F
 -0.500000  0.333333  0.333333      16 t-inv F
  0.500000 -0.500000  0.500000      17 t-inv F
 -0.000000  0.000000 -0.250000      18 t-inv F
  0.000000 -0.166667 -0.250000      19 t-inv F
 -0.166667 -0.000000  0.083333      19 t-inv F
 -0.000000  0.166667 -0.083333      19 t-inv F
  0.000000 -0.333333 -0.250000      20 t-inv F
 -0.333333 -0.000000 -0.083333      20 t-inv F
 -0.000000  0.333333  0.083333      20 t-inv F
  0.000000 -0.500000 -0.250000      21 t-inv F
 -0.500000 -0.000000 -0.250000      21 t-inv F
 -0.000000  0.500000  0.250000      21 t-inv F
 -0.000000  0.333333 -0.250000      22 t-inv F
  0.333333  0.000000  0.583333      22 t-inv F
  0.000000 -0.333333 -0.583333      22 t-inv F
 -0.000000  0.166667 -0.250000      23 t-inv F
  0.166667  0.000000  0.416667      23 t-inv F
  0.000000 -0.166667 -0.416667      23 t-inv F
  0.166667 -0.166667 -0.083333      24 t-inv F
 -0.166667 -0.166667 -0.083333      24 t-inv F
 -0.166667  0.166667 -0.083333      24 t-inv F
  0.166667 -0.333333 -0.083333      25 t-inv F
 -0.333333 -0.166667 -0.250000      25 t-inv F
 -0.166667  0.333333  0.083333      25 t-inv F
  0.166667 -0.500000 -0.083333      26 t-inv F
 -0.500000 -0.166667 -0.416667      26 t-inv F
 -0.166667  0.500000  0.250000      26 t-inv F
  0.166667  0.333333 -0.083333      27 t-inv F
  0.333333 -0.166667  0.416667      27 t-inv F
 -0.166667 -0.333333 -0.583333      27 t-inv F
  0.166667  0.166667 -0.083333      28 t-inv F
  0.166667 -0.166667  0.250000      28 t-inv F
 -0.166667 -0.166667 -0.416667      28 t-inv F
  0.333333 -0.166667  0.083333      29 t-inv F
 -0.166667 -0.333333 -0.250000      29 t-inv F
 -0.333333  0.166667 -0.083333      29 t-inv F
  0.333333 -0.333333  0.083333      30 t-inv F
 -0.333333 -0.333333 -0.416667      30 t-inv F
 -0.333333  0.333333  0.083333      30 t-inv F
  0.333333 -0.500000  0.083333      31 t-inv F
 -0.500000 -0.333333 -0.583333      31 t-inv F
 -0.333333  0.500000  0.250000      31 t-inv F
  0.333333  0.333333  0.083333      32 t-inv F
  0.333333 -0.333333  0.250000      32 t-inv F
 -0.333333 -0.333333 -0.583333      32 t-inv F
  0.333333  0.166667  0.083333      33 t-inv F
  0.166667 -0.333333  0.083333      33 t-inv F
 -0.333333 -0.166667 -0.416667      33 t-inv F
  0.500000 -0.166667  0.250000      34 t-inv F
 -0.166667 -0.500000 -0.416667      34 t-inv F
 -0.500000  0.166667 -0.083333      34 t-inv F
  0.500000 -0.333333  0.250000      35 t-inv F
 -0.333333 -0.500000 -0.583333      35 t-inv F
 -0.500000  0.333333  0.083333      35 t-inv F
 -0.333333 -0.166667 -0.583333      37 t-inv F
 -0.166667  0.333333  0.416667      37 t-inv F
  0.333333  0.166667 -0.083333      37 t-inv F
 -0.333333  0.333333 -0.583333      38 t-inv F
  0.333333  0.333333  0.916667      38 t-inv F
  0.333333 -0.333333 -0.583333      38 t-inv F
 -0.333333  0.166667 -0.583333      39 t-inv F
  0.166667  0.333333  0.750000      39 t-inv F
  0.333333 -0.166667 -0.416667      39 t-inv F
 -0.166667 -0.333333 -0.416667      40 t-inv F
 -0.333333  0.166667  0.083333      40 t-inv F
  0.166667  0.333333  0.083333      40 t-inv F
 -0.166667  0.333333 -0.416667      41 t-inv F
  0.333333  0.166667  0.750000      41 t-inv F
  0.166667 -0.333333 -0.583333      41 t-inv F
 -0.166667  0.166667 -0.416667      42 t-inv F
  0.166667  0.166667  0.583333      42 t-inv F
  0.166667 -0.166667 -0.416667      42 t-inv F
  0.000000 -0.166667 -0.500000      44 t-inv F
 -0.166667 -0.000000  0.333333      44 t-inv F
 -0.000000  0.166667 -0.333333      44 t-inv F
  0.000000 -0.333333 -0.500000      45 t-inv F
 -0.333333 -0.000000  0.166667      45 t-inv F
 -0.000000  0.333333 -0.166667      45 t-inv F
  0.166667 -0.166667 -0.333333      46 t-inv F
 -0.166667 -0.166667  0.166667      46 t-inv F
 -0.166667  0.166667 -0.333333      46 t-inv F
  0.166667  0.333333 -0.333333      47 t-inv F
  0.333333 -0.166667  0.666667      47 t-inv F
 -0.166667 -0.333333 -0.833333      47 t-inv F
  0.166667  0.166667 -0.333333      48 t-inv F
  0.166667 -0.166667  0.500000      48 t-inv F
 -0.166667 -0.166667 -0.666667      48 t-inv F
  0.333333 -0.333333 -0.166667      49 t-inv F
 -0.333333 -0.333333 -0.166667      49 t-inv F
 -0.333333  0.333333 -0.166667      49 t-inv F
  0.333333  0.333333 -0.166667      50 t-inv F
  0.333333 -0.333333  0.500000      50 t-inv F
 -0.333333 -0.333333 -0.833333      50 t-inv F
  0.333333  0.166667 -0.166667      51 t-inv F
  0.166667 -0.333333  0.333333      51 t-inv F
 -0.333333 -0.166667 -0.666667      51 t-inv F
 -0.166667 -0.000000  0.000000       2 t-inv T
 -0.000000  0.166667 -0.000000       2 t-inv T
  0.166667  0.000000  0.166667       2 t-inv T
  0.000000 -0.166667 -0.166667       2 t-inv T
 -0.333333 -0.000000  0.000000       3 t-inv T
 -0.000000  0.333333 -0.000000       3 t-inv T
  0.333333  0.000000  0.333333       3 t-inv T
  0.000000 -0.333333 -0.333333       3 t-inv T
 -0.166667 -0.166667  0.000000       5 t-inv T
 -0.166667  0.166667 -0.166667       5 t-inv T
  0.166667  0.166667  0.333333       5 t-inv T
  0.166667 -0.166667 -0.166667       5 t-inv T
 -0.333333 -0.166667  0.000000       6 t-inv T
 -0.166667  0.333333 -0.166667       6 t-inv T
  0.333333  0.166667  0.500000       6 t-inv T
  0.166667 -0.333333 -0.333333       6 t-inv T
 -0.500000 -0.166667  0.000000       7 t-inv T
 -0.166667  0.500000 -0.166667       7 t-inv T
  0.500000  0.166667  0.666667       7 t-inv T
  0.166667 -0.500000 -0.500000       7 t-inv T
  0.333333 -0.166667 -0.000000       8 t-inv T
 -0.166667 -0.333333 -0.166667       8 t-inv T
 -0.333333  0.166667 -0.166667       8 t-inv T
  0.166667  0.333333  0.333333       8 t-inv T
 -0.166667 -0.333333 -0.000000      10 t-inv T
 -0.333333  0.166667 -0.333333      10 t-inv T
  0.166667  0.333333  0.500000      10 t-inv T
  0.333333 -0.166667 -0.166667      10 t-inv T
 -0.333333 -0.333333  0.000000      11 t-inv T
 -0.333333  0.333333 -0.333333      11 t-inv T
  0.333333  0.333333  0.666667      11 t-inv T
  0.333333 -0.333333 -0.333333      11 t-inv T
 -0.500000 -0.333333 -0.000000      12 t-inv T
 -0.333333  0.500000 -0.333333      12 t-inv T
  0.500000  0.333333  0.833333      12 t-inv T
  0.333333 -0.500000 -0.500000      12 t-inv T
  0.166667 -0.333333  0.000000      14 t-inv T
 -0.333333 -0.166667 -0.333333      14 t-inv T
 -0.166667  0.333333  0.166667      14 t-inv T
  0.333333  0.166667  0.166667      14 t-inv T
 -0.166667 -0.500000  0.000000      15 t-inv T
 -0.500000  0.166667 -0.500000      15 t-inv T
  0.166667  0.500000  0.666667      15 t-inv T
  0.500000 -0.166667 -0.166667      15 t-inv T
 -0.333333 -0.500000  0.000000      16 t-inv T
 -0.500000  0.333333 -0.500000      16 t-inv T
  0.333333  0.500000  0.833333      16 t-inv T
  0.500000 -0.333333 -0.333333      16 t-inv T
 -0.166667 -0.000000 -0.250000      19 t-inv T
 -0.000000  0.166667  0.250000      19 t-inv T
  0.166667  0.000000 -0.083333      19 t-inv T
  0.000000 -0.166667  0.083333      19 t-inv T
 -0.333333 -0.000000 -0.250000      20 t-inv T
 -0.000000  0.333333  0.250000      20 t-inv T
  0.333333  0.000000  0.083333      20 t-inv T
  0.000000 -0.333333 -0.083333      20 t-inv T
  0.333333  0.000000 -0.250000      22 t-inv T
  0.000000 -0.333333  0.250000      22 t-inv T
 -0.333333 -0.000000 -0.583333      22 t-inv T
 -0.000000  0.333333  0.583333      22 t-inv T
  0.166667  0.000000 -0.250000      23 t-inv T
  0.000000 -0.166667  0.250000      23 t-inv T
 -0.166667 -0.000000 -0.416667      23 t-inv T
 -0.000000  0.166667  0.416667      23 t-inv T
 -0.166667 -0.166667 -0.250000      24 t-inv T
 -0.166667  0.166667  0.083333      24 t-inv T
  0.166667  0.166667  0.083333      24 t-inv T
  0.166667 -0.166667  0.083333      24 t-inv T
 -0.500000 -0.166667 -0.250000      26 t-inv T
 -0.166667  0.500000  0.083333      26 t-inv T
  0.500000  0.166667  0.416667      26 t-inv T
  0.166667 -0.500000 -0.250000      26 t-inv T
  0.333333 -0.166667 -0.250000      27 t-inv T
 -0.166667 -0.333333  0.083333      27 t-inv T
 -0.333333  0.166667 -0.416667      27 t-inv T
  0.166667  0.333333  0.583333      27 t-inv T
  0.166667 -0.166667 -0.250000      28 t-inv T
 -0.166667 -0.166667  0.083333      28 t-inv T
 -0.166667  0.166667 -0.250000      28 t-inv T
  0.166667  0.166667  0.416667      28 t-inv T
 -0.333333 -0.333333 -0.250000      30 t-inv T
 -0.333333  0.333333 -0.083333      30 t-inv T
  0.333333  0.333333  0.416667      30 t-inv T
  0.333333 -0.333333 -0.083333      30 t-inv T
 -0.500000 -0.333333 -0.250000      31 t-inv T
 -0.333333  0.500000 -0.083333      31 t-inv T
  0.500000  0.333333  0.583333      31 t-inv T
  0.333333 -0.500000 -0.250000      31 t-inv T
  0.333333 -0.333333 -0.250000      32 t-inv T
 -0.333333 -0.333333 -0.083333      32 t-inv T
 -0.333333  0.333333 -0.250000      32 t-inv T
  0.333333  0.333333  0.583333      32 t-inv T
  0.166667 -0.333333 -0.250000      33 t-inv T
 -0.333333 -0.166667 -0.083333      33 t-inv T
 -0.166667  0.333333 -0.083333      33 t-inv T
  0.333333  0.166667  0.416667      33 t-inv T
 -0.166667 -0.500000 -0.250000      34 t-inv T
 -0.500000  0.166667 -0.250000      34 t-inv T
  0.166667  0.500000  0.416667      34 t-inv T
  0.500000 -0.166667  0.083333      34 t-inv T
 -0.333333 -0.500000 -0.250000      35 t-inv T
 -0.500000  0.333333 -0.250000      35 t-inv T
  0.333333  0.500000  0.583333      35 t-inv T
  0.500000 -0.333333 -0.083333      35 t-inv T
 -0.500000 -0.500000 -0.250000      36 t-inv T
 -0.166667  0.333333 -0.250000      37 t-inv T
  0.333333  0.166667  0.583333      37 t-inv T
  0.166667 -0.333333 -0.416667      37 t-inv T
 -0.333333 -0.166667  0.083333      37 t-inv T
  0.333333  0.333333 -0.250000      38 t-inv T
  0.333333 -0.333333  0.583333      38 t-inv T
 -0.333333 -0.333333 -0.916667      38 t-inv T
 -0.333333  0.333333  0.583333      38 t-inv T
 -0.333333  0.166667 -0.250000      40 t-inv T
  0.166667  0.333333  0.416667      40 t-inv T
  0.333333 -0.166667 -0.083333      40 t-inv T
 -0.166667 -0.333333 -0.083333      40 t-inv T
  0.166667  0.166667 -0.250000      42 t-inv T
  0.166667 -0.166667  0.416667      42 t-inv T
 -0.166667 -0.166667 -0.583333      42 t-inv T
 -0.166667  0.166667  0.416667      42 t-inv T
 -0.166667 -0.000000 -0.500000      44 t-inv T
 -0.000000  0.166667  0.500000      44 t-inv T
  0.166667  0.000000 -0.333333      44 t-inv T
  0.000000 -0.166667  0.333333      44 t-inv T
 -0.333333 -0.000000 -0.500000      45 t-inv T
 -0.000000  0.333333  0.500000      45 t-inv T
  0.333333  0.000000 -0.166667      45 t-inv T
  0.000000 -0.333333  0.166667      45 t-inv T
 -0.166667 -0.166667 -0.500000      46 t-inv T
 -0.166667  0.166667  0.333333      46 t-inv T
  0.166667  0.166667 -0.166667      46 t-inv T
  0.166667 -0.166667  0.333333      46 t-inv T
  0.333333 -0.166667 -0.500000      47 t-inv T
 -0.166667 -0.333333  0.333333      47 t-inv T
 -0.333333  0.166667 -0.666667      47 t-inv T
  0.166667  0.333333  0.833333      47 t-inv T
 -0.333333 -0.333333 -0.500000      49 t-inv T
 -0.333333  0.333333  0.166667      49 t-inv T
  0.333333  0.333333  0.166667      49 t-inv T
  0.333333 -0.333333  0.166667      49 t-inv T
  0.166667 -0.333333 -0.500000      51 t-inv T
 -0.333333 -0.166667  0.166667      51 t-inv T
 -0.166667  0.333333 -0.333333      51 t-inv T
  0.333333  0.166667  0.666667      51 t-inv T


--------------------------------------------------------------------------------------------------------




 Dimension of arrays:
   k-points           NKPTS =     51   k-points in BZ     NKDIM =    336   number of bands    NBANDS=     52
   number of dos      NEDOS =    301   number of ions     NIONS =      8
   non local maximal  LDIM  =      6   non local SUM 2l+1 LMDIM =     18
   total plane-waves  NPLWV =  76800
   max r-space proj   IRMAX =      1   max aug-charges    IRDMAX=  22285
   dimension x,y,z NGX =    40 NGY =   40 NGZ =   48
   dimension x,y,z NGXF=    80 NGYF=   80 NGZF=   96
   support grid    NGXF=    80 NGYF=   80 NGZF=   96
   ions per type =               2   1   1   4
 NGX,Y,Z   is equivalent  to a cutoff of  12.37, 12.37, 12.12 a.u.
 NGXF,Y,Z  is equivalent  to a cutoff of  24.75, 24.75, 24.24 a.u.


 I would recommend the setting:
   dimension x,y,z NGX =    39 NGY =   39 NGZ =   48
 SYSTEM =  Name                                    
 POSCAR =  Cu2ZnSnS4 (l.c. = a, z3 = c /2a) - HSE06

 Startparameter for this run:
   NWRITE =      2    write-flag & timer
   PREC   = accura    normal or accurate (medium, high low for compatibility)
   ISTART =      0    job   : 0-new  1-cont  2-samecut
   ICHARG =      2    charge: 1-file 2-atom 10-const
   ISPIN  =      1    spin polarized calculation?
   LNONCOLLINEAR =      F non collinear calculations
   LSORBIT =      F    spin-orbit coupling
   INIWAV =      1    electr: 0-lowe 1-rand  2-diag
   LASPH  =      F    aspherical Exc in radial PAW
   METAGGA=      F    non-selfconsistent MetaGGA calc.

 Electronic Relaxation 1
   ENCUT  =  500.0 eV  36.75 Ry    6.06 a.u.   9.80  9.80 12.00*2*pi/ulx,y,z
   ENINI  =  500.0     initial cutoff
   ENAUG  =  758.2 eV  augmentation charge cutoff
   NELM   =     60;   NELMIN=  2; NELMDL=  0     # of ELM steps 
   EDIFF  = 0.1E-05   stopping-criterion for ELM
   LREAL  =      F    real-space projection
   NLSPLINE    = F    spline interpolate recip. space projectors
   LCOMPAT=      F    compatible to vasp.4.4
   GGA_COMPAT  = T    GGA compatible to vasp.4.4-vasp.4.6
   LMAXPAW     = -100 max onsite density
   LMAXMIX     =    2 max onsite mixed and CHGCAR
   VOSKOWN=      0    Vosko Wilk Nusair interpolation
   ROPT   =    0.00000   0.00000   0.00000   0.00000
 Ionic relaxation
   EDIFFG = -.5E-02   stopping-criterion for IOM
   NSW    =      0    number of steps for IOM
   NBLOCK =      1;   KBLOCK =      1    inner block; outer block 
   IBRION =     -1    ionic relax: 0-MD 1-quasi-New 2-CG
   NFREE  =      1    steps in history (QN), initial steepest desc. (CG)
   ISIF   =      3    stress and relaxation
   IWAVPR =     10    prediction:  0-non 1-charg 2-wave 3-comb
   ISYM   =      2    0-nonsym 1-usesym 2-fastsym
   LCORR  =      T    Harris-Foulkes like correction to forces

   POTIM  = 0.5000    time-step for ionic-motion
   TEIN   =    0.0    initial temperature
   TEBEG  =    0.0;   TEEND  =   0.0 temperature during run
   SMASS  =  -3.00    Nose mass-parameter (am)
   estimated Nose-frequenzy (Omega)   =  0.10E-29 period in steps =****** mass=  -0.660E-27a.u.
   SCALEE = 1.0000    scale energy and forces
   NPACO  =    256;   APACO  = 16.0  distance and # of slots for P.C.
   PSTRESS=    0.0 pullay stress

  Mass of Ions in am
   POMASS =  63.55 65.39118.71 32.07
  Ionic Valenz
   ZVAL   =  17.00 12.00 14.00  6.00
  Atomic Wigner-Seitz radii
   RWIGS  =  -1.00 -1.00 -1.00 -1.00
  virtual crystal weights 
   VCA    =   1.00  1.00  1.00  1.00
   NELECT =      84.0000    total number of electrons
   NUPDOWN=      -1.0000    fix difference up-down

 DOS related values:
   EMIN   =  10.00;   EMAX   =-10.00  energy-range for DOS
   EFERMI =   0.00
   ISMEAR =     0;   SIGMA  =   0.01  broadening in eV -4-tet -1-fermi 0-gaus

 Electronic relaxation 2 (details)
   IALGO  =     58    algorithm
   LDIAG  =      T    sub-space diagonalisation (order eigenvalues)
   LSUBROT=      F    optimize rotation matrix (better conditioning)
   TURBO    =      0    0=normal 1=particle mesh
   IRESTART =      0    0=no restart 2=restart with 2 vectors
   NREBOOT  =      0    no. of reboots
   NMIN     =      0    reboot dimension
   EREF     =   0.00    reference energy to select bands
   IMIX   =      4    mixing-type and parameters
     AMIX     =   0.40;   BMIX     =  1.00
     AMIX_MAG =   1.60;   BMIX_MAG =  1.00
     AMIN     =   0.01
     WC   =   100.;   INIMIX=   1;  MIXPRE=   1;  MAXMIX= -45

 Intra band minimization:
   WEIMIN = 0.0000     energy-eigenvalue tresh-hold
   EBREAK =  0.48E-08  absolut break condition
   DEPER  =   0.30     relativ break condition  

   TIME   =   0.40     timestep for ELM

  volume/ion in A,a.u.               =      19.41       130.98
  Fermi-wavevector in a.u.,A,eV,Ry     =   1.333927  2.520756 24.209678  1.779361
  Thomas-Fermi vector in A             =   2.462748
 
 Write flags
   LWAVE  =      T    write WAVECAR
   LCHARG =      T    write CHGCAR
   LVTOT  =      F    write LOCPOT, total local potential
   LVHAR  =      F    write LOCPOT, Hartree potential only
   LELF   =      F    write electronic localiz. function (ELF)
   LORBIT =     10    0 simple, 1 ext, 2 COOP (PROOUT)


 Dipole corrections
   LMONO  =      F    monopole corrections only (constant potential shift)
   LDIPOL =      F    correct potential (dipole corrections)
   IDIPOL =      0    1-x, 2-y, 3-z, 4-all directions 
   EPSILON=  1.0000000 bulk dielectric constant

 Core level calculations are selected ICORELEVEL =  1
 Exchange correlation treatment:
   GGA     =    PE    GGA type
   LEXCH   =     8    internal setting for exchange type
   VOSKOWN=      0    Vosko Wilk Nusair interpolation
   EXXOEP  =     0    0=HF, 1=EXX-LHF (local Hartree Fock) 2=EXX OEP
   LHFCALC =     T    Hartree Fock is set to
   LSYMGRAD=     F    symmetrize gradient (conserves proper symmetry)
   PRECFOCK=fast      Normal, Fast or Accurate (Low or Medium for compatibility)
   LRHFCALC=     F    long range Hartree Fock
   LRSCOR  =     F    long range correlation only (use DFT for short range part)
   LTHOMAS =     F    Thomas Fermi screening in HF
   LMODELHF=     F    short range full HF, long range fraction AEXX
   ENCUT4O =  -1.0   cutoff for four orbital integrals eV
   LMAXFOCK=     4    L truncation for augmentation on plane wave grid
   LMAXFOCKAE=  -1    L truncation for all-electron charge restoration on plane wave grid
   NMAXFOCKAE=   1    number of basis functions for all-electron charge restoration
   LFOCKAEDFT=     F  apply the AE augmentation even for DFT
   NKREDX  =     1    reduce k-point grid by
   NKREDY  =     1    reduce k-point grid by
   NKREDZ  =     1    reduce k-point grid by
   SHIFTRED=     F    shift reduced grid of Gamma
   HFKIDENT=     F    idential grid for each k-point
   ODDONLY =     F    use only odd q-grid points
   EVENONLY=     F    use only even q-grid points
   HFALPHA =   -1.0000 decay constant for conv. correction
   MCALPHA =    0.0000 extent of test-charge in conv. correction in multipole expansion
   AEXX    =    0.2500 exact exchange contribution
   HFSCREEN=    0.2070 screening length (either q_TF or 0.3 A-1)
   HFSCREENC=   0.2070 screening length for correlation (either q_TF or 0.3 A-1)
   HFRCUT  =    0.0000 spherical cutoff for potential kernel
   ALDAX   =    0.7500 LDA exchange part
   AGGAX   =    0.7500 GGA exchange part
   ALDAC   =    1.0000 LDA correlation
   AGGAC   =    1.0000 GGA correlation
   NBANDSGWLOW=     1    first orbital included in HF term
   ENCUTFOCK=  -1.0 apply spherical cutoff to Coloumb kernel
 Linear response parameters
   LEPSILON=     F    determine dielectric tensor
   LRPA    =     F    only Hartree local field effects (RPA)
   LNABLA  =     F    use nabla operator in PAW spheres
   LVEL    =     F    velocity operator in full k-point grid
   LINTERFAST=   F  fast interpolation
   KINTER  =     0    interpolate to denser k-point grid
   CSHIFT  =0.1000    complex shift for real part using Kramers Kronig
   OMEGAMAX=  -1.0    maximum frequency
   DEG_THRESHOLD= 0.2000000E-02 threshold for treating states as degnerate
   RTIME   =    0.100 relaxation time in fs

 Orbital magnetization related:
   ORBITALMAG=     F  switch on orbital magnetization
   LCHIMAG   =     F  perturbation theory with respect to B field
   DQ        =  0.001000  dq finite difference perturbation B field



--------------------------------------------------------------------------------------------------------


 Static calculation
 charge density and potential will be updated during run
 non-spin polarized calculation
 Conjugate gradient for all bands (Freysoldt, et al. PRB 79, 241103 (2009))
 preconditioned conjugated gradient                                        
 perform sub-space diagonalisation
    before iterative eigenvector-optimisation
 modified Broyden-mixing scheme, WC =      100.0
 initial mixing is a Kerker type mixing with AMIX =  0.4000 and BMIX =      1.0000
 Hartree-type preconditioning will be used
 using additional bands           10
 reciprocal scheme for non local part
 use partial core corrections
 no Harris-corrections to forces 
 use gradient corrections 
 use of overlap-Matrix (Vanderbilt PP)
 Gauss-broadening in eV      SIGMA  =   0.01


--------------------------------------------------------------------------------------------------------


  energy-cutoff  :      500.00
  volume of cell :      155.28
      direct lattice vectors                 reciprocal lattice vectors
     5.374217367  0.000000411  0.000000000     0.186073605  0.000000014 -0.093002118
    -0.000000411  5.374217367 -0.000000000    -0.000000014  0.186073605 -0.093002118
     2.687108478  2.687108889  5.376221630    -0.000000000  0.000000000  0.186004237

  length of vectors
     5.374217367  5.374217367  6.583681733     0.208021106  0.208021106  0.186004237


 
 k-points in units of 2pi/SCALE and weight: Automatic mesh                          
   0.00000000  0.00000000  0.00000000       0.007
   0.16830358  0.00000001 -0.08412042       0.028
   0.33660715  0.00000003 -0.16824083       0.028
   0.50491073  0.00000004 -0.25236125       0.028
   0.16830356  0.16830359 -0.16824083       0.014
   0.33660714  0.16830360 -0.25236125       0.028
   0.50491071  0.16830361 -0.33648166       0.028
  -0.33660716  0.16830355  0.08412042       0.014
  -0.16830359  0.16830356 -0.00000000       0.014
   0.16830355  0.33660716 -0.25236125       0.028
   0.33660713  0.33660718 -0.33648166       0.014
   0.50491070  0.33660719 -0.42060208       0.028
  -0.33660718  0.33660713 -0.00000000       0.014
  -0.16830360  0.33660714 -0.08412042       0.014
   0.16830354  0.50491074 -0.33648166       0.028
   0.33660711  0.50491075 -0.42060208       0.028
   0.50491069  0.50491077 -0.50472250       0.014
  -0.00000000  0.00000000  0.25236125       0.014
   0.16830358  0.00000001  0.16824083       0.028
   0.33660715  0.00000003  0.08412042       0.028
   0.50491073  0.00000004 -0.00000000       0.028
  -0.33660715 -0.00000003  0.42060208       0.028
  -0.16830358 -0.00000001  0.33648166       0.028
   0.16830356  0.16830359  0.08412042       0.014
   0.33660714  0.16830360 -0.00000000       0.014
   0.50491071  0.16830361 -0.08412042       0.028
  -0.33660716  0.16830355  0.33648166       0.014
  -0.16830359  0.16830356  0.25236125       0.028
   0.16830355  0.33660716 -0.00000000       0.014
   0.33660713  0.33660718 -0.08412042       0.014
   0.50491070  0.33660719 -0.16824083       0.028
  -0.33660718  0.33660713  0.25236125       0.028
  -0.16830360  0.33660714  0.16824083       0.014
   0.16830354  0.50491074 -0.08412042       0.028
   0.33660711  0.50491075 -0.16824083       0.028
   0.50491069  0.50491077 -0.25236125       0.014
   0.16830360 -0.33660714  0.33648166       0.014
  -0.33660713 -0.33660718  0.58884291       0.014
  -0.16830355 -0.33660716  0.50472250       0.014
   0.33660716 -0.16830355  0.16824083       0.014
  -0.33660714 -0.16830360  0.50472250       0.014
  -0.16830356 -0.16830359  0.42060208       0.014
  -0.00000000  0.00000000  0.50472250       0.007
   0.16830358  0.00000001  0.42060208       0.028
   0.33660715  0.00000003  0.33648166       0.028
   0.16830356  0.16830359  0.33648166       0.014
  -0.33660716  0.16830355  0.58884291       0.014
  -0.16830359  0.16830356  0.50472250       0.014
   0.33660713  0.33660718  0.16824083       0.014
  -0.33660718  0.33660713  0.50472250       0.014
  -0.16830360  0.33660714  0.42060208       0.014
 
 k-points in reciprocal lattice and weights: Automatic mesh                          
   0.00000000  0.00000000  0.00000000       0.007
   0.16666667  0.00000000 -0.00000000       0.028
   0.33333333  0.00000000 -0.00000000       0.028
   0.50000000  0.00000000 -0.00000000       0.028
   0.16666667  0.16666667  0.00000000       0.014
   0.33333333  0.16666667 -0.00000000       0.028
   0.50000000  0.16666667 -0.00000000       0.028
  -0.33333333  0.16666667  0.00000000       0.014
  -0.16666667  0.16666667 -0.00000000       0.014
   0.16666667  0.33333333  0.00000000       0.028
   0.33333333  0.33333333 -0.00000000       0.014
   0.50000000  0.33333333  0.00000000       0.028
  -0.33333333  0.33333333  0.00000000       0.014
  -0.16666667  0.33333333 -0.00000000       0.014
   0.16666667  0.50000000 -0.00000000       0.028
   0.33333333  0.50000000  0.00000000       0.028
   0.50000000  0.50000000  0.00000000       0.014
  -0.00000000 -0.00000000  0.25000000       0.014
   0.16666667  0.00000000  0.25000000       0.028
   0.33333333  0.00000000  0.25000000       0.028
   0.50000000  0.00000000  0.25000000       0.028
  -0.33333333 -0.00000000  0.25000000       0.028
  -0.16666667 -0.00000000  0.25000000       0.028
   0.16666667  0.16666667  0.25000000       0.014
   0.33333333  0.16666667  0.25000000       0.014
   0.50000000  0.16666667  0.25000000       0.028
  -0.33333333  0.16666667  0.25000000       0.014
  -0.16666667  0.16666667  0.25000000       0.028
   0.16666667  0.33333333  0.25000000       0.014
   0.33333333  0.33333333  0.25000000       0.014
   0.50000000  0.33333333  0.25000000       0.028
  -0.33333333  0.33333333  0.25000000       0.028
  -0.16666667  0.33333333  0.25000000       0.014
   0.16666667  0.50000000  0.25000000       0.028
   0.33333333  0.50000000  0.25000000       0.028
   0.50000000  0.50000000  0.25000000       0.014
   0.16666667 -0.33333333  0.25000000       0.014
  -0.33333333 -0.33333333  0.25000000       0.014
  -0.16666667 -0.33333333  0.25000000       0.014
   0.33333333 -0.16666667  0.25000000       0.014
  -0.33333333 -0.16666667  0.25000000       0.014
  -0.16666667 -0.16666667  0.25000000       0.014
  -0.00000000 -0.00000000  0.50000000       0.007
   0.16666667  0.00000000  0.50000000       0.028
   0.33333333  0.00000000  0.50000000       0.028
   0.16666667  0.16666667  0.50000000       0.014
  -0.33333333  0.16666667  0.50000000       0.014
  -0.16666667  0.16666667  0.50000000       0.014
   0.33333333  0.33333333  0.50000000       0.014
  -0.33333333  0.33333333  0.50000000       0.014
  -0.16666667  0.33333333  0.50000000       0.014
 
 position of ions in fractional coordinates (direct lattice) 
   0.00000000  0.00000000  0.00000000
   0.75000000  0.25000000  0.50000000
   0.50000000  0.50000000  0.00000000
   0.25000000  0.75000000  0.50000000
   0.11777234  0.13390109  0.24359300
   0.63863466  0.62250591  0.24359300
   0.86609891  0.36136534  0.75640700
   0.37749409  0.88222766  0.75640700
 
 position of ions in cartesian coordinates  (Angst):
   0.00000000  0.00000000  0.00000000
   5.37421716  2.68710909  2.68811082
   2.68710848  2.68710889 -0.00000000
   2.68710827  5.37421757  2.68811082
   1.28749493  1.37417453  1.30960993
   4.08672202  4.00004325  1.30960993
   6.68715132  3.97460423  4.06661170
   4.06128259  6.77383132  4.06661170
 


--------------------------------------------------------------------------------------------------------


 k-point  1 :   0.0000 0.0000 0.0000  plane waves:    3931
 k-point  2 :   0.1667 0.0000-0.0000  plane waves:    3926
 k-point  3 :   0.3333 0.0000-0.0000  plane waves:    3910
 k-point  4 :   0.5000 0.0000-0.0000  plane waves:    3948
 k-point  5 :   0.1667 0.1667 0.0000  plane waves:    3933
 k-point  6 :   0.3333 0.1667-0.0000  plane waves:    3932
 k-point  7 :   0.5000 0.1667-0.0000  plane waves:    3937
 k-point  8 :  -0.3333 0.1667 0.0000  plane waves:    3934
 k-point  9 :  -0.1667 0.1667-0.0000  plane waves:    3930
 k-point 10 :   0.1667 0.3333 0.0000  plane waves:    3932
 k-point 11 :   0.3333 0.3333-0.0000  plane waves:    3957
 k-point 12 :   0.5000 0.3333 0.0000  plane waves:    3946
 k-point 13 :  -0.3333 0.3333 0.0000  plane waves:    3908
 k-point 14 :  -0.1667 0.3333-0.0000  plane waves:    3934
 k-point 15 :   0.1667 0.5000-0.0000  plane waves:    3937
 k-point 16 :   0.3333 0.5000 0.0000  plane waves:    3946
 k-point 17 :   0.5000 0.5000 0.0000  plane waves:    3922
 k-point 18 :  -0.0000-0.0000 0.2500  plane waves:    3936
 k-point 19 :   0.1667 0.0000 0.2500  plane waves:    3928
 k-point 20 :   0.3333 0.0000 0.2500  plane waves:    3938
 k-point 21 :   0.5000 0.0000 0.2500  plane waves:    3940
 k-point 22 :  -0.3333-0.0000 0.2500  plane waves:    3963
 k-point 23 :  -0.1667-0.0000 0.2500  plane waves:    3941
 k-point 24 :   0.1667 0.1667 0.2500  plane waves:    3928
 k-point 25 :   0.3333 0.1667 0.2500  plane waves:    3925
 k-point 26 :   0.5000 0.1667 0.2500  plane waves:    3948
 k-point 27 :  -0.3333 0.1667 0.2500  plane waves:    3946
 k-point 28 :  -0.1667 0.1667 0.2500  plane waves:    3951
 k-point 29 :   0.1667 0.3333 0.2500  plane waves:    3925
 k-point 30 :   0.3333 0.3333 0.2500  plane waves:    3938
 k-point 31 :   0.5000 0.3333 0.2500  plane waves:    3933
 k-point 32 :  -0.3333 0.3333 0.2500  plane waves:    3946
 k-point 33 :  -0.1667 0.3333 0.2500  plane waves:    3939
 k-point 34 :   0.1667 0.5000 0.2500  plane waves:    3948
 k-point 35 :   0.3333 0.5000 0.2500  plane waves:    3933
 k-point 36 :   0.5000 0.5000 0.2500  plane waves:    3952
 k-point 37 :   0.1667-0.3333 0.2500  plane waves:    3946
 k-point 38 :  -0.3333-0.3333 0.2500  plane waves:    3957
 k-point 39 :  -0.1667-0.3333 0.2500  plane waves:    3954
 k-point 40 :   0.3333-0.1667 0.2500  plane waves:    3939
 k-point 41 :  -0.3333-0.1667 0.2500  plane waves:    3954
 k-point 42 :  -0.1667-0.1667 0.2500  plane waves:    3943
 k-point 43 :  -0.0000-0.0000 0.5000  plane waves:    3928
 k-point 44 :   0.1667 0.0000 0.5000  plane waves:    3946
 k-point 45 :   0.3333 0.0000 0.5000  plane waves:    3957
 k-point 46 :   0.1667 0.1667 0.5000  plane waves:    3939
 k-point 47 :  -0.3333 0.1667 0.5000  plane waves:    3956
 k-point 48 :  -0.1667 0.1667 0.5000  plane waves:    3934
 k-point 49 :   0.3333 0.3333 0.5000  plane waves:    3938
 k-point 50 :  -0.3333 0.3333 0.5000  plane waves:    3948
 k-point 51 :  -0.1667 0.3333 0.5000  plane waves:    3956

 maximum and minimum number of plane-waves per node :      1035      956

 maximum number of plane-waves:      3963
 maximum index in each direction: 
   IXMAX=   10   IYMAX=   10   IZMAX=   12
   IXMIN=  -10   IYMIN=  -10   IZMIN=  -12

 WARNING: aliasing errors must be expected set NGX to  42 to avoid them
 WARNING: aliasing errors must be expected set NGY to  42 to avoid them
 WARNING: aliasing errors must be expected set NGZ to  50 to avoid them
 aliasing errors are usually negligible using standard VASP settings
 and one can safely disregard these warnings

 parallel 3D FFT for wavefunctions:
    minimum data exchange during FFTs selected (reduces bandwidth)
 parallel 3D FFT for charge:
    minimum data exchange during FFTs selected (reduces bandwidth)


 FFT grid for exact exchange (Hartree Fock) 
  NGX = 24; NGY = 24; NGZ = 28

 
 Radii for the augmentation spheres in the non-local exchange
 for species   1 augmentation radius   1.120 (default was   0.830)
       energy cutoff for augmentation   2000.0
 for species   2 augmentation radius   1.285 (default was   0.952)
       energy cutoff for augmentation   2000.0
 for species   3 augmentation radius   1.471 (default was   1.089)
       energy cutoff for augmentation   2000.0
 for species   4 augmentation radius   1.309 (default was   0.970)
       energy cutoff for augmentation   2000.0

 real space projection operators:
  total allocation   :        963.10 KBytes
  max/ min on nodes  :        243.41        236.35


 total amount of memory used by VASP on root node    99575. kBytes
========================================================================

   base      :      30000. kBytes
   nonl-proj :      29976. kBytes
   fftplans  :       2140. kBytes
   grid      :       3584. kBytes
   one-center:         31. kBytes
   HF        :        129. kBytes
   nonlr-proj:        493. kBytes
   wavefun   :      33222. kBytes
 
     INWAV:  cpu time    0.00: real time    0.00
 Broyden mixing: mesh for mixing (old mesh)
   NGX = 19   NGY = 19   NGZ = 25
  (NGX  = 80   NGY  = 80   NGZ  = 96)
  gives a total of   9025 points

 initial charge density was supplied:
 charge density of overlapping atoms calculated
 number of electron      84.0000000 magnetization 
 charge density for first step will be calculated from the start-wavefunctions


--------------------------------------------------------------------------------------------------------


 Maximum index for augmentation-charges         1338 (set IRDMAX)


--------------------------------------------------------------------------------------------------------


 First call to EWALD:  gamma=   0.330
 Maximum number of real-space cells 3x 3x 3
 Maximum number of reciprocal cells 3x 3x 3

 FEWALD executed in parallel
    FEWALD:  cpu time    0.00: real time    0.00


----------------------------------------- Iteration    1(   1)  ---------------------------------------


    POTLOK:  cpu time    0.14: real time    0.14
    SETDIJ:  cpu time    0.22: real time    0.22
    TRIAL :  cpu time    0.41: real time    0.54
    CORREC:  cpu time    0.00: real time    0.00
    --------------------------------------------
      LOOP:  cpu time    0.78: real time    0.91

 eigenvalue-minimisations  :  7400
 total energy-change (2. order) : 0.4875166E+04  (-0.1575976E+05)
 number of electron      84.0000000 magnetization 
 augmentation part       84.0000000 magnetization 

 Free energy of the ion-electron system (eV)
  ---------------------------------------------------
  alpha Z        PSCENC =       284.22600032
  Ewald energy   TEWEN  =     -7231.03206995
  -Hartree energ DENC   =     -5065.55749552
  -exchange      EXHF   =         0.00000000
  -V(xc)+E(xc)   XCENC  =       288.39022300
  PAW double counting   =     10942.69525278   -11381.18114668
  entropy T*S    EENTRO =        -0.00007836
  eigenvalues    EBANDS =      4062.31400762
  atomic energy  EATOM  =     12975.31123126
  ---------------------------------------------------
  free energy    TOTEN  =      4875.16592447 eV

  energy without entropy =     4875.16600283  energy(sigma->0) =     4875.16596365


--------------------------------------------------------------------------------------------------------




----------------------------------------- Iteration    1(   2)  ---------------------------------------


    TRIAL :  cpu time    0.38: real time    0.38
    CORREC:  cpu time    0.00: real time    0.00
    --------------------------------------------
      LOOP:  cpu time    0.39: real time    0.39

 eigenvalue-minimisations  :  5892
 total energy-change (2. order) :-0.3544118E+04  (-0.3467259E+04)
 number of electron      84.0000000 magnetization 
 augmentation part       84.0000000 magnetization 

 Free energy of the ion-electron system (eV)
  ---------------------------------------------------
  alpha Z        PSCENC =       284.22600032
  Ewald energy   TEWEN  =     -7231.03206995
  -Hartree energ DENC   =     -5065.55749552
  -exchange      EXHF   =         0.00000000
  -V(xc)+E(xc)   XCENC  =       288.39022300
  PAW double counting   =     10942.69525278   -11381.18114668
  entropy T*S    EENTRO =        -0.00025127
  eigenvalues    EBANDS =       518.19628038
  atomic energy  EATOM  =     12975.31123126
  ---------------------------------------------------
  free energy    TOTEN  =      1331.04802433 eV

  energy without entropy =     1331.04827560  energy(sigma->0) =     1331.04814996


--------------------------------------------------------------------------------------------------------




----------------------------------------- Iteration    1(   3)  ---------------------------------------


    TRIAL :  cpu time    0.36: real time    0.36
    CORREC:  cpu time    0.00: real time    0.00
    --------------------------------------------
      LOOP:  cpu time    0.37: real time    0.37

 eigenvalue-minimisations  :  5896
 total energy-change (2. order) :-0.9437668E+03  (-0.9149398E+03)
 number of electron      84.0000000 magnetization 
 augmentation part       84.0000000 magnetization 

 Free energy of the ion-electron system (eV)
  ---------------------------------------------------
  alpha Z        PSCENC =       284.22600032
  Ewald energy   TEWEN  =     -7231.03206995
  -Hartree energ DENC   =     -5065.55749552
  -exchange      EXHF   =         0.00000000
  -V(xc)+E(xc)   XCENC  =       288.39022300
  PAW double counting   =     10942.69525278   -11381.18114668
  entropy T*S    EENTRO =        -0.00007302
  eigenvalues    EBANDS =      -425.57067048
  atomic energy  EATOM  =     12975.31123126
  ---------------------------------------------------
  free energy    TOTEN  =       387.28125171 eV

  energy without entropy =      387.28132473  energy(sigma->0) =      387.28128822


--------------------------------------------------------------------------------------------------------




----------------------------------------- Iteration    1(   4)  ---------------------------------------


    TRIAL :  cpu time    0.37: real time    0.37
    CORREC:  cpu time    0.00: real time    0.00
    --------------------------------------------
      LOOP:  cpu time    0.37: real time    0.37

 eigenvalue-minimisations  :  6012
 total energy-change (2. order) :-0.1775082E+03  (-0.1678572E+03)
 number of electron      84.0000000 magnetization 
 augmentation part       84.0000000 magnetization 

 Free energy of the ion-electron system (eV)
  ---------------------------------------------------
  alpha Z        PSCENC =       284.22600032
  Ewald energy   TEWEN  =     -7231.03206995
  -Hartree energ DENC   =     -5065.55749552
  -exchange      EXHF   =         0.00000000
  -V(xc)+E(xc)   XCENC  =       288.39022300
  PAW double counting   =     10942.69525278   -11381.18114668
  entropy T*S    EENTRO =        -0.00020992
  eigenvalues    EBANDS =      -603.07873102
  atomic energy  EATOM  =     12975.31123126
  ---------------------------------------------------
  free energy    TOTEN  =       209.77305428 eV

  energy without entropy =      209.77326419  energy(sigma->0) =      209.77315924


--------------------------------------------------------------------------------------------------------




----------------------------------------- Iteration    1(   5)  ---------------------------------------


    TRIAL :  cpu time    0.40: real time    0.40
    CORREC:  cpu time    0.00: real time    0.00
    CHARGE:  cpu time    0.03: real time    0.03
    --------------------------------------------
      LOOP:  cpu time    0.43: real time    0.43

 eigenvalue-minimisations  :  6756
 total energy-change (2. order) :-0.2018313E+02  (-0.1929643E+02)
 number of electron      83.9999945 magnetization 
 augmentation part       28.5856852 magnetization 

 Free energy of the ion-electron system (eV)
  ---------------------------------------------------
  alpha Z        PSCENC =       284.22600032
  Ewald energy   TEWEN  =     -7231.03206995
  -Hartree energ DENC   =     -5065.55749552
  -exchange      EXHF   =         0.00000000
  -V(xc)+E(xc)   XCENC  =       288.39022300
  PAW double counting   =     10942.69525278   -11381.18114668
  entropy T*S    EENTRO =        -0.00071338
  eigenvalues    EBANDS =      -623.26135972
  atomic energy  EATOM  =     12975.31123126
  ---------------------------------------------------
  free energy    TOTEN  =       189.58992212 eV

  energy without entropy =      189.59063550  energy(sigma->0) =      189.59027881


--------------------------------------------------------------------------------------------------------




----------------------------------------- Iteration    1(   6)  ---------------------------------------


    POTLOK:  cpu time    0.14: real time    0.14
    SETDIJ:  cpu time    0.22: real time    0.22
    TRIAL :  cpu time  313.04: real time  314.78
    CORREC:  cpu time  313.88: real time  315.90
    CHARGE:  cpu time    0.03: real time    0.03
    --------------------------------------------
      LOOP:  cpu time  627.30: real time  631.07

 eigenvalue-minimisations  :     0
 total energy-change (2. order) :-0.1610354E+02  (-0.4419913E+03)
 number of electron      83.9999925 magnetization 
 augmentation part       36.0039829 magnetization 

 Free energy of the ion-electron system (eV)
  ---------------------------------------------------
  alpha Z        PSCENC =       284.22600032
  Ewald energy   TEWEN  =     -7231.03206995
  -Hartree energ DENC   =     -3534.71909563
  -exchange      EXHF   =       212.25686121
  -V(xc)+E(xc)   XCENC  =       254.57580521
  PAW double counting   =     14665.84503198   -15018.57787595
  entropy T*S    EENTRO =        -0.00000000
  eigenvalues    EBANDS =     -2434.39878970
  atomic energy  EATOM  =     12975.31123126
  ---------------------------------------------------
  free energy    TOTEN  =       173.48638538 eV

  energy without entropy =      173.48638538  energy(sigma->0) =      173.48638538


--------------------------------------------------------------------------------------------------------




----------------------------------------- Iteration    1(   7)  ---------------------------------------


    POTLOK:  cpu time    0.14: real time    0.14
    SETDIJ:  cpu time    0.22: real time    0.22
    TRIAL :  cpu time  312.70: real time  314.35
    CORREC:  cpu time  313.29: real time  315.27
    CHARGE:  cpu time    0.03: real time    0.03
    --------------------------------------------
      LOOP:  cpu time  626.38: real time  630.04

 eigenvalue-minimisations  :     0
 total energy-change (2. order) :-0.1686950E+03  (-0.3365163E+02)
 number of electron      83.9999931 magnetization 
 augmentation part       34.3450128 magnetization 

 Free energy of the ion-electron system (eV)
  ---------------------------------------------------
  alpha Z        PSCENC =       284.22600032
  Ewald energy   TEWEN  =     -7231.03206995
  -Hartree energ DENC   =     -5389.15388513
  -exchange      EXHF   =       244.02083207
  -V(xc)+E(xc)   XCENC  =       296.60614379
  PAW double counting   =     17128.92111314   -17678.79794027
  entropy T*S    EENTRO =        -0.00000000
  eigenvalues    EBANDS =      -625.31006724
  atomic energy  EATOM  =     12975.31123126
  ---------------------------------------------------
  free energy    TOTEN  =         4.79135800 eV

  energy without entropy =        4.79135800  energy(sigma->0) =        4.79135800


--------------------------------------------------------------------------------------------------------




----------------------------------------- Iteration    1(   8)  ---------------------------------------


    POTLOK:  cpu time    0.14: real time    0.14
    SETDIJ:  cpu time    0.22: real time    0.22
    TRIAL :  cpu time  312.97: real time  314.52
    CORREC:  cpu time  313.60: real time  315.44
    CHARGE:  cpu time    0.03: real time    0.03
    --------------------------------------------
[...]
     14     -10.2261      2.00000
     15      -9.9519      2.00000
     16      -4.7097      2.00000
     17      -4.4347      2.00000
     18      -4.3845      2.00000
     19      -4.3038      2.00000
     20      -4.2730      2.00000
     21      -3.5039      2.00000
     22      -1.9407      2.00000
     23      -1.3655      2.00000
     24      -1.1058      2.00000
     25      -0.4954      2.00000
     26      -0.1759      2.00000
     27      -0.0361      2.00000
     28       0.0629      2.00000
     29       0.2178      2.00000
     30       0.4928      2.00000
     31       0.7146      2.00000
     32       0.8484      2.00000
     33       1.7766      2.00000
     34       1.8150      2.00000
     35       1.9161      2.00000
     36       2.1134      2.00000
     37       2.4177      2.00000
     38       2.5104      2.00000
     39       2.8479      2.00000
     40       3.1875      2.00000
     41       3.2425      2.00000
     42       3.7118      2.00000
     43       7.0174      0.00000
     44       8.1539      0.00000
     45       8.5663      0.00000
     46       9.2059      0.00000
     47       9.4842      0.00000
     48      10.1784      0.00000
     49      10.7683      0.00000
     50      11.3224      0.00000
     51      11.5806      0.00000
     52      12.0101      0.00000

 k-point    48 :      -0.1667    0.1667    0.5000
  band No.  band energies     occupation 
      1     -68.3062      2.00000
      2     -68.2762      2.00000
      3     -68.2762      2.00000
      4     -68.2573      2.00000
      5     -68.2513      2.00000
      6     -68.2513      2.00000
      7     -19.8592      2.00000
      8     -19.8544      2.00000
      9     -19.8542      2.00000
     10     -19.7497      2.00000
     11     -19.7430      2.00000
     12     -10.9737      2.00000
     13     -10.5303      2.00000
     14     -10.0037      2.00000
     15      -9.9660      2.00000
     16      -4.7832      2.00000
     17      -4.4086      2.00000
     18      -4.4040      2.00000
     19      -4.3221      2.00000
     20      -4.2767      2.00000
     21      -3.4468      2.00000
     22      -1.9480      2.00000
     23      -1.0725      2.00000
     24      -0.9290      2.00000
     25      -0.2434      2.00000
     26      -0.2129      2.00000
     27      -0.0344      2.00000
     28       0.1050      2.00000
     29       0.1762      2.00000
     30       0.5256      2.00000
     31       0.6609      2.00000
     32       0.7861      2.00000
     33       1.7918      2.00000
     34       1.8166      2.00000
     35       1.8467      2.00000
     36       1.9653      2.00000
     37       2.4762      2.00000
     38       2.5203      2.00000
     39       3.1255      2.00000
     40       3.1738      2.00000
     41       3.2357      2.00000
     42       3.2753      2.00000
     43       7.0132      0.00000
     44       7.7844      0.00000
     45       7.8823      0.00000
     46       8.6151      0.00000
     47       9.0313      0.00000
     48       9.5889      0.00000
     49      10.2899      0.00000
     50      10.7314      0.00000
     51      11.6239      0.00000
     52      12.1043      0.00000

 k-point    49 :       0.3333    0.3333    0.5000
  band No.  band energies     occupation 
      1     -68.3061      2.00000
      2     -68.2763      2.00000
      3     -68.2763      2.00000
      4     -68.2572      2.00000
      5     -68.2514      2.00000
      6     -68.2514      2.00000
      7     -19.8598      2.00000
      8     -19.8549      2.00000
      9     -19.8547      2.00000
     10     -19.7489      2.00000
     11     -19.7428      2.00000
     12     -10.9941      2.00000
     13     -10.2583      2.00000
     14     -10.1165      2.00000
     15     -10.0018      2.00000
     16      -4.6377      2.00000
     17      -4.3897      2.00000
     18      -4.3646      2.00000
     19      -4.2891      2.00000
     20      -4.2849      2.00000
     21      -3.8081      2.00000
     22      -2.2287      2.00000
     23      -1.7985      2.00000
     24      -1.2432      2.00000
     25      -0.5627      2.00000
     26      -0.1720      2.00000
     27       0.0615      2.00000
     28       0.1732      2.00000
     29       0.3042      2.00000
     30       0.5737      2.00000
     31       0.7613      2.00000
     32       0.9662      2.00000
     33       1.7160      2.00000
     34       1.8743      2.00000
     35       1.9995      2.00000
     36       2.0655      2.00000
     37       2.5830      2.00000
     38       2.7699      2.00000
     39       2.9078      2.00000
     40       3.1478      2.00000
     41       3.4729      2.00000
     42       3.8903      2.00000
     43       6.7573      0.00000
     44       8.5106      0.00000
     45       8.7062      0.00000
     46       9.0046      0.00000
     47       9.8593      0.00000
     48      10.5117      0.00000
     49      11.0797      0.00000
     50      11.3252      0.00000
     51      11.8308      0.00000
     52      12.6562      0.00000

 k-point    50 :      -0.3333    0.3333    0.5000
  band No.  band energies     occupation 
      1     -68.3062      2.00000
      2     -68.2764      2.00000
      3     -68.2763      2.00000
      4     -68.2573      2.00000
      5     -68.2515      2.00000
      6     -68.2514      2.00000
      7     -19.8598      2.00000
      8     -19.8550      2.00000
      9     -19.8545      2.00000
     10     -19.7489      2.00000
     11     -19.7427      2.00000
     12     -10.7989      2.00000
     13     -10.3111      2.00000
     14     -10.1796      2.00000
     15     -10.1445      2.00000
     16      -4.7101      2.00000
     17      -4.4188      2.00000
     18      -4.3942      2.00000
     19      -4.2872      2.00000
     20      -4.2714      2.00000
     21      -3.6195      2.00000
     22      -2.1919      2.00000
     23      -1.6126      2.00000
     24      -1.3379      2.00000
     25      -0.3968      2.00000
     26      -0.1976      2.00000
     27       0.0823      2.00000
     28       0.1447      2.00000
     29       0.3624      2.00000
     30       0.5051      2.00000
     31       0.6751      2.00000
     32       0.8839      2.00000
     33       1.7715      2.00000
     34       1.8126      2.00000
     35       1.9716      2.00000
     36       2.0177      2.00000
     37       2.5638      2.00000
     38       2.7047      2.00000
     39       3.2782      2.00000
     40       3.3385      2.00000
     41       3.4144      2.00000
     42       3.4947      2.00000
     43       6.6932      0.00000
     44       8.2740      0.00000
     45       9.1575      0.00000
     46       9.3787      0.00000
     47       9.3832      0.00000
     48      10.5734      0.00000
     49      10.8333      0.00000
     50      11.3512      0.00000
     51      11.5557      0.00000
     52      11.7731      0.00000

 k-point    51 :      -0.1667    0.3333    0.5000
  band No.  band energies     occupation 
      1     -68.3063      2.00000
      2     -68.2764      2.00000
      3     -68.2763      2.00000
      4     -68.2573      2.00000
      5     -68.2515      2.00000
      6     -68.2514      2.00000
      7     -19.8595      2.00000
      8     -19.8547      2.00000
      9     -19.8543      2.00000
     10     -19.7493      2.00000
     11     -19.7429      2.00000
     12     -10.9114      2.00000
     13     -10.3707      2.00000
     14     -10.2260      2.00000
     15      -9.9521      2.00000
     16      -4.7216      2.00000
     17      -4.4239      2.00000
     18      -4.3842      2.00000
     19      -4.3041      2.00000
     20      -4.2726      2.00000
     21      -3.5000      2.00000
     22      -1.9301      2.00000
     23      -1.3725      2.00000
     24      -1.0505      2.00000
     25      -0.6758      2.00000
     26      -0.1661      2.00000
     27       0.0459      2.00000
     28       0.1184      2.00000
     29       0.1889      2.00000
     30       0.4987      2.00000
     31       0.7366      2.00000
     32       0.8420      2.00000
     33       1.7760      2.00000
     34       1.8078      2.00000
     35       1.8939      2.00000
     36       2.0895      2.00000
     37       2.4048      2.00000
     38       2.5633      2.00000
     39       2.8980      2.00000
     40       3.1305      2.00000
     41       3.2594      2.00000
     42       3.6911      2.00000
     43       7.0138      0.00000
     44       8.1676      0.00000
     45       8.5698      0.00000
     46       9.2132      0.00000
     47       9.3745      0.00000
     48      10.4150      0.00000
     49      10.5751      0.00000
     50      11.3277      0.00000
     51      11.7560      0.00000
     52      11.8905      0.00000


--------------------------------------------------------------------------------------------------------


 soft charge-density along one line, spin component           1
         0         1         2         3         4         5         6         7         8         9
 total charge-density along one line
 
 pseudopotential strength for first ion, spin component:           1
-65.182  -0.000  -0.000   7.271   0.000   0.000   0.000  -0.002
 -0.000 -65.166  -0.000   0.000   7.265   0.000   0.023   0.000
 -0.000  -0.000 -65.182   0.000   0.000   7.271   0.000   0.023
  7.271   0.000   0.000   6.128   0.000   0.000  -0.000   0.000
  0.000   7.265   0.000   0.000   6.130   0.000  -0.003  -0.000
  0.000   0.000   7.271   0.000   0.000   6.128  -0.000  -0.003
  0.000   0.023   0.000  -0.000  -0.003  -0.000  -2.770  -0.000
 -0.002   0.000   0.023   0.000  -0.000  -0.003  -0.000  -2.760
  0.000   0.000   0.000   0.000  -0.000   0.000  -0.000  -0.000
  0.023   0.000   0.002  -0.003  -0.000  -0.000  -0.000  -0.000
 -0.000   0.002   0.000   0.000  -0.000  -0.000   0.008   0.000
  0.000   0.022   0.000  -0.000  -0.003  -0.000  -3.420  -0.000
 -0.002   0.000   0.022   0.000  -0.000  -0.003  -0.000  -3.410
  0.000   0.000   0.000   0.000  -0.000   0.000  -0.000  -0.000
  0.022   0.000   0.002  -0.003  -0.000  -0.000  -0.000  -0.000
 -0.000   0.002   0.000   0.000  -0.000  -0.000   0.008   0.000
 -0.000  -0.000  -0.000  -0.000  -0.000  -0.000   0.000   0.000
 -0.000  -0.000  -0.000  -0.000  -0.000  -0.000   0.000   0.000
 total augmentation occupancy for first ion, spin component:           1
  2.000   0.000  -0.000  -0.003  -0.000   0.000   0.000  -0.001  -0.000   0.007   0.000  -0.000   0.001   0.000  -0.008  -0.000
  0.000   2.000   0.000  -0.000  -0.003  -0.000   0.007   0.000   0.000  -0.000   0.001  -0.008  -0.000  -0.000   0.000  -0.001
  0.000   0.000   2.000  -0.000  -0.000  -0.003   0.000   0.007  -0.000   0.001  -0.000  -0.000  -0.008   0.000  -0.001   0.000
 -0.003  -0.000  -0.000   0.104   0.000  -0.000  -0.000   0.010   0.000  -0.454  -0.000   0.000  -0.004  -0.000   0.383   0.000
 -0.000  -0.003  -0.000   0.000   0.102   0.000  -0.451  -0.000   0.000   0.000   0.004   0.381  -0.000   0.000  -0.000  -0.005
  0.000  -0.000  -0.003  -0.000   0.000   0.104  -0.000  -0.454   0.000  -0.010   0.000   0.000   0.383  -0.000   0.004  -0.000
  0.000   0.007   0.000  -0.000  -0.451  -0.000   4.697   0.000  -0.000   0.000   0.196  -2.440  -0.000   0.000  -0.000  -0.114
 -0.001   0.000   0.007   0.010  -0.000  -0.454   0.000   4.658   0.000  -0.000  -0.000  -0.000  -2.398   0.000   0.000   0.000
 -0.000   0.000  -0.000   0.000   0.000   0.000  -0.000   0.000   2.900   0.000  -0.000   0.000   0.000  -0.719   0.000   0.000
  0.007  -0.000   0.001  -0.454   0.000  -0.010   0.000   0.000   0.000   4.658   0.000  -0.000  -0.000   0.000  -2.398  -0.000
  0.000   0.001  -0.000  -0.000   0.004   0.000   0.196  -0.000  -0.000   0.000   2.793  -0.114   0.000   0.000  -0.000  -0.657
 -0.000  -0.008  -0.000   0.000   0.381   0.000  -2.440  -0.000   0.000  -0.000  -0.114   2.163   0.000  -0.000   0.000   0.048
  0.001  -0.000  -0.008  -0.004  -0.000   0.383  -0.000  -2.398   0.000  -0.000   0.000   0.000   2.119  -0.000  -0.000  -0.000
  0.000  -0.000   0.000  -0.000   0.000  -0.000   0.000   0.000  -0.719   0.000   0.000  -0.000  -0.000   0.520  -0.000  -0.000
 -0.008   0.000  -0.001   0.383  -0.000   0.004  -0.000   0.000   0.000  -2.398  -0.000   0.000   0.000  -0.000   2.119   0.000
 -0.000  -0.001   0.000   0.000  -0.005  -0.000  -0.114   0.000   0.000  -0.000  -0.657   0.048  -0.000  -0.000   0.000   0.494
 -0.000   0.000  -0.000  -0.000   0.000   0.000  -0.000   0.000   0.038   0.000   0.000   0.000  -0.000  -0.022  -0.000   0.000
 -0.000   0.000   0.000  -0.000   0.000   0.000   0.000  -0.000  -0.010  -0.000   0.000  -0.000   0.000   0.003   0.000   0.000


------------------------ aborting loop because EDIFF is reached ----------------------------------------


 


 total charge     
 
# of ion     s       p       d       tot
----------------------------------------
  1        0.215   6.175   9.061  15.452
  2        0.214   6.173   9.062  15.449
  3        0.500   0.488   9.840  10.828
  4        1.082   1.182  10.137  12.401
  5        1.318   2.430   0.000   3.747
  6        1.318   2.430   0.000   3.748
  7        1.318   2.430   0.000   3.748
  8        1.317   2.429   0.000   3.746
------------------------------------------------
tot        7.283  23.736  38.101  69.120
 
    FORLOC:  cpu time    0.00: real time    0.00
    FORHF :  cpu time  905.36: real time  908.39
    FORNL :  cpu time    0.06: real time    0.06
    STRESS:  cpu time    0.53: real time    0.53
    FORCOR:  cpu time    0.14: real time    0.14
    OFIELD:  cpu time    0.00: real time    0.00

  FORCE on cell =-STRESS in cart. coord.  units (eV):
  Direction    XX          YY          ZZ          XY          YZ          ZX
  --------------------------------------------------------------------------------------
  Alpha Z   284.22600   284.22600   284.22600
  Ewald   -2422.03284 -2422.03284 -2386.97612     0.00000    -0.00000     0.00000
  Hartree  1669.65719  1669.65719  1704.35852    -0.00007     0.00030     0.00028
  E(xc)    -376.28015  -376.28015  -376.27373    -0.00002    -0.00001    -0.00001
  Local    -600.84825  -600.84825  -670.72975     0.00049     0.00015     0.00018
  n-local   662.58453   662.72118   662.93115     0.01758     0.00386     0.14039
  augment   456.06136   456.06136   455.68606    -0.00004    -0.00139    -0.00139
  Kinetic   912.29586   914.29043   913.12487    -0.04650    -0.16654    -0.33824
  Fock     -584.26241  -584.34819  -583.90533     0.00513    -0.01082    -0.03565
  -------------------------------------------------------------------------------------
  Total       2.42401     2.42401     2.44165     0.00000     0.00000     0.00000
  in kB      25.01139    25.01139    25.19340     0.00000     0.00000     0.00000
  external pressure =       25.07 kB  Pullay stress =        0.00 kB


 VOLUME and BASIS-vectors are now :
 -----------------------------------------------------------------------------
  energy-cutoff  :      500.00
  volume of cell :      155.28
      direct lattice vectors                 reciprocal lattice vectors
     5.374217367  0.000000411  0.000000000     0.186073605  0.000000014 -0.093002118
    -0.000000411  5.374217367 -0.000000000    -0.000000014  0.186073605 -0.093002118
     2.687108478  2.687108889  5.376221630    -0.000000000  0.000000000  0.186004237

  length of vectors
     5.374217367  5.374217367  6.583681733     0.208021106  0.208021106  0.186004237


 FORCES acting on ions:
    Electron-Ion                     Ewald-Force                    Non-Local-Force
 -----------------------------------------------------------------------------------------------
   -.393E-05 0.882E-05 -.248E-05   0.844E-11 -.234E-11 -.884E-11   -.434E-18 -.217E-18 -.434E-18
   0.188E-05 -.477E-05 -.663E-06   -.726E-11 -.246E-11 0.884E-11   0.152E-17 0.000E+00 0.000E+00
   0.245E-05 -.858E-05 0.505E-06   0.577E-11 -.260E-11 0.625E-11   0.000E+00 0.000E+00 0.434E-18
   -.136E-07 0.258E-05 0.652E-06   -.547E-11 -.219E-11 -.635E-11   -.499E-17 -.499E-17 0.434E-18
   -.648E+02 -.733E+01 0.589E+01   0.625E+02 0.859E+01 -.718E+01   0.204E+01 -.114E+01 0.117E+01
   0.648E+02 0.733E+01 0.589E+01   -.625E+02 -.859E+01 -.718E+01   -.204E+01 0.114E+01 0.117E+01
   0.733E+01 -.648E+02 -.589E+01   -.859E+01 0.625E+02 0.718E+01   0.114E+01 0.204E+01 -.117E+01
   -.733E+01 0.648E+02 -.589E+01   0.859E+01 -.625E+02 0.718E+01   -.114E+01 -.204E+01 -.117E+01
 -----------------------------------------------------------------------------------------------
   -.337E-04 -.221E-04 0.284E-04   0.160E-13 -.284E-13 -.577E-13   0.444E-15 -.444E-15 0.000E+00
 
 
 POSITION                                       TOTAL-FORCE (eV/Angst)
 -----------------------------------------------------------------------------------
      0.00000      0.00000      0.00000        -0.000000     -0.000000     -0.000000
      5.37422      2.68711      2.68811        -0.000000     -0.000000     -0.000000
      2.68711      2.68711     -0.00000        -0.000000      0.000000     -0.000000
      2.68711      5.37422      2.68811        -0.000000     -0.000000     -0.000000
      1.28749      1.37417      1.30961         0.007741     -0.001408     -0.002044
      4.08672      4.00004      1.30961        -0.007741      0.001408     -0.002044
      6.68715      3.97460      4.06661         0.001408      0.007741      0.002044
      4.06128      6.77383      4.06661        -0.001408     -0.007741      0.002044
 -----------------------------------------------------------------------------------
    total drift:                               -0.000034     -0.000022      0.000028


--------------------------------------------------------------------------------------------------------



  FREE ENERGIE OF THE ION-ELECTRON SYSTEM (eV)
  ---------------------------------------------------
  free  energy   TOTEN  =       -38.53390812 eV

  energy  without entropy=      -38.53390812  energy(sigma->0) =      -38.53390812
 


--------------------------------------------------------------------------------------------------------


    POTLOK:  cpu time    0.37: real time    0.40


--------------------------------------------------------------------------------------------------------


 writing wavefunctions
     LOOP+:  cpu time12809.73: real time12891.42
    4ORBIT:  cpu time    0.00: real time    0.00
 


 total charge     
 
# of ion     s       p       d       tot
----------------------------------------
  1        0.215   6.175   9.061  15.452
  2        0.214   6.173   9.062  15.449
  3        0.500   0.488   9.840  10.828
  4        1.082   1.182  10.137  12.401
  5        1.318   2.430   0.000   3.747
  6        1.318   2.430   0.000   3.748
  7        1.318   2.430   0.000   3.748
  8        1.317   2.429   0.000   3.746
------------------------------------------------
tot        7.283  23.736  38.101  69.120
 

 total amount of memory used by VASP on root node   101321. kBytes
========================================================================

   base      :      30000. kBytes
   nonl-proj :      29976. kBytes
   fftplans  :       2140. kBytes
   grid      :       3584. kBytes
   one-center:         31. kBytes
   HF        :        129. kBytes
   nonlr-proj:       2239. kBytes
   wavefun   :      33222. kBytes
 
  
  
 General timing and accounting informations for this job:
 ========================================================
  
                  Total CPU time used (sec):    12868.770
                            User time (sec):    11634.267
                          System time (sec):     1234.502
                         Elapsed time (sec):    12951.362
  
                   Maximum memory used (kb):      268500.
                   Average memory used (kb):           0.
  
                          Minor page faults:       863346
                          Major page faults:            0
                 Voluntary context switches:     11495934
