PROCAR new format
# of k-points:   51         # of bands:  52         # of ions:   8

 k-point    1 :    0.00000000 0.00000000 0.00000000     weight = 0.00694444

band   1 # energy  -68.30609123 # occ.  2.00000000
 
ion      s      p      d    tot
  1  0.000  0.000  0.000  0.000
  2  0.000  0.998  0.000  0.998
  3  0.000  0.000  0.000  0.000
  4  0.000  0.000  0.000  0.000
  5  0.000  0.000  0.000  0.000
  6  0.000  0.000  0.000  0.000
  7  0.000  0.000  0.000  0.000
  8  0.000  0.000  0.000  0.000
tot  0.000  0.998  0.000  0.998
 
band   2 # energy  -68.27622856 # occ.  2.00000000
 
ion      s      p      d    tot
  1  0.000  0.997  0.000  0.997
  2  0.000  0.000  0.000  0.000
  3  0.000  0.000  0.000  0.000
  4  0.000  0.000  0.000  0.000
  5  0.000  0.000  0.000  0.000
  6  0.000  0.000  0.000  0.000
  7  0.000  0.000  0.000  0.000
  8  0.000  0.000  0.000  0.000
tot  0.000  0.998  0.000  0.998
 
band   3 # energy  -68.27622602 # occ.  2.00000000
 
ion      s      p      d    tot
  1  0.000  0.997  0.000  0.997
  2  0.000  0.000  0.000  0.000
  3  0.000  0.000  0.000  0.000
  4  0.000  0.000  0.000  0.000
  5  0.000  0.000  0.000  0.000
  6  0.000  0.000  0.000  0.000
  7  0.000  0.000  0.000  0.000
  8  0.000  0.000  0.000  0.000
tot  0.000  0.998  0.000  0.998
 
band   4 # energy  -68.25715794 # occ.  2.00000000
 
ion      s      p      d    tot
  1  0.000  0.997  0.000  0.997
  2  0.000  0.000  0.000  0.000
  3  0.000  0.000  0.000  0.000
  4  0.000  0.000  0.000  0.000
  5  0.000  0.000  0.000  0.000
  6  0.000  0.000  0.000  0.000
  7  0.000  0.000  0.000  0.000
  8  0.000  0.000  0.000  0.000
tot  0.000  0.998  0.000  0.998
 
band   5 # energy  -68.25132561 # occ.  2.00000000
 
ion      s      p      d    tot
  1  0.000  0.000  0.000  0.000
  2  0.000  0.997  0.000  0.997
  3  0.000  0.000  0.000  0.000
  4  0.000  0.000  0.000  0.000
  5  0.000  0.000  0.000  0.000
  6  0.000  0.000  0.000  0.000
  7  0.000  0.000  0.000  0.000
  8  0.000  0.000  0.000  0.000
tot  0.000  0.998  0.000  0.998
 
band   6 # energy  -68.25132631 # occ.  2.00000000
 
ion      s      p      d    tot
  1  0.000  0.000  0.000  0.000
  2  0.000  0.997  0.000  0.997
  3  0.000  0.000  0.000  0.000
  4  0.000  0.000  0.000  0.000
  5  0.000  0.000  0.000  0.000
  6  0.000  0.000  0.000  0.000
  7  0.000  0.000  0.000  0.000
  8  0.000  0.000  0.000  0.000
tot  0.000  0.998  0.000  0.998
 
band   7 # energy  -19.85868399 # occ.  2.00000000
 
ion      s      p      d    tot
  1  0.000  0.000  0.000  0.000
  2  0.000  0.000  0.000  0.000
  3  0.000  0.000  0.000  0.000
  4  0.000  0.000  0.984  0.984
  5  0.001  0.000  0.000  0.001
  6  0.001  0.000  0.000  0.001
  7  0.001  0.000  0.000  0.001
  8  0.001  0.000  0.000  0.001
tot  0.004  0.002  0.984  0.989
 
band   8 # energy  -19.85430751 # occ.  2.00000000
 
ion      s      p      d    tot
  1  0.000  0.000  0.000  0.000
  2  0.000  0.000  0.000  0.000
  3  0.000  0.000  0.000  0.000
  4  0.000  0.000  0.984  0.984
  5  0.000  0.000  0.000  0.000
  6  0.000  0.000  0.000  0.000
  7  0.002  0.001  0.000  0.003
  8  0.002  0.001  0.000  0.003
tot  0.004  0.002  0.984  0.989
 
band   9 # energy  -19.85430420 # occ.  2.00000000
 
ion      s      p      d    tot
  1  0.000  0.000  0.000  0.000
  2  0.000  0.000  0.000  0.000
  3  0.000  0.000  0.000  0.000
  4  0.000  0.000  0.984  0.984
  5  0.002  0.001  0.000  0.003
  6  0.002  0.001  0.000  0.003
  7  0.000  0.000  0.000  0.000
  8  0.000  0.000  0.000  0.000
tot  0.004  0.002  0.984  0.989
 
band  10 # energy  -19.74989109 # occ.  2.00000000
 
ion      s      p      d    tot
  1  0.000  0.000  0.000  0.000
  2  0.000  0.000  0.000  0.000
  3  0.000  0.000  0.000  0.000
  4  0.000  0.000  0.991  0.991
  5  0.000  0.000  0.000  0.000
  6  0.000  0.000  0.000  0.000
  7  0.000  0.000  0.000  0.000
  8  0.000  0.000  0.000  0.000
tot  0.000  0.000  0.991  0.991
 
band  11 # energy  -19.74318522 # occ.  2.00000000
 
ion      s      p      d    tot
  1  0.000  0.000  0.000  0.000
  2  0.000  0.000  0.000  0.000
  3  0.000  0.000  0.000  0.000
  4  0.000  0.000  0.991  0.991
  5  0.000  0.000  0.000  0.000
  6  0.000  0.000  0.000  0.000
  7  0.000  0.000  0.000  0.000
  8  0.000  0.000  0.000  0.000
tot  0.000  0.000  0.991  0.991
 
band  12 # energy  -11.61786662 # occ.  2.00000000
 
ion      s      p      d    tot
  1  0.009  0.000  0.000  0.009
  2  0.008  0.000  0.000  0.008
  3  0.024  0.000  0.000  0.024
  4  0.091  0.000  0.000  0.091
  5  0.129  0.001  0.000  0.130
  6  0.129  0.001  0.000  0.130
  7  0.129  0.001  0.000  0.130
  8  0.129  0.001  0.000  0.130
tot  0.647  0.003  0.000  0.650
 
band  13 # energy   -9.87161365 # occ.  2.00000000
 
ion      s      p      d    tot
  1  0.000  0.003  0.005  0.008
  2  0.000  0.003  0.004  0.007
  3  0.000  0.009  0.018  0.027
  4  0.000  0.024  0.011  0.035
  5  0.161  0.000  0.000  0.162
  6  0.161  0.000  0.000  0.161
  7  0.161  0.000  0.000  0.161
  8  0.161  0.000  0.000  0.162
tot  0.645  0.040  0.037  0.723
 
band  14 # energy   -9.85381468 # occ.  2.00000000
 
ion      s      p      d    tot
  1  0.000  0.003  0.005  0.008
  2  0.000  0.003  0.005  0.008
  3  0.000  0.009  0.018  0.027
  4  0.000  0.023  0.012  0.035
  5  0.090  0.000  0.000  0.090
  6  0.090  0.000  0.000  0.090
  7  0.233  0.000  0.000  0.234
  8  0.233  0.000  0.000  0.233
tot  0.647  0.039  0.039  0.725
 
band  15 # energy   -9.85381501 # occ.  2.00000000
 
ion      s      p      d    tot
  1  0.000  0.003  0.005  0.008
  2  0.000  0.003  0.005  0.008
  3  0.000  0.009  0.018  0.027
  4  0.000  0.023  0.012  0.035
  5  0.233  0.000  0.000  0.233
  6  0.233  0.000  0.000  0.233
  7  0.090  0.000  0.000  0.090
  8  0.090  0.000  0.000  0.090
tot  0.647  0.039  0.039  0.725
 
band  16 # energy   -4.49676588 # occ.  2.00000000
 
ion      s      p      d    tot
  1  0.006  0.000  0.001  0.007
  2  0.001  0.000  0.003  0.004
  3  0.014  0.000  0.521  0.535
  4  0.163  0.000  0.000  0.163
  5  0.004  0.025  0.000  0.029
  6  0.004  0.025  0.000  0.029
  7  0.004  0.025  0.000  0.029
  8  0.004  0.025  0.000  0.029
tot  0.198  0.100  0.526  0.824
 
band  17 # energy   -4.38508452 # occ.  2.00000000
 
ion      s      p      d    tot
  1  0.000  0.000  0.000  0.001
  2  0.000  0.000  0.001  0.001
  3  0.000  0.000  0.911  0.911
  4  0.000  0.005  0.001  0.006
  5  0.002  0.006  0.000  0.008
  6  0.002  0.006  0.000  0.008
  7  0.002  0.006  0.000  0.008
  8  0.002  0.006  0.000  0.008
tot  0.007  0.031  0.913  0.950
 
band  18 # energy   -4.33353745 # occ.  2.00000000
 
ion      s      p      d    tot
  1  0.000  0.000  0.002  0.002
  2  0.000  0.000  0.001  0.001
  3  0.000  0.000  0.920  0.920
  4  0.000  0.002  0.001  0.002
  5  0.000  0.001  0.000  0.001
  6  0.000  0.001  0.000  0.001
  7  0.005  0.010  0.000  0.015
  8  0.005  0.010  0.000  0.015
tot  0.010  0.024  0.923  0.958
 
band  19 # energy   -4.33352760 # occ.  2.00000000
 
ion      s      p      d    tot
  1  0.000  0.000  0.002  0.002
  2  0.000  0.000  0.001  0.001
  3  0.000  0.000  0.920  0.920
  4  0.000  0.002  0.001  0.002
  5  0.005  0.010  0.000  0.015
  6  0.005  0.010  0.000  0.015
  7  0.000  0.001  0.000  0.001
  8  0.000  0.001  0.000  0.001
tot  0.010  0.024  0.924  0.958
 
band  20 # energy   -4.33057651 # occ.  2.00000000
 
ion      s      p      d    tot
  1  0.000  0.000  0.001  0.001
  2  0.000  0.001  0.001  0.001
  3  0.000  0.000  0.931  0.931
  4  0.000  0.001  0.000  0.001
  5  0.000  0.003  0.000  0.004
  6  0.000  0.003  0.000  0.004
  7  0.000  0.003  0.000  0.004
  8  0.000  0.003  0.000  0.004
tot  0.002  0.015  0.932  0.949
 
band  21 # energy   -4.01124874 # occ.  2.00000000
 
ion      s      p      d    tot
  1  0.002  0.000  0.001  0.003
  2  0.005  0.000  0.003  0.008
  3  0.022  0.000  0.425  0.447
  4  0.235  0.000  0.000  0.235
  5  0.005  0.027  0.000  0.033
  6  0.005  0.027  0.000  0.033
  7  0.005  0.027  0.000  0.033
  8  0.005  0.027  0.000  0.033
tot  0.286  0.109  0.429  0.824
 
band  22 # energy   -1.70111842 # occ.  2.00000000
 
ion      s      p      d    tot
  1  0.009  0.000  0.021  0.030
  2  0.040  0.000  0.000  0.040
  3  0.149  0.000  0.001  0.149
  4  0.014  0.000  0.003  0.017
  5  0.002  0.078  0.000  0.080
  6  0.002  0.078  0.000  0.080
  7  0.002  0.078  0.000  0.080
  8  0.002  0.078  0.000  0.080
tot  0.219  0.314  0.025  0.558
 
band  23 # energy   -1.07013539 # occ.  2.00000000
 
ion      s      p      d    tot
  1  0.000  0.000  0.072  0.073
  2  0.000  0.012  0.035  0.046
  3  0.000  0.000  0.047  0.047
  4  0.000  0.107  0.004  0.111
  5  0.001  0.078  0.000  0.079
  6  0.001  0.078  0.000  0.079
  7  0.001  0.078  0.000  0.079
  8  0.001  0.078  0.000  0.079
tot  0.003  0.432  0.158  0.594
 
band  24 # energy   -1.01412796 # occ.  2.00000000
 
ion      s      p      d    tot
  1  0.075  0.000  0.001  0.076
  2  0.041  0.000  0.003  0.044
  3  0.017  0.000  0.028  0.045
  4  0.001  0.000  0.004  0.005
  5  0.000  0.086  0.000  0.086
  6  0.000  0.086  0.000  0.086
  7  0.000  0.086  0.000  0.086
  8  0.000  0.086  0.000  0.086
tot  0.133  0.345  0.037  0.515
 
band  25 # energy   -0.59567325 # occ.  2.00000000
 
ion      s      p      d    tot
  1  0.000  0.013  0.090  0.102
  2  0.000  0.001  0.099  0.100
  3  0.000  0.032  0.009  0.041
  4  0.000  0.000  0.009  0.009
  5  0.000  0.080  0.000  0.080
  6  0.000  0.080  0.000  0.080
  7  0.000  0.080  0.000  0.080
  8  0.000  0.080  0.000  0.080
tot  0.000  0.366  0.207  0.573
 
band  26 # energy   -0.43072660 # occ.  2.00000000
 
ion      s      p      d    tot
  1  0.000  0.008  0.020  0.029
  2  0.000  0.000  0.011  0.012
  3  0.000  0.024  0.002  0.027
  4  0.000  0.155  0.005  0.161
  5  0.001  0.069  0.000  0.070
  6  0.001  0.069  0.000  0.070
  7  0.001  0.110  0.000  0.111
  8  0.001  0.110  0.000  0.111
tot  0.003  0.548  0.039  0.591
 
band  27 # energy   -0.43072770 # occ.  2.00000000
 
ion      s      p      d    tot
  1  0.000  0.008  0.020  0.029
  2  0.000  0.000  0.011  0.012
  3  0.000  0.024  0.002  0.027
  4  0.000  0.155  0.005  0.161
  5  0.001  0.110  0.000  0.111
  6  0.001  0.110  0.000  0.111
  7  0.001  0.069  0.000  0.070
  8  0.001  0.069  0.000  0.070
tot  0.003  0.548  0.039  0.591
 
band  28 # energy    0.17917800 # occ.  2.00000000
 
ion      s      p      d    tot
  1  0.000  0.007  0.106  0.113
  2  0.000  0.011  0.258  0.269
  3  0.000  0.005  0.001  0.005
  4  0.000  0.005  0.002  0.007
  5  0.000  0.140  0.000  0.140
  6  0.000  0.140  0.000  0.140
  7  0.000  0.014  0.000  0.014
  8  0.000  0.014  0.000  0.014
tot  0.000  0.335  0.367  0.703
 
band  29 # energy    0.17917852 # occ.  2.00000000
 
ion      s      p      d    tot
  1  0.000  0.007  0.106  0.113
  2  0.000  0.011  0.258  0.269
  3  0.000  0.005  0.001  0.005
  4  0.000  0.005  0.002  0.007
  5  0.000  0.014  0.000  0.014
  6  0.000  0.014  0.000  0.014
  7  0.000  0.140  0.000  0.140
  8  0.000  0.140  0.000  0.140
tot  0.000  0.335  0.367  0.703
 
band  30 # energy    0.53313014 # occ.  2.00000000
 
ion      s      p      d    tot
  1  0.000  0.000  0.217  0.217
  2  0.000  0.001  0.280  0.280
  3  0.000  0.010  0.028  0.038
  4  0.000  0.007  0.008  0.016
  5  0.000  0.054  0.000  0.054
  6  0.000  0.054  0.000  0.054
  7  0.000  0.054  0.000  0.054
  8  0.000  0.054  0.000  0.054
tot  0.001  0.233  0.533  0.767
 
band  31 # energy    0.58074055 # occ.  2.00000000
 
ion      s      p      d    tot
  1  0.000  0.002  0.259  0.261
  2  0.000  0.005  0.087  0.093
  3  0.000  0.034  0.028  0.062
  4  0.000  0.001  0.004  0.004
  5  0.001  0.104  0.000  0.105
  6  0.001  0.104  0.000  0.105
  7  0.000  0.033  0.000  0.033
  8  0.000  0.033  0.000  0.033
tot  0.002  0.316  0.379  0.696
 
band  32 # energy    0.58074050 # occ.  2.00000000
 
ion      s      p      d    tot
  1  0.000  0.002  0.259  0.261
  2  0.000  0.005  0.087  0.093
  3  0.000  0.034  0.028  0.062
  4  0.000  0.001  0.004  0.004
  5  0.000  0.033  0.000  0.033
  6  0.000  0.033  0.000  0.033
  7  0.001  0.104  0.000  0.105
  8  0.001  0.104  0.000  0.105
tot  0.002  0.316  0.379  0.696
 
band  33 # energy    1.60072783 # occ.  2.00000000
 
ion      s      p      d    tot
  1  0.000  0.000  0.446  0.446
  2  0.000  0.000  0.413  0.414
  3  0.000  0.002  0.000  0.002
  4  0.000  0.005  0.000  0.005
  5  0.000  0.000  0.000  0.000
  6  0.000  0.000  0.000  0.000
  7  0.000  0.000  0.000  0.000
  8  0.000  0.000  0.000  0.000
tot  0.001  0.008  0.859  0.869
 
band  34 # energy    1.68318798 # occ.  2.00000000
 
ion      s      p      d    tot
  1  0.001  0.000  0.051  0.052
  2  0.002  0.000  0.796  0.798
  3  0.005  0.000  0.000  0.005
  4  0.026  0.000  0.000  0.026
  5  0.001  0.002  0.000  0.002
  6  0.001  0.002  0.000  0.002
  7  0.001  0.002  0.000  0.002
  8  0.001  0.002  0.000  0.002
tot  0.037  0.007  0.847  0.891
 
band  35 # energy    1.83501969 # occ.  2.00000000
 
ion      s      p      d    tot
  1  0.000  0.000  0.818  0.818
  2  0.003  0.000  0.068  0.071
  3  0.012  0.000  0.000  0.012
  4  0.001  0.000  0.000  0.001
  5  0.000  0.001  0.000  0.001
  6  0.000  0.001  0.000  0.001
  7  0.000  0.001  0.000  0.001
  8  0.000  0.001  0.000  0.001
tot  0.016  0.005  0.886  0.907
 
band  36 # energy    2.18531892 # occ.  2.00000000
 
ion      s      p      d    tot
  1  0.000  0.000  0.536  0.537
  2  0.000  0.002  0.280  0.282
  3  0.000  0.006  0.005  0.011
  4  0.000  0.018  0.003  0.020
  5  0.000  0.014  0.000  0.014
  6  0.000  0.014  0.000  0.014
  7  0.000  0.014  0.000  0.014
  8  0.000  0.014  0.000  0.014
tot  0.001  0.080  0.823  0.905
 
band  37 # energy    2.24314414 # occ.  2.00000000
 
ion      s      p      d    tot
  1  0.000  0.006  0.325  0.331
  2  0.000  0.007  0.361  0.368
  3  0.000  0.003  0.002  0.005
  4  0.000  0.003  0.001  0.004
  5  0.001  0.024  0.000  0.024
  6  0.001  0.024  0.000  0.024
  7  0.002  0.019  0.000  0.021
  8  0.002  0.019  0.000  0.021
tot  0.005  0.104  0.689  0.798
 
band  38 # energy    2.24314721 # occ.  2.00000000
 
ion      s      p      d    tot
  1  0.000  0.006  0.325  0.331
  2  0.000  0.007  0.361  0.368
  3  0.000  0.003  0.002  0.005
  4  0.000  0.003  0.001  0.004
  5  0.002  0.019  0.000  0.021
  6  0.002  0.019  0.000  0.021
  7  0.001  0.024  0.000  0.024
  8  0.001  0.024  0.000  0.024
tot  0.005  0.104  0.689  0.798
 
band  39 # energy    2.40587932 # occ.  2.00000000
 
ion      s      p      d    tot
  1  0.000  0.006  0.243  0.249
  2  0.000  0.003  0.509  0.512
  3  0.000  0.007  0.005  0.011
  4  0.000  0.002  0.003  0.005
  5  0.000  0.017  0.000  0.018
  6  0.000  0.017  0.000  0.018
  7  0.000  0.017  0.000  0.018
  8  0.000  0.017  0.000  0.018
tot  0.002  0.088  0.760  0.849
 
band  40 # energy    4.25677882 # occ.  2.00000000
 
ion      s      p      d    tot
  1  0.000  0.005  0.196  0.200
  2  0.000  0.004  0.188  0.192
  3  0.000  0.004  0.020  0.024
  4  0.000  0.002  0.019  0.021
  5  0.002  0.081  0.000  0.082
  6  0.002  0.081  0.000  0.082
  7  0.000  0.091  0.000  0.091
  8  0.000  0.091  0.000  0.091
tot  0.004  0.359  0.422  0.785
 
band  41 # energy    4.25677579 # occ.  2.00000000
 
ion      s      p      d    tot
  1  0.000  0.005  0.196  0.200
  2  0.000  0.004  0.188  0.192
  3  0.000  0.004  0.020  0.024
  4  0.000  0.002  0.019  0.021
  5  0.000  0.091  0.000  0.091
  6  0.000  0.091  0.000  0.091
  7  0.002  0.081  0.000  0.082
  8  0.002  0.081  0.000  0.082
tot  0.004  0.359  0.422  0.785
 
band  42 # energy    4.30940981 # occ.  2.00000000
 
ion      s      p      d    tot
  1  0.000  0.004  0.205  0.209
  2  0.000  0.005  0.199  0.204
  3  0.000  0.003  0.018  0.021
  4  0.000  0.003  0.016  0.019
  5  0.000  0.085  0.000  0.085
  6  0.000  0.085  0.000  0.085
  7  0.000  0.085  0.000  0.085
  8  0.000  0.085  0.000  0.085
tot  0.001  0.354  0.437  0.792
 
band  43 # energy    5.84602576 # occ.  0.00000000
 
ion      s      p      d    tot
  1  0.016  0.000  0.004  0.020
  2  0.025  0.000  0.021  0.047
  3  0.036  0.000  0.001  0.037
  4  0.153  0.000  0.000  0.153
  5  0.049  0.036  0.000  0.085
  6  0.049  0.036  0.000  0.085
  7  0.049  0.036  0.000  0.085
  8  0.049  0.036  0.000  0.085
tot  0.426  0.143  0.027  0.595
 
band  44 # energy    7.30985529 # occ.  0.00000000
 
ion      s      p      d    tot
  1  0.000  0.005  0.039  0.045
  2  0.000  0.016  0.038  0.054
  3  0.000  0.015  0.015  0.029
  4  0.000  0.113  0.032  0.145
  5  0.013  0.006  0.000  0.019
  6  0.013  0.006  0.000  0.019
  7  0.013  0.006  0.000  0.019
  8  0.013  0.006  0.000  0.019
tot  0.053  0.171  0.125  0.348
 
band  45 # energy    8.44617709 # occ.  0.00000000
 
ion      s      p      d    tot
  1  0.039  0.000  0.029  0.068
  2  0.001  0.000  0.040  0.041
  3  0.119  0.000  0.008  0.126
  4  0.064  0.000  0.011  0.075
  5  0.009  0.026  0.000  0.035
  6  0.009  0.026  0.000  0.035
  7  0.009  0.026  0.000  0.035
  8  0.009  0.026  0.000  0.035
tot  0.258  0.103  0.088  0.449
 
band  46 # energy    9.30450150 # occ.  0.00000000
 
ion      s      p      d    tot
  1  0.000  0.007  0.014  0.021
  2  0.000  0.001  0.024  0.025
  3  0.000  0.021  0.006  0.027
  4  0.000  0.191  0.035  0.226
  5  0.003  0.068  0.000  0.071
  6  0.003  0.068  0.000  0.071
  7  0.001  0.014  0.000  0.015
  8  0.001  0.013  0.000  0.014
tot  0.008  0.383  0.079  0.471
 
band  47 # energy    9.30479430 # occ.  0.00000000
 
ion      s      p      d    tot
  1  0.000  0.007  0.014  0.021
  2  0.000  0.001  0.025  0.025
  3  0.000  0.020  0.006  0.027
  4  0.000  0.188  0.035  0.223
  5  0.001  0.013  0.000  0.014
  6  0.001  0.013  0.000  0.014
  7  0.003  0.069  0.000  0.072
  8  0.003  0.069  0.000  0.072
tot  0.008  0.380  0.081  0.469
 
band  48 # energy   10.51526026 # occ.  0.00000000
 
ion      s      p      d    tot
  1  0.001  0.036  0.005  0.041
  2  0.001  0.012  0.001  0.014
  3  0.001  0.104  0.003  0.108
  4  0.001  0.166  0.001  0.168
  5  0.000  0.007  0.000  0.007
  6  0.000  0.006  0.000  0.006
  7  0.000  0.004  0.000  0.004
  8  0.000  0.004  0.000  0.004
tot  0.004  0.341  0.010  0.355
 
band  49 # energy   10.81678047 # occ.  0.00000000
 
ion      s      p      d    tot
  1  0.000  0.017  0.017  0.035
  2  0.010  0.019  0.009  0.037
  3  0.002  0.065  0.013  0.080
  4  0.004  0.075  0.010  0.089
  5  0.002  0.027  0.000  0.029
  6  0.006  0.019  0.000  0.025
  7  0.003  0.001  0.000  0.005
  8  0.001  0.008  0.000  0.009
tot  0.029  0.232  0.048  0.309
 
band  50 # energy   10.87131006 # occ.  0.00000000
 
ion      s      p      d    tot
  1  0.007  0.010  0.010  0.027
  2  0.065  0.012  0.005  0.082
  3  0.006  0.037  0.008  0.050
  4  0.028  0.040  0.022  0.089
  5  0.001  0.022  0.000  0.023
  6  0.003  0.019  0.000  0.022
  7  0.001  0.038  0.000  0.039
  8  0.007  0.025  0.000  0.033
tot  0.118  0.202  0.045  0.365
 
band  51 # energy   11.27474949 # occ.  0.00000000
 
ion      s      p      d    tot
  1  0.007  0.015  0.009  0.031
  2  0.045  0.019  0.007  0.071
  3  0.005  0.033  0.008  0.045
  4  0.020  0.030  0.028  0.078
  5  0.003  0.015  0.000  0.019
  6  0.001  0.023  0.000  0.024
  7  0.001  0.023  0.000  0.024
  8  0.002  0.029  0.000  0.031
tot  0.085  0.187  0.051  0.323
 
band  52 # energy   12.61317672 # occ.  0.00000000
 
ion      s      p      d    tot
  1  0.000  0.031  0.009  0.040
  2  0.000  0.034  0.006  0.040
  3  0.000  0.049  0.010  0.059
  4  0.000  0.017  0.023  0.040
  5  0.017  0.005  0.000  0.022
  6  0.015  0.004  0.000  0.019
  7  0.003  0.013  0.000  0.016
  8  0.005  0.003  0.000  0.008
tot  0.040  0.156  0.049  0.245
 

 k-point    2 :    0.16666667 0.00000000-0.00000000     weight = 0.02777778

band   1 # energy  -68.30605979 # occ.  2.00000000
 
ion      s      p      d    tot
  1  0.000  0.000  0.000  0.000
  2  0.000  0.997  0.000  0.997
  3  0.000  0.000  0.000  0.000
  4  0.000  0.000  0.000  0.000
  5  0.000  0.000  0.000  0.000
  6  0.000  0.000  0.000  0.000
  7  0.000  0.000  0.000  0.000
  8  0.000  0.000  0.000  0.000
tot  0.000  0.998  0.000  0.998
 
band   2 # energy  -68.27623212 # occ.  2.00000000
 
ion      s      p      d    tot
  1  0.000  0.997  0.000  0.997
  2  0.000  0.000  0.000  0.000
  3  0.000  0.000  0.000  0.000
  4  0.000  0.000  0.000  0.000
  5  0.000  0.000  0.000  0.000
  6  0.000  0.000  0.000  0.000
  7  0.000  0.000  0.000  0.000
  8  0.000  0.000  0.000  0.000
tot  0.000  0.998  0.000  0.998
 
band   3 # energy  -68.27622956 # occ.  2.00000000
 
ion      s      p      d    tot
  1  0.000  0.997  0.000  0.997
  2  0.000  0.000  0.000  0.000
  3  0.000  0.000  0.000  0.000
  4  0.000  0.000  0.000  0.000
  5  0.000  0.000  0.000  0.000
  6  0.000  0.000  0.000  0.000
  7  0.000  0.000  0.000  0.000
  8  0.000  0.000  0.000  0.000
tot  0.000  0.998  0.000  0.998
 
band   4 # energy  -68.25712520 # occ.  2.00000000
 
ion      s      p      d    tot
  1  0.000  0.997  0.000  0.997
  2  0.000  0.000  0.000  0.000
  3  0.000  0.000  0.000  0.000
  4  0.000  0.000  0.000  0.000
  5  0.000  0.000  0.000  0.000
  6  0.000  0.000  0.000  0.000
  7  0.000  0.000  0.000  0.000
  8  0.000  0.000  0.000  0.000
tot  0.000  0.998  0.000  0.998
 
band   5 # energy  -68.25132945 # occ.  2.00000000
 
ion      s      p      d    tot
  1  0.000  0.000  0.000  0.000
  2  0.000  0.997  0.000  0.997
  3  0.000  0.000  0.000  0.000
  4  0.000  0.000  0.000  0.000
  5  0.000  0.000  0.000  0.000
  6  0.000  0.000  0.000  0.000
  7  0.000  0.000  0.000  0.000
  8  0.000  0.000  0.000  0.000
tot  0.000  0.998  0.000  0.998
 
band   6 # energy  -68.25132236 # occ.  2.00000000
 
ion      s      p      d    tot
  1  0.000  0.000  0.000  0.000
  2  0.000  0.997  0.000  0.997
  3  0.000  0.000  0.000  0.000
  4  0.000  0.000  0.000  0.000
  5  0.000  0.000  0.000  0.000
  6  0.000  0.000  0.000  0.000
  7  0.000  0.000  0.000  0.000
  8  0.000  0.000  0.000  0.000
tot  0.000  0.998  0.000  0.998
 
band   7 # energy  -19.85887755 # occ.  2.00000000
 
ion      s      p      d    tot
  1  0.000  0.000  0.000  0.000
  2  0.000  0.000  0.000  0.000
  3  0.000  0.000  0.000  0.000
  4  0.000  0.000  0.984  0.984
  5  0.001  0.000  0.000  0.001
  6  0.001  0.000  0.000  0.001
  7  0.001  0.000  0.000  0.001
  8  0.001  0.000  0.000  0.001
tot  0.004  0.002  0.984  0.989
 
band   8 # energy  -19.85447962 # occ.  2.00000000
 
ion      s      p      d    tot
  1  0.000  0.000  0.000  0.000
  2  0.000  0.000  0.000  0.000
  3  0.000  0.000  0.000  0.000
  4  0.000  0.000  0.984  0.984
  5  0.001  0.000  0.000  0.001
  6  0.001  0.000  0.000  0.001
  7  0.001  0.000  0.000  0.001
  8  0.001  0.000  0.000  0.001
tot  0.004  0.002  0.984  0.989
 
band   9 # energy  -19.85429617 # occ.  2.00000000
 
ion      s      p      d    tot
  1  0.000  0.000  0.000  0.000
  2  0.000  0.000  0.000  0.000
  3  0.000  0.000  0.000  0.000
  4  0.000  0.000  0.984  0.984
  5  0.001  0.000  0.000  0.001
  6  0.001  0.000  0.000  0.001
  7  0.001  0.000  0.000  0.001
  8  0.001  0.000  0.000  0.001
tot  0.004  0.002  0.984  0.989
 
band  10 # energy  -19.74974532 # occ.  2.00000000
 
ion      s      p      d    tot
  1  0.000  0.000  0.000  0.000
  2  0.000  0.000  0.000  0.000
  3  0.000  0.000  0.000  0.000
  4  0.000  0.000  0.991  0.991
  5  0.000  0.000  0.000  0.000
  6  0.000  0.000  0.000  0.000
  7  0.000  0.000  0.000  0.000
  8  0.000  0.000  0.000  0.000
tot  0.000  0.000  0.991  0.991
 
band  11 # energy  -19.74311210 # occ.  2.00000000
 
ion      s      p      d    tot
  1  0.000  0.000  0.000  0.000
  2  0.000  0.000  0.000  0.000
  3  0.000  0.000  0.000  0.000
  4  0.000  0.000  0.991  0.991
  5  0.000  0.000  0.000  0.000
  6  0.000  0.000  0.000  0.000
  7  0.000  0.000  0.000  0.000
  8  0.000  0.000  0.000  0.000
tot  0.000  0.000  0.991  0.991
 
band  12 # energy  -11.51291440 # occ.  2.00000000
 
ion      s      p      d    tot
  1  0.008  0.000  0.000  0.008
  2  0.008  0.000  0.000  0.008
  3  0.022  0.001  0.001  0.023
  4  0.090  0.001  0.000  0.091
  5  0.132  0.001  0.000  0.133
  6  0.128  0.001  0.000  0.129
  7  0.127  0.001  0.000  0.128
  8  0.132  0.001  0.000  0.133
tot  0.647  0.005  0.001  0.654
 
band  13 # energy   -9.94929223 # occ.  2.00000000
 
ion      s      p      d    tot
  1  0.000  0.003  0.004  0.008
  2  0.001  0.003  0.004  0.008
  3  0.001  0.009  0.016  0.027
  4  0.006  0.022  0.011  0.039
  5  0.054  0.000  0.000  0.054
  6  0.244  0.000  0.000  0.245
  7  0.275  0.000  0.000  0.275
  8  0.064  0.000  0.000  0.064
tot  0.646  0.038  0.036  0.720
 
band  14 # energy   -9.90284817 # occ.  2.00000000
 
ion      s      p      d    tot
  1  0.001  0.003  0.004  0.008
  2  0.000  0.003  0.004  0.008
  3  0.002  0.009  0.017  0.027
  4  0.001  0.023  0.011  0.034
  5  0.203  0.000  0.000  0.203
  6  0.160  0.000  0.000  0.160
  7  0.174  0.000  0.000  0.174
  8  0.107  0.000  0.000  0.107
tot  0.647  0.038  0.037  0.721
 
band  15 # energy   -9.88920093 # occ.  2.00000000
 
ion      s      p      d    tot
  1  0.000  0.003  0.004  0.008
  2  0.001  0.003  0.004  0.008
  3  0.001  0.009  0.017  0.027
  4  0.000  0.024  0.011  0.035
  5  0.223  0.000  0.000  0.223
  6  0.078  0.000  0.000  0.078
  7  0.034  0.000  0.000  0.034
  8  0.309  0.000  0.000  0.309
tot  0.645  0.040  0.037  0.722
 
band  16 # energy   -4.54907808 # occ.  2.00000000
 
ion      s      p      d    tot
  1  0.002  0.000  0.002  0.004
  2  0.001  0.000  0.002  0.003
  3  0.009  0.001  0.617  0.627
  4  0.128  0.001  0.000  0.130
  5  0.003  0.021  0.000  0.024
  6  0.004  0.021  0.000  0.024
  7  0.003  0.025  0.000  0.028
  8  0.004  0.016  0.000  0.020
tot  0.154  0.085  0.621  0.860
 
band  17 # energy   -4.36073143 # occ.  2.00000000
 
ion      s      p      d    tot
  1  0.000  0.000  0.001  0.001
  2  0.000  0.000  0.001  0.001
  3  0.000  0.000  0.914  0.914
  4  0.001  0.002  0.001  0.004
  5  0.000  0.002  0.000  0.003
  6  0.003  0.008  0.000  0.012
  7  0.000  0.001  0.000  0.002
  8  0.004  0.011  0.000  0.015
tot  0.009  0.026  0.917  0.952
 
band  18 # energy   -4.34742285 # occ.  2.00000000
 
ion      s      p      d    tot
  1  0.000  0.000  0.001  0.002
  2  0.000  0.000  0.001  0.001
  3  0.000  0.000  0.913  0.914
  4  0.003  0.002  0.001  0.006
  5  0.005  0.010  0.000  0.015
  6  0.001  0.006  0.000  0.006
  7  0.000  0.001  0.000  0.001
  8  0.002  0.006  0.000  0.008
tot  0.011  0.026  0.916  0.953
 
band  19 # energy   -4.32678022 # occ.  2.00000000
 
ion      s      p      d    tot
  1  0.001  0.000  0.001  0.002
  2  0.000  0.000  0.001  0.002
  3  0.000  0.000  0.911  0.911
  4  0.004  0.001  0.000  0.006
  5  0.000  0.004  0.000  0.004
  6  0.002  0.004  0.000  0.006
  7  0.004  0.010  0.000  0.014
  8  0.001  0.003  0.000  0.004
tot  0.013  0.023  0.913  0.949
 
band  20 # energy   -4.32044567 # occ.  2.00000000
 
ion      s      p      d    tot
  1  0.000  0.000  0.001  0.001
  2  0.000  0.000  0.000  0.001
  3  0.000  0.000  0.932  0.932
  4  0.000  0.001  0.000  0.002
  5  0.001  0.004  0.000  0.005
  6  0.001  0.004  0.000  0.005
  7  0.000  0.003  0.000  0.003
  8  0.000  0.004  0.000  0.004
tot  0.003  0.016  0.933  0.952
 
band  21 # energy   -3.91345553 # occ.  2.00000000
 
ion      s      p      d    tot
  1  0.003  0.001  0.002  0.006
  2  0.005  0.000  0.005  0.010
  3  0.021  0.001  0.342  0.364
  4  0.257  0.001  0.000  0.259
  5  0.009  0.031  0.000  0.039
  6  0.008  0.029  0.000  0.037
  7  0.012  0.031  0.000  0.043
  8  0.007  0.034  0.000  0.042
tot  0.322  0.128  0.350  0.800
 
band  22 # energy   -1.77391810 # occ.  2.00000000
 
ion      s      p      d    tot
  1  0.011  0.000  0.020  0.032
  2  0.024  0.001  0.008  0.033
  3  0.147  0.002  0.004  0.152
  4  0.008  0.016  0.003  0.027
  5  0.003  0.080  0.000  0.083
  6  0.003  0.078  0.000  0.081
  7  0.001  0.073  0.000  0.074
  8  0.002  0.075  0.000  0.078
tot  0.199  0.325  0.036  0.560
 
band  23 # energy   -1.21980711 # occ.  2.00000000
 
ion      s      p      d    tot
  1  0.032  0.001  0.028  0.061
  2  0.025  0.005  0.012  0.042
  3  0.004  0.008  0.025  0.037
  4  0.001  0.058  0.004  0.063
  5  0.001  0.073  0.000  0.074
  6  0.000  0.073  0.000  0.073
  7  0.001  0.101  0.000  0.102
  8  0.001  0.080  0.000  0.081
tot  0.065  0.397  0.069  0.532
 
band  24 # energy   -1.01797142 # occ.  2.00000000
 
ion      s      p      d    tot
  1  0.019  0.003  0.039  0.061
  2  0.011  0.006  0.038  0.054
  3  0.004  0.007  0.033  0.044
  4  0.000  0.071  0.004  0.076
  5  0.001  0.098  0.000  0.099
  6  0.000  0.083  0.000  0.083
  7  0.000  0.045  0.000  0.045
  8  0.002  0.098  0.000  0.100
tot  0.038  0.411  0.113  0.562
 
band  25 # energy   -0.68116083 # occ.  2.00000000
 
ion      s      p      d    tot
  1  0.005  0.009  0.054  0.067
  2  0.009  0.002  0.063  0.074
  3  0.004  0.020  0.008  0.032
  4  0.001  0.062  0.005  0.068
  5  0.000  0.077  0.000  0.077
  6  0.001  0.095  0.000  0.096
  7  0.002  0.107  0.000  0.109
  8  0.000  0.053  0.000  0.053
tot  0.020  0.425  0.131  0.576
 
band  26 # energy   -0.27418810 # occ.  2.00000000
 
ion      s      p      d    tot
  1  0.005  0.007  0.051  0.062
  2  0.006  0.001  0.034  0.040
  3  0.005  0.016  0.007  0.029
  4  0.000  0.121  0.007  0.128
  5  0.001  0.101  0.000  0.102
  6  0.001  0.084  0.000  0.085
  7  0.001  0.079  0.000  0.080
  8  0.001  0.090  0.000  0.091
tot  0.020  0.499  0.098  0.618
 
band  27 # energy   -0.20908469 # occ.  2.00000000
 
ion      s      p      d    tot
  1  0.001  0.007  0.122  0.129
  2  0.005  0.001  0.073  0.080
  3  0.002  0.018  0.004  0.024
  4  0.000  0.067  0.008  0.075
  5  0.000  0.061  0.000  0.061
  6  0.001  0.100  0.000  0.101
  7  0.000  0.084  0.000  0.084
  8  0.001  0.088  0.000  0.088
tot  0.011  0.425  0.207  0.643
 
band  28 # energy    0.07148978 # occ.  2.00000000
 
ion      s      p      d    tot
  1  0.001  0.006  0.124  0.132