Name                                    
   5.43100000000000     
     0.500000    0.500000    0.000000
     0.500000    0.000000   -0.500000
     0.000000    0.500000   -0.500000
   Si
     2
Direct
  0.000000  0.000000  0.000000
  0.250000  0.250000  0.250000
 
   56   56   56
 -.81160269654E+01 -.75344269064E+01 -.58522003261E+01 -.32488752544E+01 0.30862093824E-02
 0.35757254655E+01 0.71309580856E+01 0.10365518956E+02 0.13046625776E+02 0.15032279488E+02
 0.16274876258E+02 0.16811088197E+02 0.16743011744E+02 0.16215316362E+02 0.15391739561E+02
 0.14430234299E+02 0.13425295512E+02 0.12422717203E+02 0.11459694659E+02 0.10564415553E+02
 0.97554724150E+01 0.90426236826E+01 0.84287878248E+01 0.79127589939E+01 0.74919159321E+01
 0.71642286542E+01 0.69291443282E+01 0.67873646748E+01 0.67399448120E+01 0.67873646748E+01
 0.69291443282E+01 0.71642286542E+01 0.74919159321E+01 0.79127589939E+01 0.84287878248E+01
 0.90426236826E+01 0.97554724150E+01 0.10564415553E+02 0.11459694659E+02 0.12422717203E+02
 0.13425295512E+02 0.14430234299E+02 0.15391739561E+02 0.16215316362E+02 0.16743011744E+02
 0.16811088197E+02 0.16274876258E+02 0.15032279488E+02 0.13046625776E+02 0.10365518956E+02
 0.71309580856E+01 0.35757254655E+01 0.30862093824E-02 -.32488752544E+01 -.58522003261E+01
 -.75344269064E+01 -.75344269064E+01 -.63456445154E+01 -.40998914603E+01 -.10419581540E+01
 0.25057818781E+01 0.61899998035E+01 0.96757884675E+01 0.12689012789E+02 0.15043852778E+02
 0.16652447190E+02 0.17518605631E+02 0.17720672433E+02 0.17389036738E+02 0.16682396587E+02
 0.15765189323E+02 0.14768994176E+02 0.13752173804E+02 0.12755122045E+02 0.11810359508E+02
 0.10941412637E+02 0.10162787688E+02 0.94812527455E+01 0.88981756086E+01 0.84122891276E+01
 0.80221091783E+01 0.77273709966E+01 0.75292367895E+01 0.74295157254E+01 0.74295157254E+01
 0.75292367895E+01 0.77273709966E+01 0.80221091783E+01 0.84122891276E+01 0.88981756086E+01
 0.94812527455E+01 0.10162787688E+02 0.10941412637E+02 0.11810359508E+02 0.12755122045E+02
 0.13752173804E+02 0.14768994176E+02 0.15765189323E+02 0.16682396587E+02 0.17389036738E+02
 0.17720672433E+02 0.17518605631E+02 0.16652447190E+02 0.15043852778E+02 0.12689012789E+02
 0.96757884675E+01 0.61899998035E+01 0.25057818781E+01 -.10419581540E+01 -.40998914603E+01
 -.63456445154E+01 -.75344269064E+01 -.58522003261E+01 -.40998914603E+01 -.14020429443E+01
 0.19432371569E+01 0.55844473028E+01 0.91685220472E+01 0.12388745283E+02 0.15019490331E+02
 0.16932760600E+02 0.18096981949E+02 0.18562649769E+02 0.18440815761E+02 0.17879381371E+02
 0.17040235210E+02 0.16074287385E+02 0.15064799548E+02 0.14054356977E+02 0.13078362392E+02
 0.12164251175E+02 0.11330863765E+02 0.10588978598E+02 0.99430674271E+01 0.93938545962E+01
 0.89409395552E+01 0.85847059148E+01 0.83270172183E+01 0.81706916899E+01 0.81182482926E+01
 0.81706916899E+01 0.83270172183E+01 0.85847059148E+01 0.89409395552E+01 0.93938545962E+01
 0.99430674271E+01 0.10588978598E+02 0.11330863765E+02 0.12164251175E+02 0.13078362392E+02
 0.14054356977E+02 0.15064799548E+02 0.16074287385E+02 0.17040235210E+02 0.17879381371E+02
 0.18440815761E+02 0.18562649769E+02 0.18096981949E+02 0.16932760600E+02 0.15019490331E+02
 0.12388745283E+02 0.91685220472E+01 0.55844473028E+01 0.19432371569E+01 -.14020429443E+01
 -.40998914603E+01 -.58522003261E+01 -.64596405857E+01 -.32488752544E+01 -.10419581540E+01
 0.19432371569E+01 0.53756743039E+01 0.89005218371E+01 0.12190722579E+02 0.14988130228E+02
 0.17127304920E+02 0.18540514660E+02 0.19247451703E+02 0.19335643446E+02 0.18937252332E+02
 0.18206097753E+02 0.17296424510E+02 0.16317525047E+02 0.15316943375E+02 0.14331540686E+02
 0.13391383138E+02 0.12518808715E+02 0.11728327709E+02 0.11027715897E+02 0.10420160605E+02
 0.99068622838E+01 0.94892725471E+01 0.91702657550E+01 0.89539663659E+01 0.88445171271E+01
 0.88445171271E+01 0.89539663659E+01 0.91702657550E+01 0.94892725471E+01 0.99068622838E+01
 0.10420160605E+02 0.11027715897E+02 0.11728327709E+02 0.12518808715E+02 0.13391383138E+02
 0.14331540686E+02 0.15316943375E+02 0.16317525047E+02 0.17296424510E+02 0.18206097753E+02
 0.18937252332E+02 0.19335643446E+02 0.19247451703E+02 0.18540514660E+02 0.17127304920E+02
 0.14988130228E+02 0.12190722579E+02 0.89005218371E+01 0.53756743039E+01 0.19432371569E+01
 -.10419581540E+01 -.32488752544E+01 -.44218902217E+01 -.44218902217E+01 0.30862093824E-02
 0.25057818781E+01 0.55844473028E+01 0.89005218371E+01 0.12121769444E+02 0.14968143102E+02
 0.17242438246E+02 0.18842219395E+02 0.19754881933E+02 0.20041207135E+02 0.19813456185E+02
 0.19212630442E+02 0.18387497184E+02 0.17463511366E+02 0.16497817151E+02 0.15527533121E+02
 0.14584043666E+02 0.13692075132E+02 0.12869191518E+02 0.12126281219E+02 0.11469182243E+02
 0.10901070511E+02 0.10424853688E+02 0.10044745322E+02 0.97664922685E+01 0.95962839528E+01
 0.95389403427E+01 0.95962839528E+01 0.97664922685E+01 0.10044745322E+02 0.10424853688E+02
 0.10901070511E+02 0.11469182243E+02 0.12126281219E+02 0.12869191518E+02 0.13692075132E+02
 0.14584043666E+02 0.15527533121E+02 0.16497817151E+02 0.17463511366E+02 0.18387497184E+02
 0.19212630442E+02 0.19813456185E+02 0.20041207135E+02 0.19754881933E+02 0.18842219395E+02
 0.17242438246E+02 0.14968143102E+02 0.12121769444E+02 0.89005218371E+01 0.55844473028E+01
 0.25057818781E+01 0.30862093824E-02 -.16312950915E+01 -.21994157858E+01 -.16312950915E+01
 0.35757254655E+01 0.61899998035E+01 0.91685220472E+01 0.12190722579E+02 0.14968143102E+02
 0.17280638889E+02 0.18995233319E+02 0.20067484807E+02 0.20529475384E+02 0.20470271630E+02
 0.20014043943E+02 0.19299178716E+02 0.18454825631E+02 0.17549758204E+02 0.16620682573E+02
 0.15699125408E+02 0.14810996332E+02 0.13975943740E+02 0.13207396795E+02 0.12513676397E+02
 0.11900051919E+02 0.11371131528E+02 0.10932731005E+02 0.10592499760E+02 0.10359064742E+02
 0.10240083523E+02 0.10240083523E+02 0.10359064742E+02 0.10592499760E+02 0.10932731005E+02
 0.11371131528E+02 0.11900051919E+02 0.12513676397E+02 0.13207396795E+02 0.13975943740E+02
 0.14810996332E+02 0.15699125408E+02 0.16620682573E+02 0.17549758204E+02 0.18454825631E+02
 0.19299178716E+02 0.20014043943E+02 0.20470271630E+02 0.20529475384E+02 0.20067484807E+02
 0.18995233319E+02 0.17280638889E+02 0.14968143102E+02 0.12190722579E+02 0.91685220472E+01
 0.61899998035E+01 0.35757254655E+01 0.16303149065E+01 0.59218747137E+00 0.59218747137E+00
 0.16303149065E+01 0.71309580856E+01 0.96757884675E+01 0.12388745283E+02 0.14988130228E+02
 0.17242438246E+02 0.18995233319E+02 0.20173140939E+02 0.20779330064E+02 0.20877528922E+02
 0.20571888127E+02 0.19986653232E+02 0.19245925862E+02 0.18426561662E+02 0.17564925725E+02
 0.16691728281E+02 0.15832913254E+02 0.15009096904E+02 0.14235374988E+02 0.13522021473E+02
 0.12876186468E+02 0.12304173750E+02 0.11813495911E+02 0.11413865072E+02 0.11116635356E+02
 0.10932839732E+02 0.10870580042E+02 0.10932839732E+02 0.11116635356E+02 0.11413865072E+02
 0.11813495911E+02 0.12304173750E+02 0.12876186468E+02 0.13522021473E+02 0.14235374988E+02
 0.15009096904E+02 0.15832913254E+02 0.16691728281E+02 0.17564925725E+02 0.18426561662E+02
 0.19245925862E+02 0.19986653232E+02 0.20571888127E+02 0.20877528922E+02 0.20779330064E+02
 0.20173140939E+02 0.18995233319E+02 0.17242438246E+02 0.14988130228E+02 0.12388745283E+02
 0.96757884675E+01 0.71309580856E+01 0.50466131463E+01 0.36786530625E+01 0.32019594178E+01
 0.36786530625E+01 0.50466131463E+01 0.10365518956E+02 0.12689012789E+02 0.15019490331E+02
 0.17127304920E+02 0.18842219395E+02 0.20067484807E+02 0.20779330064E+02 0.21015563698E+02
 0.20858196931E+02 0.20414375137E+02 0.19797652736E+02 0.19086703636E+02 0.18317201366E+02
 0.17518285877E+02 0.16714935805E+02 0.15927612488E+02 0.15172025000E+02 0.14459569777E+02
 0.13798722247E+02 0.13197159106E+02 0.12663920615E+02 0.12210724265E+02 0.11851748280E+02
 0.11601767309E+02 0.11473210863E+02 0.11473210863E+02 0.11601767309E+02 0.11851748280E+02
 0.12210724265E+02 0.12663920615E+02 0.13197159106E+02 0.13798722247E+02 0.14459569777E+02
 0.15172025000E+02 0.15927612488E+02 0.16714935805E+02 0.17518285877E+02 0.18317201366E+02
 0.19086703636E+02 0.19797652736E+02 0.20414375137E+02 0.20858196931E+02 0.21015563698E+02
 0.20779330064E+02 0.20067484807E+02 0.18842219395E+02 0.17127304920E+02 0.15019490331E+02
 0.12689012789E+02 0.10365518956E+02 0.83089915186E+01 0.67697538211E+01 0.59455625299E+01
 0.59455625299E+01 0.67697538211E+01 0.83089915186E+01 0.13046625776E+02 0.15043852778E+02
 0.16932760600E+02 0.18540514660E+02 0.19754881933E+02 0.20529475384E+02 0.20877528922E+02
 0.20858196931E+02 0.20559566625E+02 0.20081172876E+02 0.19497091539E+02 0.18841049929E+02
 0.18139998687E+02 0.17417129571E+02 0.16691728281E+02 0.15979022683E+02 0.15290514975E+02
 0.14635165642E+02 0.14021377899E+02 0.13459231132E+02 0.12962089500E+02 0.12546762568E+02
 0.12231853485E+02 0.12034631274E+02 0.11967401912E+02 0.12034631274E+02 0.12231853485E+02
 0.12546762568E+02 0.12962089500E+02 0.13459231132E+02 0.14021377899E+02 0.14635165642E+02
 0.15290514975E+02 0.15979022683E+02 0.16691728281E+02 0.17417129571E+02 0.18139998687E+02
 0.18841049929E+02 0.19497091539E+02 0.20081172876E+02 0.20559566625E+02 0.20858196931E+02
 0.20877528922E+02 0.20529475384E+02 0.19754881933E+02 0.18540514660E+02 0.16932760600E+02
 0.15043852778E+02 0.13046625776E+02 0.11155764521E+02 0.95970206169E+01 0.85697751954E+01
 0.82110841853E+01 0.85697751954E+01 0.95970206169E+01 0.11155764521E+02 0.15032279488E+02
 0.16652447190E+02 0.18096981949E+02 0.19247451703E+02 0.20041207135E+02 0.20470271630E+02
 0.20571888127E+02 0.20414375137E+02 0.20081172876E+02 0.19636351965E+02 0.19109958402E+02
 0.18526196943E+02 0.17905813559E+02 0.17266063900E+02 0.16620682573E+02 0.15980215905E+02
 0.15353101222E+02 0.14747564604E+02 0.14173926583E+02 0.13646499823E+02 0.13184168830E+02
 0.12809068571E+02 0.12543359785E+02 0.12405262963E+02 0.12405262963E+02 0.12543359785E+02
 0.12809068571E+02 0.13184168830E+02 0.13646499823E+02 0.14173926583E+02 0.14747564604E+02
 0.15353101222E+02 0.15980215905E+02 0.16620682573E+02 0.17266063900E+02 0.17905813559E+02
 0.18526196943E+02 0.19109958402E+02 0.19636351965E+02 0.20081172876E+02 0.20414375137E+02
 0.20571888127E+02 0.20470271630E+02 0.20041207135E+02 0.19247451703E+02 0.18096981949E+02
 0.16652447190E+02 0.15032279488E+02 0.13400735058E+02 0.11946531849E+02 0.10853034070E+02
 0.10265943578E+02 0.10265943578E+02 0.10853034070E+02 0.11946531849E+02 0.13400735058E+02
 0.16274876258E+02 0.17518605631E+02 0.18562649769E+02 0.19335643446E+02 0.19813456185E+02
 0.20014043943E+02 0.19986653232E+02 0.19797652736E+02 0.19497091539E+02 0.19109958402E+02
 0.18657192487E+02 0.18156573478E+02 0.17622666144E+02 0.17066873706E+02 0.16497817151E+02
 0.15922383471E+02 0.15347588688E+02 0.14782972077E+02 0.14242790468E+02 0.13746978306E+02
 0.13319501895E+02 0.12987073579E+02 0.12775238123E+02 0.12702393906E+02 0.12775238123E+02
 0.12987073579E+02 0.13319501895E+02 0.13746978306E+02 0.14242790468E+02 0.14782972077E+02
 0.15347588688E+02 0.15922383471E+02 0.16497817151E+02 0.17066873706E+02 0.17622666144E+02
 0.18156573478E+02 0.18657192487E+02 0.19109958402E+02 0.19497091539E+02 0.19797652736E+02
 0.19986653232E+02 0.20014043943E+02 0.19813456185E+02 0.19335643446E+02 0.18562649769E+02
 0.17518605631E+02 0.16274876258E+02 0.14946785617E+02 0.13680577414E+02 0.12631722942E+02
 0.11938404888E+02 0.11695958279E+02 0.11938404888E+02 0.12631722942E+02 0.13680577414E+02
 0.14946785617E+02 0.16811088197E+02 0.17720672433E+02 0.18440815761E+02 0.18937252332E+02
 0.19212630442E+02 0.19299178716E+02 0.19245925862E+02 0.19086703636E+02 0.18841049929E+02
 0.18526196943E+02 0.18156573478E+02 0.17743595204E+02 0.17295724846E+02 0.16818889017E+02
 0.16317525047E+02 0.15796436499E+02 0.15263280888E+02 0.14731041177E+02 0.14218121289E+02
 0.13748819764E+02 0.13354544401E+02 0.13068254120E+02 0.12917341647E+02 0.12917341647E+02
 0.13068254120E+02 0.13354544401E+02 0.13748819764E+02 0.14218121289E+02 0.14731041177E+02
 0.15263280888E+02 0.15796436499E+02 0.16317525047E+02 0.16818889017E+02 0.17295724846E+02
 0.17743595204E+02 0.18156573478E+02 0.18526196943E+02 0.18841049929E+02 0.19086703636E+02
 0.19245925862E+02 0.19299178716E+02 0.19212630442E+02 0.18937252332E+02 0.18440815761E+02
 0.17720672433E+02 0.16811088197E+02 0.15784569032E+02 0.14745436531E+02 0.13815574061E+02
 0.13114441037E+02 0.12737406391E+02 0.12737406391E+02 0.13114441037E+02 0.13815574061E+02
 0.14745436531E+02 0.15784569032E+02 0.16743011744E+02 0.17389036738E+02 0.17879381371E+02
 0.18206097753E+02 0.18387497184E+02 0.18454825631E+02 0.18426561662E+02 0.18317201366E+02
 0.18139998687E+02 0.17905813559E+02 0.17622666144E+02 0.17295724846E+02 0.16927720678E+02
 0.16519984228E+02 0.16074287385E+02 0.15595400389E+02 0.15093492537E+02 0.14582979036E+02
 0.14087541588E+02 0.13641632014E+02 0.13284660403E+02 0.13053145614E+02 0.12972874315E+02
 0.13053145614E+02 0.13284660403E+02 0.13641632014E+02 0.14087541588E+02 0.14582979036E+02
 0.15093492537E+02 0.15595400389E+02 0.16074287385E+02 0.16519984228E+02 0.16927720678E+02
 0.17295724846E+02 0.17622666144E+02 0.17905813559E+02 0.18139998687E+02 0.18317201366E+02
 0.18426561662E+02 0.18454825631E+02 0.18387497184E+02 0.18206097753E+02 0.17879381371E+02
 0.17389036738E+02 0.16743011744E+02 0.15979683334E+02 0.15166255852E+02 0.14390646737E+02
 0.13747723780E+02 0.13322453632E+02 0.13173685041E+02 0.13322453632E+02 0.13747723780E+02
 0.14390646737E+02 0.15166255852E+02 0.15979683334E+02 0.16215316362E+02 0.16682396587E+02
 0.17040235210E+02 0.17296424510E+02 0.17463511366E+02 0.17549758204E+02 0.17564925725E+02
 0.17518285877E+02 0.17417129571E+02 0.17266063900E+02 0.17066873706E+02 0.16818889017E+02
 0.16519984228E+02 0.16168374855E+02 0.15765189323E+02 0.15316485389E+02 0.14831389170E+02
 0.14330861405E+02 0.13849961364E+02 0.13432561682E+02 0.13123271258E+02 0.12958434424E+02
 0.12958434424E+02 0.13123271258E+02 0.13432561682E+02 0.13849961364E+02 0.14330861405E+02
 0.14831389170E+02 0.15316485389E+02 0.15765189323E+02 0.16168374855E+02 0.16519984228E+02
 0.16818889017E+02 0.17066873706E+02 0.17266063900E+02 0.17417129571E+02 0.17518285877E+02
 0.17564925725E+02 0.17549758204E+02 0.17463511366E+02 0.17296424510E+02 0.17040235210E+02
 0.16682396587E+02 0.16215316362E+02 0.15652854897E+02 0.15032377965E+02 0.14411314367E+02
 0.13858718021E+02 0.13443250688E+02 0.13220136001E+02 0.13220136001E+02 0.13443250688E+02
 0.13858718021E+02 0.14411314367E+02 0.15032377965E+02 0.15652854897E+02 0.15391739561E+02
 0.15765189323E+02 0.16074287385E+02 0.16317525047E+02 0.16497817151E+02 0.16620682573E+02
 0.16691728281E+02 0.16714935805E+02 0.16691728281E+02 0.16620682573E+02 0.16497817151E+02
 0.16317525047E+02 0.16074287385E+02 0.15765189323E+02 0.15391739561E+02 0.14957078163E+02
 0.14477021563E+02 0.13984322758E+02 0.13524446289E+02 0.13147851997E+02 0.12900399094E+02
 0.12814089549E+02 0.12900399094E+02 0.13147851997E+02 0.13524446289E+02 0.13984322758E+02
 0.14477021563E+02 0.14957078163E+02 0.15391739561E+02 0.15765189323E+02 0.16074287385E+02
 0.16317525047E+02 0.16497817151E+02 0.16620682573E+02 0.16691728281E+02 0.16714935805E+02
 0.16691728281E+02 0.16620682573E+02 0.16497817151E+02 0.16317525047E+02 0.16074287385E+02
 0.15765189323E+02 0.15391739561E+02 0.14957078163E+02 0.14477021563E+02 0.13984322758E+02
 0.13524446289E+02 0.13147851997E+02 0.12900399094E+02 0.12814089549E+02 0.12900399094E+02
 0.13147851997E+02 0.13524446289E+02 0.13984322758E+02 0.14477021563E+02 0.14957078163E+02
 0.14430234299E+02 0.14768994176E+02 0.15064799548E+02 0.15316943375E+02 0.15527533121E+02
 0.15699125408E+02 0.15832913254E+02 0.15927612488E+02 0.15979022683E+02 0.15980215905E+02
 0.15922383471E+02 0.15796436499E+02 0.15595400389E+02 0.15316485389E+02 0.14957078163E+02
 0.14525728756E+02 0.14049885264E+02 0.13573180657E+02 0.13148668672E+02 0.12829309723E+02
 0.12657749789E+02 0.12657749789E+02 0.12829309723E+02 0.13148668672E+02 0.13573180657E+02
 0.14049885264E+02 0.14525728756E+02 0.14957078163E+02 0.15316485389E+02 0.15595400389E+02
 0.15796436499E+02 0.15922383471E+02 0.15980215905E+02 0.15979022683E+02 0.15927612488E+02
 0.15832913254E+02 0.15699125408E+02 0.15527533121E+02 0.15316943375E+02 0.15064799548E+02
 0.14768994176E+02 0.14430234299E+02 0.14054535558E+02 0.13654657395E+02 0.13248274887E+02
 0.12861667969E+02 0.12528235182E+02 0.12282137148E+02 0.12151262991E+02 0.12151262991E+02
 0.12282137148E+02 0.12528235182E+02 0.12861667969E+02 0.13248274887E+02 0.13654657395E+02
 0.14054535558E+02 0.13425295512E+02 0.13752173804E+02 0.14054356977E+02 0.14331540686E+02
 0.14584043666E+02 0.14810996332E+02 0.15009096904E+02 0.15172025000E+02 0.15290514975E+02
 0.15353101222E+02 0.15347588688E+02 0.15263280888E+02 0.15093492537E+02 0.14831389170E+02
 0.14477021563E+02 0.14049885264E+02 0.13588263940E+02 0.13143920629E+02 0.12773359329E+02
 0.12527377293E+02 0.12441187533E+02 0.12527377293E+02 0.12773359329E+02 0.13143920629E+02
 0.13588263940E+02 0.14049885264E+02 0.14477021563E+02 0.14831389170E+02 0.15093492537E+02
 0.15263280888E+02 0.15347588688E+02 0.15353101222E+02 0.15290514975E+02 0.15172025000E+02
 0.15009096904E+02 0.14810996332E+02 0.14584043666E+02 0.14331540686E+02 0.14054356977E+02
 0.13752173804E+02 0.13425295512E+02 0.13076753513E+02 0.12714219646E+02 0.12351130901E+02
 0.12006505463E+02 0.11702986195E+02 0.11463762689E+02 0.11310104408E+02 0.11257073104E+02
 0.11310104408E+02 0.11463762689E+02 0.11702986195E+02 0.12006505463E+02 0.12351130901E+02
 0.12714219646E+02 0.13076753513E+02 0.12422717203E+02 0.12755122045E+02 0.13078362392E+02
 0.13391383138E+02 0.13692075132E+02 0.13975943740E+02 0.14235374988E+02 0.14459569777E+02
 0.14635165642E+02 0.14747564604E+02 0.14782972077E+02 0.14731041177E+02 0.14582979036E+02
 0.14330861405E+02 0.13984322758E+02 0.13573180657E+02 0.13143920629E+02 0.12752338811E+02
 0.12453639904E+02 0.12292019002E+02 0.12292019002E+02 0.12453639904E+02 0.12752338811E+02
 0.13143920629E+02 0.13573180657E+02 0.13984322758E+02 0.14330861405E+02 0.14582979036E+02
 0.14731041177E+02 0.14782972077E+02 0.14747564604E+02 0.14635165642E+02 0.14459569777E+02
 0.14235374988E+02 0.13975943740E+02 0.13692075132E+02 0.13391383138E+02 0.13078362392E+02
 0.12755122045E+02 0.12422717203E+02 0.12082883978E+02 0.11739823717E+02 0.11401565177E+02
 0.11080444198E+02 0.10792417662E+02 0.10555234497E+02 0.10385818582E+02 0.10297457274E+02
 0.10297457274E+02 0.10385818582E+02 0.10555234497E+02 0.10792417662E+02 0.11080444198E+02
 0.11401565177E+02 0.11739823717E+02 0.12082883978E+02 0.11459694659E+02 0.11810359508E+02
 0.12164251175E+02 0.12518808715E+02 0.12869191518E+02 0.13207396795E+02 0.13522021473E+02
 0.13798722247E+02 0.14021377899E+02 0.14173926583E+02 0.14242790468E+02 0.14218121289E+02
 0.14087541588E+02 0.13849961364E+02 0.13524446289E+02 0.13148668672E+02 0.12773359329E+02
 0.12453639904E+02 0.12238883963E+02 0.12163235066E+02 0.12238883963E+02 0.12453639904E+02
 0.12773359329E+02 0.13148668672E+02 0.13524446289E+02 0.13849961364E+02 0.14087541588E+02
 0.14218121289E+02 0.14242790468E+02 0.14173926583E+02 0.14021377899E+02 0.13798722247E+02
 0.13522021473E+02 0.13207396795E+02 0.12869191518E+02 0.12518808715E+02 0.12164251175E+02
 0.11810359508E+02 0.11459694659E+02 0.11113916486E+02 0.10775383546E+02 0.10448592286E+02
 0.10141052042E+02 0.98632966907E+01 0.96279516130E+01 0.94480367560E+01 0.93349004847E+01
 0.92962744641E+01 0.93349004847E+01 0.94480367560E+01 0.96279516130E+01 0.98632966907E+01
 0.10141052042E+02 0.10448592286E+02 0.10775383546E+02 0.11113916486E+02 0.10564415553E+02
 0.10941412637E+02 0.11330863765E+02 0.11728327709E+02 0.12126281219E+02 0.12513676397E+02
 0.12876186468E+02 0.13197159106E+02 0.13459231132E+02 0.13646499823E+02 0.13746978306E+02
 0.13748819764E+02 0.13641632014E+02 0.13432561682E+02 0.13147851997E+02 0.12829309723E+02
 0.12527377293E+02 0.12292019002E+02 0.12163235066E+02 0.12163235066E+02 0.12292019002E+02
 0.12527377293E+02 0.12829309723E+02 0.13147851997E+02 0.13432561682E+02 0.13641632014E+02
 0.13748819764E+02 0.13746978306E+02 0.13646499823E+02 0.13459231132E+02 0.13197159106E+02
 0.12876186468E+02 0.12513676397E+02 0.12126281219E+02 0.11728327709E+02 0.11330863765E+02
 0.10941412637E+02 0.10564415553E+02 0.10202252247E+02 0.98566170741E+01 0.95299295720E+01
 0.92264208429E+01 0.89525977264E+01 0.87169446074E+01 0.85289314326E+01 0.83975832867E+01
 0.83299697012E+01 0.83299697012E+01 0.83975832867E+01 0.85289314326E+01 0.87169446074E+01
 0.89525977264E+01 0.92264208429E+01 0.95299295720E+01 0.98566170741E+01 0.10202252247E+02
 0.97554724150E+01 0.10162787688E+02 0.10588978598E+02 0.11027715897E+02 0.11469182243E+02
 0.11900051919E+02 0.12304173750E+02 0.12663920615E+02 0.12962089500E+02 0.13184168830E+02
 0.13319501895E+02 0.13354544401E+02 0.13284660403E+02 0.13123271258E+02 0.12900399094E+02
 0.12657749789E+02 0.12441187533E+02 0.12292019002E+02 0.12238883963E+02 0.12292019002E+02
 0.12441187533E+02 0.12657749789E+02 0.12900399094E+02 0.13123271258E+02 0.13284660403E+02
 0.13354544401E+02 0.13319501895E+02 0.13184168830E+02 0.12962089500E+02 0.12663920615E+02
 0.12304173750E+02 0.11900051919E+02 0.11469182243E+02 0.11027715897E+02 0.10588978598E+02
 0.10162787688E+02 0.97554724150E+01 0.93705334985E+01 0.90097648824E+01 0.86745614193E+01
 0.83670878937E+01 0.80910176190E+01 0.78516666707E+01 0.76555199621E+01 0.75093091992E+01
 0.74189046325E+01 0.73882985752E+01 0.74189046325E+01 0.75093091992E+01 0.76555199621E+01
 0.78516666707E+01 0.80910176190E+01 0.83670878937E+01 0.86745614193E+01 0.90097648824E+01
 0.93705334985E+01 0.90426236826E+01 0.94812527455E+01 0.99430674271E+01 0.10420160605E+02
 0.10901070511E+02 0.11371131528E+02 0.11813495911E+02 0.12210724265E+02 0.12546762568E+02
 0.12809068571E+02 0.12987073579E+02 0.13068254120E+02 0.13053145614E+02 0.12958434424E+02
 0.12814089549E+02 0.12657749789E+02 0.12527377293E+02 0.12453639904E+02 0.12453639904E+02
 0.12527377293E+02 0.12657749789E+02 0.12814089549E+02 0.12958434424E+02 0.13053145614E+02
 0.13068254120E+02 0.12987073579E+02 0.12809068571E+02 0.12546762568E+02 0.12210724265E+02
 0.11813495911E+02 0.11371131528E+02 0.10901070511E+02 0.10420160605E+02 0.99430674271E+01
 0.94812527455E+01 0.90426236826E+01 0.86318469324E+01 0.82512004434E+01 0.79017275816E+01
 0.75843981424E+01 0.73009924705E+01 0.70545144878E+01 0.68490820222E+01 0.66893894560E+01
 0.65799370837E+01 0.65242469925E+01 0.65242469925E+01 0.65799370837E+01 0.66893894560E+01
 0.68490820222E+01 0.70545144878E+01 0.73009924705E+01 0.75843981424E+01 0.79017275816E+01
 0.82512004434E+01 0.86318469324E+01 0.84287878248E+01 0.88981756086E+01 0.93938545962E+01
 0.99068622838E+01 0.10424853688E+02 0.10932731005E+02 0.11413865072E+02 0.11851748280E+02
 0.12231853485E+02 0.12543359785E+02 0.12775238123E+02 0.12917341647E+02 0.12972874315E+02
 0.12958434424E+02 0.12900399094E+02 0.12829309723E+02 0.12773359329E+02 0.12752338811E+02
 0.12773359329E+02 0.12829309723E+02 0.12900399094E+02 0.12958434424E+02 0.12972874315E+02
 0.12917341647E+02 0.12775238123E+02 0.12543359785E+02 0.12231853485E+02 0.11851748280E+02
 0.11413865072E+02 0.10932731005E+02 0.10424853688E+02 0.99068622838E+01 0.93938545962E+01
 0.88981756086E+01 0.84287878248E+01 0.79912885084E+01 0.75885013905E+01 0.72214522563E+01
 0.68904627261E+01 0.65960893632E+01 0.63397021279E+01 0.61236178095E+01 0.59508381508E+01
 0.58245405084E+01 0.57475009687E+01 0.57215999607E+01 0.57475009687E+01 0.58245405084E+01
 0.59508381508E+01 0.61236178095E+01 0.63397021279E+01 0.65960893632E+01 0.68904627261E+01
 0.72214522563E+01 0.75885013905E+01 0.79912885084E+01 0.79127589939E+01 0.84122891276E+01
 0.89409395552E+01 0.94892725471E+01 0.10044745322E+02 0.10592499760E+02 0.11116635356E+02
 0.11601767309E+02 0.12034631274E+02 0.12405262963E+02 0.12702393906E+02 0.12917341647E+02
 0.13053145614E+02 0.13123271258E+02 0.13147851997E+02 0.13148668672E+02 0.13143920629E+02
 0.13143920629E+02 0.13148668672E+02 0.13147851997E+02 0.13123271258E+02 0.13053145614E+02
 0.12917341647E+02 0.12702393906E+02 0.12405262963E+02 0.12034631274E+02 0.11601767309E+02
 0.11116635356E+02 0.10592499760E+02 0.10044745322E+02 0.94892725471E+01 0.89409395552E+01
 0.84122891276E+01 0.79127589939E+01 0.74484822938E+01 0.70226600769E+01 0.66363624585E+01
 0.62895263517E+01 0.59818924112E+01 0.57136704088E+01 0.54858258802E+01 0.53000048866E+01
 0.51582121212E+01 0.50623967194E+01 0.50140769044E+01 0.50140769044E+01 0.50623967194E+01
 0.51582121212E+01 0.53000048866E+01 0.54858258802E+01 0.57136704088E+01 0.59818924112E+01
 0.62895263517E+01 0.66363624585E+01 0.70226600769E+01 0.74484822938E+01 0.74919159321E+01
 0.80221091783E+01 0.85847059148E+01 0.91702657550E+01 0.97664922685E+01 0.10359064742E+02
 0.10932839732E+02 0.11473210863E+02 0.11967401912E+02 0.12405262963E+02 0.12775238123E+02
 0.13068254120E+02 0.13284660403E+02 0.13432561682E+02 0.13524446289E+02 0.13573180657E+02
 0.13588263940E+02 0.13573180657E+02 0.13524446289E+02 0.13432561682E+02 0.13284660403E+02
 0.13068254120E+02 0.12775238123E+02 0.12405262963E+02 0.11967401912E+02 0.11473210863E+02
 0.10932839732E+02 0.10359064742E+02 0.97664922685E+01 0.91702657550E+01 0.85847059148E+01
 0.80221091783E+01 0.74919159321E+01 0.70003898999E+01 0.65508358303E+01 0.61442572297E+01
 0.57802578112E+01 0.54579494082E+01 0.51766571137E+01 0.49362991534E+01 0.47374333499E+01
 0.45810610593E+01 0.44683267873E+01 0.44002365935E+01 0.43774619015E+01 0.44002365935E+01
 0.44683267873E+01 0.45810610593E+01 0.47374333499E+01 0.49362991534E+01 0.51766571137E+01
 0.54579494082E+01 0.57802578112E+01 0.61442572297E+01 0.65508358303E+01 0.70003898999E+01
 0.71642286542E+01 0.77273709966E+01 0.83270172183E+01 0.89539663659E+01 0.95962839528E+01
 0.10240083523E+02 0.10870580042E+02 0.11473210863E+02 0.12034631274E+02 0.12543359785E+02
 0.12987073579E+02 0.13354544401E+02 0.13641632014E+02 0.13849961364E+02 0.13984322758E+02
 0.14049885264E+02 0.14049885264E+02 0.13984322758E+02 0.13849961364E+02 0.13641632014E+02
 0.13354544401E+02 0.12987073579E+02 0.12543359785E+02 0.12034631274E+02 0.11473210863E+02
 0.10870580042E+02 0.10240083523E+02 0.95962839528E+01 0.89539663659E+01 0.83270172183E+01
 0.77273709966E+01 0.71642286542E+01 0.66437046720E+01 0.61689614673E+01 0.57407707813E+01
 0.53583399642E+01 0.50201886312E+01 0.47248730858E+01 0.44714266142E+01 0.42594877521E+01
 0.40891871868E+01 0.39609198157E+01 0.38751240303E+01 0.38321379935E+01 0.38321379935E+01
 0.38751240303E+01 0.39609198157E+01 0.40891871868E+01 0.42594877521E+01 0.44714266142E+01
 0.47248730858E+01 0.50201886312E+01 0.53583399642E+01 0.57407707813E+01 0.61689614673E+01
 0.66437046720E+01 0.69291443282E+01 0.75292367895E+01 0.81706916899E+01 0.88445171271E+01
 0.95389403427E+01 0.10240083523E+02 0.10932839732E+02 0.11601767309E+02 0.12231853485E+02
 0.12809068571E+02 0.13319501895E+02 0.13748819764E+02 0.14087541588E+02 0.14330861405E+02
 0.14477021563E+02 0.14525728756E+02 0.14477021563E+02 0.14330861405E+02 0.14087541588E+02
 0.13748819764E+02 0.13319501895E+02 0.12809068571E+02 0.12231853485E+02 0.11601767309E+02
 0.10932839732E+02 0.10240083523E+02 0.95389403427E+01 0.88445171271E+01 0.81706916899E+01
 0.75292367895E+01 0.69291443282E+01 0.63763057931E+01 0.58736251979E+01 0.54215324131E+01
 0.50187645940E+01 0.46632240596E+01 0.43527200566E+01 0.40854578194E+01 0.38602310770E+01
 0.36763700571E+01 0.35335601400E+01 0.34316542210E+01 0.33705581638E+01 0.33502020734E+01
 0.33705581638E+01 0.34316542210E+01 0.35335601400E+01 0.36763700571E+01 0.38602310770E+01
 0.40854578194E+01 0.43527200566E+01 0.46632240596E+01 0.50187645940E+01 0.54215324131E+01
 0.58736251979E+01 0.63763057931E+01 0.67873646748E+01 0.74295157254E+01 0.81182482926E+01
 0.88445171271E+01 0.95962839528E+01 0.10359064742E+02 0.11116635356E+02 0.11851748280E+02
 0.12546762568E+02 0.13184168830E+02 0.13746978306E+02 0.14218121289E+02 0.14582979036E+02
 0.14831389170E+02 0.14957078163E+02 0.14957078163E+02 0.14831389170E+02 0.14582979036E+02
 0.14218121289E+02 0.13746978306E+02 0.13184168830E+02 0.12546762568E+02 0.11851748280E+02
 0.11116635356E+02 0.10359064742E+02 0.95962839528E+01 0.88445171271E+01 0.81182482926E+01
 0.74295157254E+01 0.67873646748E+01 0.61976006486E+01 0.56629246645E+01 0.51834370482E+01
 0.47574017549E+01 0.43821011560E+01 0.40546009471E+01 0.37722878897E+01 0.35331240515E+01
 0.33356517569E+01 0.31788508668E+01 0.30619699105E+01 0.29844212006E+01 0.29457674398E+01
 0.29457674398E+01 0.29844212006E+01 0.30619699105E+01 0.31788508668E+01 0.33356517569E+01
 0.35331240515E+01 0.37722878897E+01 0.40546009471E+01 0.43821011560E+01 0.47574017549E+01
 0.51834370482E+01 0.56629246645E+01 0.61976006486E+01 0.67399448120E+01 0.74295157254E+01
 0.81706916899E+01 0.89539663659E+01 0.97664922685E+01 0.10592499760E+02 0.11413865072E+02
 0.12210724265E+02 0.12962089500E+02 0.13646499823E+02 0.14242790468E+02 0.14731041177E+02
 0.15093492537E+02 0.15316485389E+02 0.15391739561E+02 0.15316485389E+02 0.15093492537E+02
 0.14731041177E+02 0.14242790468E+02 0.13646499823E+02 0.12962089500E+02 0.12210724265E+02
 0.11413865072E+02 0.10592499760E+02 0.97664922685E+01 0.89539663659E+01 0.81706916899E+01
 0.74295157254E+01 0.67399448120E+01 0.61079901651E+01 0.55363536147E+01 0.50249488977E+01
 0.45716689269E+01 0.41732487371E+01 0.38260577388E+01 0.35266873436E+01 0.32722692947E+01
 0.30605427559E+01 0.28897559244E+01 0.27585170075E+01 0.26656914307E+01 0.26103889952E+01
 0.25920236524E+01 0.26103889952E+01 0.26656914307E+01 0.27585170075E+01 0.28897559244E+01
 0.30605427559E+01 0.32722692947E+01 0.35266873436E+01 0.38260577388E+01 0.41732487371E+01
 0.45716689269E+01 0.50249488977E+01 0.55363536147E+01 0.61079901651E+01 0.67873646748E+01
 0.75292367895E+01 0.83270172183E+01 0.91702657550E+01 0.10044745322E+02 0.10932731005E+02