   2   2   1   0
  0.2002393E+02  0.3840297E-09  0.3840297E-09  0.3840297E-09  0.5000000E-15
  1.000000000000000E-004
  CAR 
 Name                                    
     18.22269708     -9.03509336  301      5.60461159      1.00000000
     -9.035  0.0000E+00  0.0000E+00
     -8.944  0.0000E+00  0.0000E+00
     -8.853  0.0000E+00  0.0000E+00
     -8.763  0.0000E+00  0.0000E+00
     -8.672  0.0000E+00  0.0000E+00
     -8.581  0.0000E+00  0.0000E+00
     -8.490  0.0000E+00  0.0000E+00
     -8.399  0.0000E+00  0.0000E+00
     -8.308  0.0000E+00  0.0000E+00
     -8.217  0.0000E+00  0.0000E+00
     -8.127  0.0000E+00  0.0000E+00
     -8.036  0.0000E+00  0.0000E+00
     -7.945  0.0000E+00  0.0000E+00
     -7.854  0.1797E-16  0.1633E-17
     -7.763  0.1079E+00  0.9804E-02
     -7.672  0.0000E+00  0.9804E-02
     -7.581  0.0000E+00  0.9804E-02
     -7.490  0.0000E+00  0.9804E-02
     -7.400  0.2406E+00  0.3166E-01
     -7.309  0.6543E-12  0.8824E-01
     -7.218  0.6474E+00  0.1471E+00
     -7.127  0.0000E+00  0.1471E+00
     -7.036  0.0000E+00  0.1471E+00
     -6.945  0.0000E+00  0.1471E+00
     -6.854  0.0000E+00  0.1471E+00
     -6.764  0.1429E-02  0.1472E+00
     -6.673  0.1293E+01  0.2647E+00
     -6.582  0.0000E+00  0.2647E+00
     -6.491  0.0000E+00  0.2647E+00
     -6.400  0.2183E-10  0.2647E+00
     -6.309  0.2590E+01  0.5000E+00
     -6.218  0.8632E+00  0.5784E+00
     -6.128  0.0000E+00  0.5784E+00
     -6.037  0.0000E+00  0.5784E+00
     -5.946  0.0000E+00  0.5784E+00
     -5.855  0.0000E+00  0.5784E+00
     -5.764  0.0000E+00  0.5784E+00
     -5.673  0.5044E+00  0.6243E+00
     -5.582  0.0000E+00  0.6373E+00
     -5.492  0.7988E-07  0.6373E+00
     -5.401  0.2590E+01  0.8725E+00
     -5.310  0.0000E+00  0.8725E+00
     -5.219  0.2591E+01  0.1108E+01
     -5.128  0.4298E+00  0.1147E+01
     -5.037  0.5735E-01  0.1152E+01
     -4.946  0.2532E+01  0.1382E+01
     -4.856  0.0000E+00  0.1382E+01
     -4.765  0.0000E+00  0.1382E+01
     -4.674  0.0000E+00  0.1382E+01
     -4.583  0.0000E+00  0.1382E+01
     -4.492  0.0000E+00  0.1382E+01
     -4.401  0.1700E-02  0.1383E+01
     -4.310  0.2588E+01  0.1618E+01
     -4.220  0.0000E+00  0.1618E+01
     -4.129  0.3875E+01  0.1970E+01
     -4.038  0.0000E+00  0.1971E+01
     -3.947  0.0000E+00  0.1971E+01
     -3.856  0.0000E+00  0.1971E+01
     -3.765  0.0000E+00  0.1971E+01
     -3.674  0.0000E+00  0.1971E+01
     -3.584  0.0000E+00  0.1971E+01
     -3.493  0.0000E+00  0.1971E+01
     -3.402  0.0000E+00  0.1971E+01
     -3.311  0.0000E+00  0.1971E+01
     -3.220  0.7335E-11  0.1971E+01
     -3.129  0.6474E+00  0.2029E+01
     -3.038  0.0000E+00  0.2029E+01
     -2.948  0.0000E+00  0.2029E+01
     -2.857  0.0000E+00  0.2029E+01
     -2.766  0.0000E+00  0.2029E+01
     -2.675  0.0000E+00  0.2029E+01
     -2.584  0.0000E+00  0.2029E+01
     -2.493  0.0000E+00  0.2029E+01
     -2.402  0.0000E+00  0.2029E+01
     -2.312  0.0000E+00  0.2029E+01
     -2.221  0.2274E+00  0.2050E+01
     -2.130  0.4789E-11  0.2069E+01
     -2.039  0.2590E+01  0.2304E+01
     -1.948  0.1295E+01  0.2422E+01
     -1.857  0.1237E-09  0.2422E+01
     -1.766  0.4132E+01  0.2797E+01
     -1.675  0.0000E+00  0.2892E+01
     -1.585  0.0000E+00  0.2892E+01
     -1.494  0.0000E+00  0.2892E+01
     -1.403  0.0000E+00  0.2892E+01
     -1.312  0.0000E+00  0.2892E+01
     -1.221  0.0000E+00  0.2892E+01
     -1.130  0.2079E+01  0.3081E+01
     -1.039  0.0000E+00  0.3127E+01
     -0.949  0.0000E+00  0.3127E+01
     -0.858  0.0000E+00  0.3127E+01
     -0.767  0.1140E-05  0.3127E+01
     -0.676  0.2590E+01  0.3363E+01
     -0.585  0.0000E+00  0.3363E+01
     -0.494  0.0000E+00  0.3363E+01
     -0.403  0.5808E-04  0.3363E+01
     -0.313  0.8632E+00  0.3441E+01
     -0.222  0.0000E+00  0.3441E+01
     -0.131  0.0000E+00  0.3441E+01
     -0.040  0.1549E-03  0.3441E+01
      0.051  0.6473E+00  0.3500E+01
      0.142  0.0000E+00  0.3500E+01
      0.233  0.0000E+00  0.3500E+01
      0.323  0.0000E+00  0.3500E+01
      0.414  0.0000E+00  0.3500E+01
      0.505  0.0000E+00  0.3500E+01
      0.596  0.5391E-06  0.3500E+01
      0.687  0.3850E+01  0.3850E+01
      0.778  0.0000E+00  0.3853E+01
      0.869  0.0000E+00  0.3853E+01
      0.959  0.0000E+00  0.3853E+01
      1.050  0.0000E+00  0.3853E+01
      1.141  0.2578E+01  0.4087E+01
      1.232  0.0000E+00  0.4088E+01
      1.323  0.0000E+00  0.4088E+01
      1.414  0.3736E-03  0.4088E+01
      1.505  0.1294E+01  0.4206E+01
      1.595  0.2600E+01  0.4442E+01
      1.686  0.2579E+01  0.4676E+01
      1.777  0.0000E+00  0.4676E+01
      1.868  0.0000E+00  0.4676E+01
      1.959  0.0000E+00  0.4676E+01
      2.050  0.0000E+00  0.4676E+01
      2.141  0.4313E-15  0.4676E+01
      2.231  0.2590E+01  0.4912E+01
      2.322  0.2650E-03  0.4912E+01
      2.413  0.6471E+00  0.4971E+01
      2.504  0.4154E+01  0.5348E+01
      2.595  0.0000E+00  0.5441E+01
      2.686  0.1746E+01  0.5600E+01
      2.777  0.0000E+00  0.5676E+01
      2.867  0.1294E+01  0.5794E+01
      2.958  0.2148E+01  0.5989E+01
      3.049  0.2590E+01  0.6225E+01
      3.140  0.4956E-06  0.6225E+01
      3.231  0.1295E+01  0.6343E+01
      3.322  0.2764E+00  0.6368E+01
      3.413  0.2590E+01  0.6637E+01
      3.503  0.5968E-10  0.6637E+01
      3.594  0.3328E+01  0.6940E+01
      3.685  0.0000E+00  0.7108E+01
      3.776  0.0000E+00  0.7108E+01
      3.867  0.0000E+00  0.7108E+01
      3.958  0.0000E+00  0.7108E+01
      4.049  0.6598E-04  0.7108E+01
      4.140  0.2590E+01  0.7343E+01
      4.230  0.1894E+01  0.7515E+01
      4.321  0.0000E+00  0.7539E+01
      4.412  0.1446E+01  0.7671E+01
      4.503  0.0000E+00  0.7696E+01
      4.594  0.0000E+00  0.7696E+01
      4.685  0.0000E+00  0.7696E+01
      4.776  0.0000E+00  0.7696E+01
      4.866  0.1098E-01  0.7697E+01
      4.957  0.1284E+01  0.7814E+01
      5.048  0.1726E+01  0.7971E+01
      5.139  0.0000E+00  0.7971E+01
      5.230  0.0000E+00  0.7971E+01
      5.321  0.0000E+00  0.7971E+01
      5.412  0.0000E+00  0.7971E+01
      5.502  0.2437E+00  0.7993E+01
      5.593  0.0000E+00  0.8000E+01
      5.684  0.0000E+00  0.8000E+01
      5.775  0.0000E+00  0.8000E+01
      5.866  0.0000E+00  0.8000E+01
      5.957  0.0000E+00  0.8000E+01
      6.048  0.0000E+00  0.8000E+01
      6.138  0.0000E+00  0.8000E+01
      6.229  0.0000E+00  0.8000E+01
      6.320  0.0000E+00  0.8000E+01
      6.411  0.0000E+00  0.8000E+01
      6.502  0.0000E+00  0.8000E+01
      6.593  0.0000E+00  0.8000E+01
      6.684  0.0000E+00  0.8000E+01
      6.774  0.1146E-01  0.8001E+01
      6.865  0.1283E+01  0.8118E+01
      6.956  0.0000E+00  0.8118E+01
      7.047  0.0000E+00  0.8118E+01
      7.138  0.4340E-04  0.8118E+01
      7.229  0.2590E+01  0.8353E+01
      7.320  0.0000E+00  0.8353E+01
      7.410  0.0000E+00  0.8353E+01
      7.501  0.0000E+00  0.8353E+01
      7.592  0.0000E+00  0.8353E+01
      7.683  0.1581E-05  0.8353E+01
      7.774  0.1726E+01  0.8510E+01
      7.865  0.5478E+00  0.8560E+01
      7.956  0.2698E-02  0.8569E+01
      8.046  0.8605E+00  0.8647E+01
      8.137  0.2570E+01  0.8881E+01
      8.228  0.1973E+01  0.9062E+01
      8.319  0.0000E+00  0.9176E+01
      8.410  0.0000E+00  0.9176E+01
      8.501  0.0000E+00  0.9176E+01
      8.592  0.1760E+00  0.9192E+01
      8.682  0.3978E+00  0.9291E+01
      8.773  0.1879E-06  0.9490E+01
      8.864  0.3237E+00  0.9520E+01
      8.955  0.2590E+01  0.9755E+01
      9.046  0.2573E-03  0.9755E+01
      9.137  0.2589E+01  0.9990E+01
      9.228  0.0000E+00  0.9990E+01
      9.318  0.2391E-08  0.9990E+01
      9.409  0.1295E+01  0.1011E+02
      9.500  0.1226E+01  0.1022E+02
      9.591  0.2583E+01  0.1050E+02
      9.682  0.8632E+00  0.1058E+02
      9.773  0.2097E-07  0.1058E+02
      9.864  0.2191E+01  0.1078E+02
      9.955  0.1980E+01  0.1116E+02
     10.045  0.9263E-09  0.1133E+02
     10.136  0.1295E+01  0.1145E+02
     10.227  0.0000E+00  0.1145E+02
     10.318  0.0000E+00  0.1145E+02
     10.409  0.2686E+00  0.1148E+02
     10.500  0.5164E+01  0.1216E+02
     10.591  0.1197E+00  0.1217E+02
     10.681  0.5574E+01  0.1267E+02
     10.772  0.1295E+01  0.1280E+02
     10.863  0.2314E+01  0.1301E+02
     10.954  0.9116E-11  0.1304E+02
     11.045  0.2590E+01  0.1327E+02
     11.136  0.0000E+00  0.1327E+02
     11.227  0.0000E+00  0.1327E+02
     11.317  0.0000E+00  0.1327E+02
     11.408  0.0000E+00  0.1327E+02
     11.499  0.1755E+01  0.1343E+02
     11.590  0.0000E+00  0.1351E+02
     11.681  0.0000E+00  0.1351E+02
     11.772  0.0000E+00  0.1351E+02
     11.863  0.0000E+00  0.1351E+02
     11.953  0.8022E+00  0.1358E+02
     12.044  0.0000E+00  0.1359E+02
     12.135  0.1293E+01  0.1371E+02
     12.226  0.1295E+01  0.1382E+02
     12.317  0.0000E+00  0.1382E+02
     12.408  0.0000E+00  0.1382E+02
     12.499  0.1200E-08  0.1382E+02
     12.589  0.2590E+01  0.1406E+02
     12.680  0.0000E+00  0.1406E+02
     12.771  0.0000E+00  0.1406E+02
     12.862  0.7188E-15  0.1406E+02
     12.953  0.2590E+01  0.1429E+02
     13.044  0.2510E-01  0.1430E+02
     13.135  0.3859E+01  0.1465E+02
     13.225  0.0000E+00  0.1465E+02
     13.316  0.0000E+00  0.1465E+02
     13.407  0.0000E+00  0.1465E+02
     13.498  0.0000E+00  0.1465E+02
     13.589  0.1243E-12  0.1465E+02
     13.680  0.3861E+01  0.1500E+02
     13.771  0.0000E+00  0.1500E+02
     13.861  0.2635E+01  0.1524E+02
     13.952  0.1229E+01  0.1535E+02
     14.043  0.3098E+00  0.1538E+02
     14.134  0.3021E+01  0.1586E+02
     14.225  0.0000E+00  0.1586E+02
     14.316  0.9145E-06  0.1586E+02
     14.407  0.8632E+00  0.1594E+02
     14.497  0.0000E+00  0.1594E+02
     14.588  0.0000E+00  0.1594E+02
     14.679  0.0000E+00  0.1594E+02
     14.770  0.0000E+00  0.1594E+02
     14.861  0.0000E+00  0.1594E+02
     14.952  0.0000E+00  0.1594E+02
     15.043  0.0000E+00  0.1594E+02
     15.133  0.0000E+00  0.1594E+02
     15.224  0.0000E+00  0.1594E+02
     15.315  0.0000E+00  0.1594E+02
     15.406  0.0000E+00  0.1594E+02
     15.497  0.0000E+00  0.1594E+02
     15.588  0.0000E+00  0.1594E+02
     15.679  0.0000E+00  0.1594E+02
     15.769  0.0000E+00  0.1594E+02
     15.860  0.0000E+00  0.1594E+02
     15.951  0.0000E+00  0.1594E+02
     16.042  0.0000E+00  0.1594E+02
     16.133  0.0000E+00  0.1594E+02
     16.224  0.0000E+00  0.1594E+02
     16.315  0.0000E+00  0.1594E+02
     16.406  0.0000E+00  0.1594E+02
     16.496  0.0000E+00  0.1594E+02
     16.587  0.0000E+00  0.1594E+02
     16.678  0.0000E+00  0.1594E+02
     16.769  0.0000E+00  0.1594E+02
     16.860  0.0000E+00  0.1594E+02
     16.951  0.1298E-04  0.1594E+02
     17.042  0.6474E+00  0.1600E+02
     17.132  0.0000E+00  0.1600E+02
     17.223  0.0000E+00  0.1600E+02
     17.314  0.0000E+00  0.1600E+02
     17.405  0.0000E+00  0.1600E+02
     17.496  0.0000E+00  0.1600E+02
     17.587  0.0000E+00  0.1600E+02
     17.678  0.0000E+00  0.1600E+02
     17.768  0.0000E+00  0.1600E+02
     17.859  0.0000E+00  0.1600E+02
     17.950  0.0000E+00  0.1600E+02
     18.041  0.0000E+00  0.1600E+02
     18.132  0.0000E+00  0.1600E+02
     18.223  0.0000E+00  0.1600E+02
     18.22269708     -9.03509336  301      5.60461159      1.00000000
     -9.035  0.0000E+00  0.0000E+00  0.0000E+00
     -8.944  0.0000E+00  0.0000E+00  0.0000E+00
     -8.853  0.0000E+00  0.0000E+00  0.0000E+00
     -8.763  0.0000E+00  0.0000E+00  0.0000E+00
     -8.672  0.0000E+00  0.0000E+00  0.0000E+00
     -8.581  0.0000E+00  0.0000E+00  0.0000E+00
     -8.490  0.0000E+00  0.0000E+00  0.0000E+00
     -8.399  0.0000E+00  0.0000E+00  0.0000E+00
     -8.308  0.0000E+00  0.0000E+00  0.0000E+00
     -8.217  0.0000E+00  0.0000E+00  0.0000E+00
     -8.127  0.0000E+00  0.0000E+00  0.0000E+00
     -8.036  0.0000E+00  0.0000E+00  0.0000E+00
     -7.945  0.0000E+00  0.0000E+00  0.0000E+00
     -7.854  0.3945E-17  0.2824E-31  0.0000E+00
     -7.763  0.2369E-01  0.1696E-15  0.0000E+00
     -7.672  0.0000E+00  0.0000E+00  0.0000E+00
     -7.581  0.0000E+00  0.0000E+00  0.0000E+00
     -7.490  0.0000E+00  0.0000E+00  0.0000E+00
     -7.400  0.5236E-01  0.9499E-03  0.0000E+00
     -7.309  0.1418E-12  0.3563E-14  0.0000E+00
     -7.218  0.1403E+00  0.3525E-02  0.0000E+00
     -7.127  0.0000E+00  0.0000E+00  0.0000E+00
     -7.036  0.0000E+00  0.0000E+00  0.0000E+00
     -6.945  0.0000E+00  0.0000E+00  0.0000E+00
     -6.854  0.0000E+00  0.0000E+00  0.0000E+00
     -6.764  0.3075E-03  0.1438E-04  0.0000E+00
     -6.673  0.2783E+00  0.1302E-01  0.0000E+00
     -6.582  0.0000E+00  0.0000E+00  0.0000E+00
     -6.491  0.0000E+00  0.0000E+00  0.0000E+00
     -6.400  0.4664E-11  0.3009E-12  0.0000E+00
     -6.309  0.5532E+00  0.3570E-01  0.0000E+00
     -6.218  0.1867E+00  0.1125E-01  0.0000E+00
     -6.128  0.0000E+00  0.0000E+00  0.0000E+00
     -6.037  0.0000E+00  0.0000E+00  0.0000E+00
     -5.946  0.0000E+00  0.0000E+00  0.0000E+00
     -5.855  0.0000E+00  0.0000E+00  0.0000E+00
     -5.764  0.0000E+00  0.0000E+00  0.0000E+00
     -5.673  0.1054E+00  0.1077E-01  0.0000E+00
     -5.582  0.0000E+00  0.0000E+00  0.0000E+00
     -5.492  0.1733E-07  0.1519E-08  0.0000E+00
     -5.401  0.5617E+00  0.4925E-01  0.0000E+00
     -5.310  0.0000E+00  0.0000E+00  0.0000E+00
     -5.219  0.5485E+00  0.6037E-01  0.0000E+00
     -5.128  0.9893E-01  0.6146E-02  0.0000E+00
     -5.037  0.1272E-01  0.1146E-02  0.0000E+00
     -4.946  0.5618E+00  0.5062E-01  0.0000E+00
     -4.856  0.0000E+00  0.0000E+00  0.0000E+00
     -4.765  0.0000E+00  0.0000E+00  0.0000E+00
     -4.674  0.0000E+00  0.0000E+00  0.0000E+00
     -4.583  0.0000E+00  0.0000E+00  0.0000E+00
     -4.492  0.0000E+00  0.0000E+00  0.0000E+00
     -4.401  0.3527E-03  0.5477E-04  0.0000E+00
     -4.310  0.5370E+00  0.8340E-01  0.0000E+00
     -4.220  0.0000E+00  0.0000E+00  0.0000E+00
     -4.129  0.8496E+00  0.1110E+00  0.0000E+00
     -4.038  0.0000E+00  0.0000E+00  0.0000E+00
     -3.947  0.0000E+00  0.0000E+00  0.0000E+00
     -3.856  0.0000E+00  0.0000E+00  0.0000E+00
     -3.765  0.0000E+00  0.0000E+00  0.0000E+00
     -3.674  0.0000E+00  0.0000E+00  0.0000E+00
     -3.584  0.0000E+00  0.0000E+00  0.0000E+00
     -3.493  0.0000E+00  0.0000E+00  0.0000E+00
     -3.402  0.0000E+00  0.0000E+00  0.0000E+00
     -3.311  0.0000E+00  0.0000E+00  0.0000E+00
     -3.220  0.1442E-11  0.3437E-12  0.0000E+00
     -3.129  0.1273E+00  0.3034E-01  0.0000E+00
     -3.038  0.0000E+00  0.0000E+00  0.0000E+00
     -2.948  0.0000E+00  0.0000E+00  0.0000E+00
     -2.857  0.0000E+00  0.0000E+00  0.0000E+00
     -2.766  0.0000E+00  0.0000E+00  0.0000E+00
     -2.675  0.0000E+00  0.0000E+00  0.0000E+00
     -2.584  0.0000E+00  0.0000E+00  0.0000E+00
     -2.493  0.0000E+00  0.0000E+00  0.0000E+00
     -2.402  0.0000E+00  0.0000E+00  0.0000E+00
     -2.312  0.0000E+00  0.0000E+00  0.0000E+00
     -2.221  0.2265E-01  0.2187E-01  0.0000E+00
     -2.130  0.8017E-12  0.3301E-12  0.0000E+00
     -2.039  0.4335E+00  0.1785E+00  0.0000E+00
     -1.948  0.2301E+00  0.8433E-01  0.0000E+00
     -1.857  0.1518E-10  0.1107E-10  0.0000E+00
     -1.766  0.6060E+00  0.3290E+00  0.0000E+00
     -1.675  0.0000E+00  0.0000E+00  0.0000E+00
     -1.585  0.0000E+00  0.0000E+00  0.0000E+00
     -1.494  0.0000E+00  0.0000E+00  0.0000E+00
     -1.403  0.0000E+00  0.0000E+00  0.0000E+00
     -1.312  0.0000E+00  0.0000E+00  0.0000E+00
     -1.221  0.0000E+00  0.0000E+00  0.0000E+00
     -1.130  0.2635E+00  0.1929E+00  0.0000E+00
     -1.039  0.0000E+00  0.0000E+00  0.0000E+00
     -0.949  0.0000E+00  0.0000E+00  0.0000E+00
     -0.858  0.0000E+00  0.0000E+00  0.0000E+00
     -0.767  0.1939E-06  0.9041E-07  0.0000E+00
     -0.676  0.4402E+00  0.2053E+00  0.0000E+00
     -0.585  0.0000E+00  0.0000E+00  0.0000E+00
     -0.494  0.0000E+00  0.0000E+00  0.0000E+00
     -0.403  0.6120E-05  0.6184E-05  0.0000E+00
     -0.313  0.9096E-01  0.9192E-01  0.0000E+00
     -0.222  0.0000E+00  0.0000E+00  0.0000E+00
     -0.131  0.0000E+00  0.0000E+00  0.0000E+00
     -0.040  0.2696E-04  0.1274E-04  0.0000E+00
      0.051  0.1127E+00  0.5325E-01  0.0000E+00
      0.142  0.0000E+00  0.0000E+00  0.0000E+00
      0.233  0.0000E+00  0.0000E+00  0.0000E+00
      0.323  0.0000E+00  0.0000E+00  0.0000E+00
      0.414  0.0000E+00  0.0000E+00  0.0000E+00
      0.505  0.0000E+00  0.0000E+00  0.0000E+00
      0.596  0.6785E-07  0.5803E-07  0.0000E+00
      0.687  0.3305E+00  0.4742E+00  0.0000E+00
      0.778  0.0000E+00  0.0000E+00  0.0000E+00
      0.869  0.0000E+00  0.0000E+00  0.0000E+00
      0.959  0.0000E+00  0.0000E+00  0.0000E+00
      1.050  0.0000E+00  0.0000E+00  0.0000E+00
      1.141  0.4863E-01  0.3977E+00  0.0000E+00
      1.232  0.0000E+00  0.0000E+00  0.0000E+00
      1.323  0.0000E+00  0.0000E+00  0.0000E+00
      1.414  0.4483E-04  0.4386E-04  0.0000E+00
      1.505  0.1553E+00  0.1520E+00  0.0000E+00
      1.595  0.1375E-01  0.4360E+00  0.0000E+00
      1.686  0.2807E-01  0.4217E+00  0.0000E+00
      1.777  0.0000E+00  0.0000E+00  0.0000E+00
      1.868  0.0000E+00  0.0000E+00  0.0000E+00
      1.959  0.0000E+00  0.0000E+00  0.0000E+00
      2.050  0.0000E+00  0.0000E+00  0.0000E+00
      2.141  0.1384E-16  0.6929E-16  0.0000E+00
      2.231  0.8308E-01  0.4161E+00  0.0000E+00
      2.322  0.1568E-18  0.5272E-04  0.0000E+00
      2.413  0.3829E-15  0.1288E+00  0.0000E+00
      2.504  0.7843E-01  0.7182E+00  0.0000E+00
      2.595  0.0000E+00  0.0000E+00  0.0000E+00
      2.686  0.9367E-14  0.3505E+00  0.0000E+00
      2.777  0.0000E+00  0.0000E+00  0.0000E+00
      2.867  0.1406E-12  0.2581E+00  0.0000E+00
      2.958  0.7614E-01  0.3515E+00  0.0000E+00
      3.049  0.1108E-01  0.4882E+00  0.0000E+00
      3.140  0.8476E-21  0.1017E-06  0.0000E+00
      3.231  0.2214E-14  0.2658E+00  0.0000E+00
      3.322  0.3201E-01  0.3741E-01  0.0000E+00
      3.413  0.7900E-01  0.4537E+00  0.0000E+00
      3.503  0.2094E-23  0.1245E-10  0.0000E+00
      3.594  0.2377E-12  0.6906E+00  0.0000E+00
      3.685  0.0000E+00  0.0000E+00  0.0000E+00
      3.776  0.0000E+00  0.0000E+00  0.0000E+00
      3.867  0.0000E+00  0.0000E+00  0.0000E+00
      3.958  0.0000E+00  0.0000E+00  0.0000E+00
      4.049  0.2736E-16  0.1420E-04  0.0000E+00
      4.140  0.1074E-11  0.5573E+00  0.0000E+00
      4.230  0.4926E-13  0.3994E+00  0.0000E+00
      4.321  0.0000E+00  0.0000E+00  0.0000E+00
      4.412  0.1835E-13  0.3145E+00  0.0000E+00
      4.503  0.0000E+00  0.0000E+00  0.0000E+00
      4.594  0.0000E+00  0.0000E+00  0.0000E+00
      4.685  0.0000E+00  0.0000E+00  0.0000E+00
      4.776  0.0000E+00  0.0000E+00  0.0000E+00
      4.866  0.4542E-15  0.2435E-02  0.0000E+00
      4.957  0.5310E-13  0.2847E+00  0.0000E+00
      5.048  0.1120E-13  0.3711E+00  0.0000E+00
      5.139  0.0000E+00  0.0000E+00  0.0000E+00
      5.230  0.0000E+00  0.0000E+00  0.0000E+00
      5.321  0.0000E+00  0.0000E+00  0.0000E+00
      5.412  0.0000E+00  0.0000E+00  0.0000E+00
      5.502  0.8723E-14  0.5298E-01  0.0000E+00
      5.593  0.0000E+00  0.0000E+00  0.0000E+00
      5.684  0.0000E+00  0.0000E+00  0.0000E+00
      5.775  0.0000E+00  0.0000E+00  0.0000E+00
      5.866  0.0000E+00  0.0000E+00  0.0000E+00
      5.957  0.0000E+00  0.0000E+00  0.0000E+00
      6.048  0.0000E+00  0.0000E+00  0.0000E+00
      6.138  0.0000E+00  0.0000E+00  0.0000E+00
      6.229  0.0000E+00  0.0000E+00  0.0000E+00
      6.320  0.0000E+00  0.0000E+00  0.0000E+00
      6.411  0.0000E+00  0.0000E+00  0.0000E+00
      6.502  0.0000E+00  0.0000E+00  0.0000E+00
      6.593  0.0000E+00  0.0000E+00  0.0000E+00
      6.684  0.0000E+00  0.0000E+00  0.0000E+00
      6.774  0.6022E-03  0.3793E-03  0.0000E+00
      6.865  0.6707E-01  0.5686E-01  0.0000E+00
      6.956  0.0000E+00  0.0000E+00  0.0000E+00
      7.047  0.0000E+00  0.0000E+00  0.0000E+00
      7.138  0.2216E-05  0.1801E-05  0.0000E+00
      7.229  0.1322E+00  0.1075E+00  0.0000E+00
      7.320  0.0000E+00  0.0000E+00  0.0000E+00
      7.410  0.0000E+00  0.0000E+00  0.0000E+00
      7.501  0.0000E+00  0.0000E+00  0.0000E+00
      7.592  0.0000E+00  0.0000E+00  0.0000E+00
      7.683  0.8575E-07  0.6877E-07  0.0000E+00
      7.774  0.1516E+00  0.6391E-01  0.0000E+00
      7.865  0.1679E-01  0.5503E-01  0.0000E+00
      7.956  0.4697E-03  0.8188E-04  0.0000E+00
      8.046  0.1498E+00  0.2611E-01  0.0000E+00
      8.137  0.1094E+00  0.2157E+00  0.0000E+00
      8.228  0.1136E+00  0.9271E-01  0.0000E+00
      8.319  0.0000E+00  0.0000E+00  0.0000E+00
      8.410  0.0000E+00  0.0000E+00  0.0000E+00
      8.501  0.0000E+00  0.0000E+00  0.0000E+00
      8.592  0.2146E-01  0.1306E-01  0.0000E+00
      8.682  0.3241E-01  0.2413E-01  0.0000E+00
      8.773  0.1702E-18  0.2826E-07  0.0000E+00
      8.864  0.2936E-12  0.4869E-01  0.0000E+00
      8.955  0.8923E-01  0.1734E+00  0.0000E+00
      9.046  0.7894E-05  0.2489E-04  0.0000E+00
      9.137  0.7944E-01  0.2505E+00  0.0000E+00
      9.228  0.0000E+00  0.0000E+00  0.0000E+00
      9.318  0.2258E-09  0.2160E-09  0.0000E+00
      9.409  0.1223E+00  0.1170E+00  0.0000E+00
      9.500  0.2422E-12  0.1862E+00  0.0000E+00
      9.591  0.2061E-01  0.2060E+00  0.0000E+00
      9.682  0.1333E-12  0.7900E-01  0.0000E+00
      9.773  0.4379E-10  0.2327E-08  0.0000E+00
      9.864  0.6186E-01  0.2222E+00  0.0000E+00
      9.955  0.1015E-01  0.2303E+00  0.0000E+00
     10.045  0.3020E-10  0.1069E-09  0.0000E+00
     10.136  0.4221E-01  0.1495E+00  0.0000E+00
     10.227  0.0000E+00  0.0000E+00  0.0000E+00
     10.318  0.0000E+00  0.0000E+00  0.0000E+00
     10.409  0.1321E-01  0.2459E-01  0.0000E+00
     10.500  0.3224E+00  0.4156E+00  0.0000E+00
     10.591  0.1043E-05  0.1343E-01  0.0000E+00
     10.681  0.2418E+00  0.5585E+00  0.0000E+00
     10.772  0.9899E-09  0.2120E+00  0.0000E+00
     10.863  0.8563E-01  0.2400E+00  0.0000E+00
     10.954  0.2260E-23  0.9415E-12  0.0000E+00
     11.045  0.6419E-12  0.2675E+00  0.0000E+00
     11.136  0.0000E+00  0.0000E+00  0.0000E+00
     11.227  0.0000E+00  0.0000E+00  0.0000E+00
     11.317  0.0000E+00  0.0000E+00  0.0000E+00
     11.408  0.0000E+00  0.0000E+00  0.0000E+00
     11.499  0.7609E-10  0.2391E+00  0.0000E+00
     11.590  0.0000E+00  0.0000E+00  0.0000E+00
     11.681  0.0000E+00  0.0000E+00  0.0000E+00
     11.772  0.0000E+00  0.0000E+00  0.0000E+00
     11.863  0.0000E+00  0.0000E+00  0.0000E+00
     11.953  0.1490E+00  0.8823E-01  0.0000E+00
     12.044  0.0000E+00  0.0000E+00  0.0000E+00
     12.135  0.9720E-01  0.1153E+00  0.0000E+00
     12.226  0.5378E-02  0.9141E-01  0.0000E+00
     12.317  0.0000E+00  0.0000E+00  0.0000E+00
     12.408  0.0000E+00  0.0000E+00  0.0000E+00
     12.499  0.2275E-10  0.9326E-10  0.0000E+00
     12.589  0.4908E-01  0.2012E+00  0.0000E+00
     12.680  0.0000E+00  0.0000E+00  0.0000E+00
     12.771  0.0000E+00  0.0000E+00  0.0000E+00
     12.862  0.1678E-16  0.7268E-16  0.0000E+00
     12.953  0.6045E-01  0.2618E+00  0.0000E+00
     13.044  0.1365E-05  0.3756E-02  0.0000E+00
     13.135  0.9010E-01  0.4960E+00  0.0000E+00
     13.225  0.0000E+00  0.0000E+00  0.0000E+00
     13.316  0.0000E+00  0.0000E+00  0.0000E+00
     13.407  0.0000E+00  0.0000E+00  0.0000E+00
     13.498  0.0000E+00  0.0000E+00  0.0000E+00
     13.589  0.6588E-15  0.1789E-13  0.0000E+00
     13.680  0.8699E-01  0.5253E+00  0.0000E+00
     13.771  0.0000E+00  0.0000E+00  0.0000E+00
     13.861  0.8334E-01  0.2824E+00  0.0000E+00
     13.952  0.5781E-07  0.1999E+00  0.0000E+00
     14.043  0.3511E-09  0.3731E-01  0.0000E+00
     14.134  0.1166E+00  0.3757E+00  0.0000E+00
     14.225  0.0000E+00  0.0000E+00  0.0000E+00
     14.316  0.9334E-08  0.9379E-07  0.0000E+00
     14.407  0.8810E-02  0.8853E-01  0.0000E+00
     14.497  0.0000E+00  0.0000E+00  0.0000E+00
     14.588  0.0000E+00  0.0000E+00  0.0000E+00
     14.679  0.0000E+00  0.0000E+00  0.0000E+00
     14.770  0.0000E+00  0.0000E+00  0.0000E+00
     14.861  0.0000E+00  0.0000E+00  0.0000E+00
     14.952  0.0000E+00  0.0000E+00  0.0000E+00
     15.043  0.0000E+00  0.0000E+00  0.0000E+00
     15.133  0.0000E+00  0.0000E+00  0.0000E+00
     15.224  0.0000E+00  0.0000E+00  0.0000E+00
     15.315  0.0000E+00  0.0000E+00  0.0000E+00
     15.406  0.0000E+00  0.0000E+00  0.0000E+00
     15.497  0.0000E+00  0.0000E+00  0.0000E+00
     15.588  0.0000E+00  0.0000E+00  0.0000E+00
     15.679  0.0000E+00  0.0000E+00  0.0000E+00
     15.769  0.0000E+00  0.0000E+00  0.0000E+00
     15.860  0.0000E+00  0.0000E+00  0.0000E+00
     15.951  0.0000E+00  0.0000E+00  0.0000E+00
     16.042  0.0000E+00  0.0000E+00  0.0000E+00
     16.133  0.0000E+00  0.0000E+00  0.0000E+00
     16.224  0.0000E+00  0.0000E+00  0.0000E+00
     16.315  0.0000E+00  0.0000E+00  0.0000E+00
     16.406  0.0000E+00  0.0000E+00  0.0000E+00
     16.496  0.0000E+00  0.0000E+00  0.0000E+00
     16.587  0.0000E+00  0.0000E+00  0.0000E+00
     16.678  0.0000E+00  0.0000E+00  0.0000E+00
     16.769  0.0000E+00  0.0000E+00  0.0000E+00
     16.860  0.0000E+00  0.0000E+00  0.0000E+00
     16.951  0.2487E-11  0.3086E-05  0.0000E+00
     17.042  0.1505E-05  0.1523E+00  0.0000E+00
     17.132  0.0000E+00  0.0000E+00  0.0000E+00
     17.223  0.0000E+00  0.0000E+00  0.0000E+00
     17.314  0.0000E+00  0.0000E+00  0.0000E+00
     17.405  0.0000E+00  0.0000E+00  0.0000E+00
     17.496  0.0000E+00  0.0000E+00  0.0000E+00
     17.587  0.0000E+00  0.0000E+00  0.0000E+00
     17.678  0.0000E+00  0.0000E+00  0.0000E+00
     17.768  0.0000E+00  0.0000E+00  0.0000E+00
     17.859  0.0000E+00  0.0000E+00  0.0000E+00
     17.950  0.0000E+00  0.0000E+00  0.0000E+00
     18.041  0.0000E+00  0.0000E+00  0.0000E+00
     18.132  0.0000E+00  0.0000E+00  0.0000E+00
     18.223  0.0000E+00  0.0000E+00  0.0000E+00
     18.22269708     -9.03509336  301      5.60461159      1.00000000
     -9.035  0.0000E+00  0.0000E+00  0.0000E+00
     -8.944  0.0000E+00  0.0000E+00  0.0000E+00
     -8.853  0.0000E+00  0.0000E+00  0.0000E+00
     -8.763  0.0000E+00  0.0000E+00  0.0000E+00
     -8.672  0.0000E+00  0.0000E+00  0.0000E+00
     -8.581  0.0000E+00  0.0000E+00  0.0000E+00
     -8.490  0.0000E+00  0.0000E+00  0.0000E+00
     -8.399  0.0000E+00  0.0000E+00  0.0000E+00
     -8.308  0.0000E+00  0.0000E+00  0.0000E+00
     -8.217  0.0000E+00  0.0000E+00  0.0000E+00
     -8.127  0.0000E+00  0.0000E+00  0.0000E+00
     -8.036  0.0000E+00  0.0000E+00  0.0000E+00
     -7.945  0.0000E+00  0.0000E+00  0.0000E+00
     -7.854  0.3945E-17  0.2844E-31  0.0000E+00
     -7.763  0.2369E-01  0.1708E-15  0.0000E+00
     -7.672  0.0000E+00  0.0000E+00  0.0000E+00
     -7.581  0.0000E+00  0.0000E+00  0.0000E+00
     -7.490  0.0000E+00  0.0000E+00  0.0000E+00
     -7.400  0.5236E-01  0.9499E-03  0.0000E+00
     -7.309  0.1418E-12  0.3563E-14  0.0000E+00
     -7.218  0.1403E+00  0.3525E-02  0.0000E+00
     -7.127  0.0000E+00  0.0000E+00  0.0000E+00
     -7.036  0.0000E+00  0.0000E+00  0.0000E+00
     -6.945  0.0000E+00  0.0000E+00  0.0000E+00
     -6.854  0.0000E+00  0.0000E+00  0.0000E+00
     -6.764  0.3075E-03  0.1438E-04  0.0000E+00
     -6.673  0.2783E+00  0.1302E-01  0.0000E+00
     -6.582  0.0000E+00  0.0000E+00  0.0000E+00
     -6.491  0.0000E+00  0.0000E+00  0.0000E+00
     -6.400  0.4664E-11  0.3009E-12  0.0000E+00
     -6.309  0.5532E+00  0.3570E-01  0.0000E+00
     -6.218  0.1867E+00  0.1125E-01  0.0000E+00
     -6.128  0.0000E+00  0.0000E+00  0.0000E+00
     -6.037  0.0000E+00  0.0000E+00  0.0000E+00
     -5.946  0.0000E+00  0.0000E+00  0.0000E+00
     -5.855  0.0000E+00  0.0000E+00  0.0000E+00
     -5.764  0.0000E+00  0.0000E+00  0.0000E+00
     -5.673  0.1054E+00  0.1077E-01  0.0000E+00
     -5.582  0.0000E+00  0.0000E+00  0.0000E+00
     -5.492  0.1733E-07  0.1519E-08  0.0000E+00
     -5.401  0.5617E+00  0.4925E-01  0.0000E+00
     -5.310  0.0000E+00  0.0000E+00  0.0000E+00
     -5.219  0.5485E+00  0.6037E-01  0.0000E+00
     -5.128  0.9893E-01  0.6146E-02  0.0000E+00
     -5.037  0.1272E-01  0.1146E-02  0.0000E+00
     -4.946  0.5618E+00  0.5062E-01  0.0000E+00
     -4.856  0.0000E+00  0.0000E+00  0.0000E+00
     -4.765  0.0000E+00  0.0000E+00  0.0000E+00
     -4.674  0.0000E+00  0.0000E+00  0.0000E+00
     -4.583  0.0000E+00  0.0000E+00  0.0000E+00
     -4.492  0.0000E+00  0.0000E+00  0.0000E+00
     -4.401  0.3527E-03  0.5477E-04  0.0000E+00
     -4.310  0.5370E+00  0.8340E-01  0.0000E+00
     -4.220  0.0000E+00  0.0000E+00  0.0000E+00
     -4.129  0.8496E+00  0.1110E+00  0.0000E+00
     -4.038  0.0000E+00  0.0000E+00  0.0000E+00
     -3.947  0.0000E+00  0.0000E+00  0.0000E+00
     -3.856  0.0000E+00  0.0000E+00  0.0000E+00
     -3.765  0.0000E+00  0.0000E+00  0.0000E+00
     -3.674  0.0000E+00  0.0000E+00  0.0000E+00
     -3.584  0.0000E+00  0.0000E+00  0.0000E+00
     -3.493  0.0000E+00  0.0000E+00  0.0000E+00
     -3.402  0.0000E+00  0.0000E+00  0.0000E+00
     -3.311  0.0000E+00  0.0000E+00  0.0000E+00
     -3.220  0.1442E-11  0.3438E-12  0.0000E+00
     -3.129  0.1273E+00  0.3034E-01  0.0000E+00
     -3.038  0.0000E+00  0.0000E+00  0.0000E+00
     -2.948  0.0000E+00  0.0000E+00  0.0000E+00
     -2.857  0.0000E+00  0.0000E+00  0.0000E+00
     -2.766  0.0000E+00  0.0000E+00  0.0000E+00
     -2.675  0.0000E+00  0.0000E+00  0.0000E+00
     -2.584  0.0000E+00  0.0000E+00  0.0000E+00
     -2.493  0.0000E+00  0.0000E+00  0.0000E+00
     -2.402  0.0000E+00  0.0000E+00  0.0000E+00
     -2.312  0.0000E+00  0.0000E+00  0.0000E+00
     -2.221  0.2265E-01  0.2187E-01  0.0000E+00
     -2.130  0.8017E-12  0.3301E-12  0.0000E+00
     -2.039  0.4335E+00  0.1785E+00  0.0000E+00
     -1.948  0.2301E+00  0.8432E-01  0.0000E+00
     -1.857  0.1518E-10  0.1107E-10  0.0000E+00
     -1.766  0.6060E+00  0.3290E+00  0.0000E+00
     -1.675  0.0000E+00  0.0000E+00  0.0000E+00
     -1.585  0.0000E+00  0.0000E+00  0.0000E+00
     -1.494  0.0000E+00  0.0000E+00  0.0000E+00
     -1.403  0.0000E+00  0.0000E+00  0.0000E+00
     -1.312  0.0000E+00  0.0000E+00  0.0000E+00
     -1.221  0.0000E+00  0.0000E+00  0.0000E+00
     -1.130  0.2635E+00  0.1929E+00  0.0000E+00
     -1.039  0.0000E+00  0.0000E+00  0.0000E+00
     -0.949  0.0000E+00  0.0000E+00  0.0000E+00