    2    2    1    1
  0.2002393E+02  0.3840297E-09  0.3840297E-09  0.3840297E-09  0.5000000E-15
  1.000000000000000E-004
  CAR 
 Name                                    
      8    216      8
 
  0.0000000E+00  0.0000000E+00  0.0000000E+00  0.4901961E-02
    1       -7.796103   1.000000
    2        5.497559   1.000000
    3        5.497559   1.000000
    4        5.497559   1.000000
    5        8.807711   0.000000
    6        8.807711   0.000000
    7        8.807711   0.000000
    8        9.815071   0.000000
 
  0.1666667E+00  0.0000000E+00  0.0000000E+00  0.3921569E-01
    1       -7.395478   1.000000
    2        2.942392   1.000000
    3        5.022692   1.000000
    4        5.022692   1.000000
    5        8.597464   0.000000
    6        9.496284   0.000000
    7        9.496284   0.000000
    8       11.943005   0.000000
 
  0.3333333E+00  0.0000000E+00  0.0000000E+00  0.3921569E-01
    1       -6.266201   1.000000
    2       -0.376463   1.000000
    3        4.405122   1.000000
    4        4.405121   1.000000
    5        7.974930   0.000000
    6        9.812234   0.000000
    7        9.812234   0.000000
    8       14.349276   0.000000
 
  0.5000000E+00  0.0000000E+00  0.0000000E+00  0.1960784E-01
    1       -5.200374   1.000000
    2       -2.221122   1.000000
    3        4.175178   1.000000
    4        4.175178   1.000000
    5        7.737670   0.000000
    6        9.628605   0.000000
    7        9.628605   0.000000
    8       14.104293   0.000000
 
  0.1666667E+00  0.1666667E+00  0.0000000E+00  0.2941176E-01
    1       -7.259036   1.000000
    2        3.323074   1.000000
    3        4.224512   1.000000
    4        4.224512   1.000000
    5        7.857523   0.000000
    6       10.675582   0.000000
    7       10.706935   0.000000
    8       10.706935   0.000000
 
  0.3333333E+00  0.1666667E+00  0.0000000E+00  0.1176471E+00
    1       -6.352579   1.000000
    2        0.631782   1.000000
    3        3.371421   1.000000
    4        3.598363   1.000000
    5        8.120319   0.000000
    6       10.426585   0.000000
    7       10.854281   0.000000
    8       11.495848   0.000000
 
  0.5000000E+00  0.1666667E+00  0.0000000E+00  0.1176471E+00
    1       -5.023062   1.000000
    2       -1.811432   1.000000
    3        2.499202   1.000000
    4        3.550039   1.000000
    5        8.227956   0.000000
    6       10.437924   0.000000
    7       11.002438   0.000000
    8       12.919313   0.000000
 
 -0.3333333E+00  0.1666667E+00  0.0000000E+00  0.1176471E+00
    1       -5.453299   1.000000
    2       -1.136357   1.000000
    3        2.198423   1.000000
    4        4.077292   1.000000
    5        8.689690   0.000000
    6       10.417951   0.000000
    7       10.602413   0.000000
    8       13.844346   0.000000
 
 -0.1666667E+00  0.1666667E+00  0.0000000E+00  0.5882353E-01
    1       -6.741968   1.000000
    2        1.438066   1.000000
    3        2.914910   1.000000
    4        4.883262   1.000000
    5        9.360186   0.000000
    6        9.903655   0.000000
    7       10.088154   0.000000
    8       12.113334   0.000000
 
  0.3333333E+00  0.3333333E+00  0.0000000E+00  0.2941176E-01
    1       -5.678738   1.000000
    2       -0.015326   1.000000
    3        2.843948   1.000000
    4        2.843948   1.000000
    5        6.801012   0.000000
    6        8.158521   0.000000
    7       13.873026   0.000000
    8       13.873037   0.000000
 
  0.5000000E+00  0.3333333E+00  0.0000000E+00  0.1176471E+00
    1       -4.378548   1.000000
    2       -1.768062   1.000000
    3        1.536019   1.000000
    4        2.682560   1.000000
    5        7.167194   0.000000
    6        8.919365   0.000000
    7       14.051490   0.000000
    8       14.092787   0.000000
 
 -0.3333333E+00  0.3333333E+00  0.0000000E+00  0.5882353E-01
    1       -4.158893   1.000000
    2       -1.998314   1.000000
    3        0.673164   1.000000
    4        3.175012   1.000000
    5        7.716344   0.000000
    6       12.177774   0.000000
    7       13.058334   0.000000
    8       13.664870   0.000000
 
  0.5000000E+00  0.5000000E+00  0.0000000E+00  0.1470588E-01
    1       -3.172809   1.000000
    2       -3.172808   1.000000
    3        2.345982   1.000000
    4        2.345982   1.000000
    5        6.789313   0.000000
    6        6.789313   0.000000
    7       16.978618   0.000000
    8       16.983707   0.000000
 
  0.5000000E+00  0.3333333E+00  0.1666667E+00  0.1176471E+00
    1       -5.248831   1.000000
    2       -0.732132   1.000000
    3        1.614171   1.000000
    4        3.012559   1.000000
    5        9.072217   0.000000
    6        9.958950   0.000000
    7       10.621552   0.000000
    8       13.641525   0.000000
 
 -0.3333333E+00  0.3333333E+00  0.1666667E+00  0.1176471E+00
    1       -4.147539   1.000000
    2       -2.080655   1.000000
    3        1.122634   1.000000
    4        2.496681   1.000000
    5        9.571132   0.000000
    6        9.871351   0.000000
    7       12.541847   0.000000
    8       13.073252   0.000000
 
  0.4190000E+00  0.0000000E+00  0.4190000E+00  0.0000000E+00
    1       -4.493623   1.000000
    2       -1.694904   1.000000
    3        2.464975   1.000000
    4        2.464975   1.000000
    5        6.638064   0.000000
    6        7.269078   0.000000
    7       15.599157   0.000000
    8       15.599208   0.000000
 
  0.4190000E+00  0.2487560E-02  0.4190000E+00  0.0000000E+00
    1       -4.512432   1.000000
    2       -1.671244   1.000000
    3        2.468287   1.000000
    4        2.468692   1.000000
    5        6.638484   0.000000
    6        7.279424   0.000000
    7       15.573390   0.000000
    8       15.573375   0.000000
 
  0.4190000E+00  0.4975120E-02  0.4190000E+00  0.0000000E+00
    1       -4.531116   1.000000
    2       -1.647594   1.000000
    3        2.470942   1.000000
    4        2.472556   1.000000
    5        6.639646   0.000000
    6        7.290409   0.000000
    7       15.546493   0.000000
    8       15.546634   0.000000
 
  0.4190000E+00  0.7462690E-02  0.4190000E+00  0.0000000E+00
    1       -4.549674   1.000000
    2       -1.623958   1.000000
    3        2.472947   1.000000
    4        2.476573   1.000000
    5        6.641549   0.000000
    6        7.302040   0.000000
    7       15.518302   0.000000
    8       15.518821   0.000000
 
  0.4190000E+00  0.9950250E-02  0.4190000E+00  0.0000000E+00
    1       -4.568104   1.000000
    2       -1.600343   1.000000
    3        2.474311   1.000000
    4        2.480739   1.000000
    5        6.644187   0.000000
    6        7.314313   0.000000
    7       15.489127   0.000000
    8       15.490003   0.000000
 
  0.4190000E+00  0.1243781E-01  0.4190000E+00  0.0000000E+00
    1       -4.586405   1.000000
    2       -1.576752   1.000000
    3        2.475043   1.000000
    4        2.485055   1.000000
    5        6.647551   0.000000
    6        7.327228   0.000000
    7       15.458854   0.000000
    8       15.460162   0.000000
 
  0.4190000E+00  0.1492537E-01  0.4190000E+00  0.0000000E+00
    1       -4.604576   1.000000
    2       -1.553192   1.000000
    3        2.475155   1.000000
    4        2.489520   1.000000
    5        6.651630   0.000000
    6        7.340794   0.000000
    7       15.427563   0.000000
    8       15.429318   0.000000
 
  0.4190000E+00  0.1741293E-01  0.4190000E+00  0.0000000E+00
    1       -4.622616   1.000000
    2       -1.529668   1.000000
    3        2.474660   1.000000
    4        2.494134   1.000000
    5        6.656410   0.000000
    6        7.355011   0.000000
    7       15.395362   0.000000
    8       15.397553   0.000000
 
  0.4190000E+00  0.1990050E-01  0.4190000E+00  0.0000000E+00
    1       -4.640524   1.000000
    2       -1.506187   1.000000
    3        2.473571   1.000000
    4        2.498896   1.000000
    5        6.661876   0.000000
    6        7.369886   0.000000
    7       15.362028   0.000000
    8       15.364689   0.000000
 
  0.4190000E+00  0.2238806E-01  0.4190000E+00  0.0000000E+00
    1       -4.658301   1.000000
    2       -1.482754   1.000000
    3        2.471903   1.000000
    4        2.503807   1.000000
    5        6.668012   0.000000
    6        7.385425   0.000000
    7       15.327852   0.000000
    8       15.330913   0.000000
 
  0.4190000E+00  0.2487562E-01  0.4190000E+00  0.0000000E+00
    1       -4.675941   1.000000
    2       -1.459375   1.000000
    3        2.469675   1.000000
    4        2.508865   1.000000
    5        6.674798   0.000000
    6        7.401634   0.000000
    7       15.292770   0.000000
    8       15.296187   0.000000
 
  0.4190000E+00  0.2736318E-01  0.4190000E+00  0.0000000E+00
    1       -4.693447   1.000000
    2       -1.436058   1.000000
    3        2.466903   1.000000
    4        2.514071   1.000000
    5        6.682213   0.000000
    6        7.418521   0.000000
    7       15.256866   0.000000
    8       15.260548   0.000000
 
  0.4190000E+00  0.2985075E-01  0.4190000E+00  0.0000000E+00
    1       -4.710816   1.000000
    2       -1.412809   1.000000
    3        2.463606   1.000000
    4        2.519424   1.000000
    5        6.690237   0.000000
    6        7.436093   0.000000
    7       15.220634   0.000000
    8       15.223785   0.000000
 
  0.4190000E+00  0.3233831E-01  0.4190000E+00  0.0000000E+00
    1       -4.728050   1.000000
    2       -1.389635   1.000000
    3        2.459805   1.000000
    4        2.524924   1.000000
    5        6.698846   0.000000
    6        7.454357   0.000000
    7       15.182597   0.000000
    8       15.186550   0.000000
 
  0.4190000E+00  0.3482587E-01  0.4190000E+00  0.0000000E+00
    1       -4.745144   1.000000
    2       -1.366543   1.000000
    3        2.455521   1.000000
    4        2.530570   1.000000
    5        6.708016   0.000000
    6        7.473322   0.000000
    7       15.144365   0.000000
    8       15.148279   0.000000
 
  0.4190000E+00  0.3731343E-01  0.4190000E+00  0.0000000E+00
    1       -4.762100   1.000000
    2       -1.343541   1.000000
    3        2.450775   1.000000
    4        2.536363   1.000000
    5        6.717725   0.000000
    6        7.492996   0.000000
    7       15.105415   0.000000
    8       15.109115   0.000000
 
  0.4190000E+00  0.3980099E-01  0.4190000E+00  0.0000000E+00
    1       -4.778918   1.000000
    2       -1.320638   1.000000
    3        2.445591   1.000000
    4        2.542301   1.000000
    5        6.727945   0.000000
    6        7.513385   0.000000
    7       15.065814   0.000000
    8       15.069152   0.000000
 
  0.4190000E+00  0.4228856E-01  0.4190000E+00  0.0000000E+00
    1       -4.795598   1.000000
    2       -1.297841   1.000000
    3        2.439992   1.000000
    4        2.548383   1.000000
    5        6.738654   0.000000
    6        7.534499   0.000000
    7       15.025582   0.000000
    8       15.028403   0.000000
 
  0.4190000E+00  0.4477612E-01  0.4190000E+00  0.0000000E+00
    1       -4.812133   1.000000
    2       -1.275161   1.000000
    3        2.434002   1.000000
    4        2.554611   1.000000
    5        6.749825   0.000000
    6        7.556343   0.000000
    7       14.984776   0.000000
    8       14.986945   0.000000
 
  0.4190000E+00  0.4726368E-01  0.4190000E+00  0.0000000E+00
    1       -4.828527   1.000000
    2       -1.252602   1.000000
    3        2.427649   1.000000
    4        2.560983   1.000000
    5        6.761435   0.000000
    6        7.578925   0.000000
    7       14.943414   0.000000
    8       14.944631   0.000000
 
  0.4190000E+00  0.4975124E-01  0.4190000E+00  0.0000000E+00
    1       -4.844779   1.000000
    2       -1.230174   1.000000
    3        2.420956   1.000000
    4        2.567503   1.000000
    5        6.773457   0.000000
    6        7.602250   0.000000
    7       14.901646   0.000000
    8       14.901567   0.000000
 
  0.4190000E+00  0.5223880E-01  0.4190000E+00  0.0000000E+00
    1       -4.860887   1.000000
    2       -1.207889   1.000000
    3        2.413951   1.000000
    4        2.574163   1.000000
    5        6.785867   0.000000
    6        7.626323   0.000000
    7       14.858004   0.000000
    8       14.859171   0.000000
 
  0.4190000E+00  0.5472637E-01  0.4190000E+00  0.0000000E+00
    1       -4.876852   1.000000
    2       -1.185754   1.000000
    3        2.406661   1.000000
    4        2.580965   1.000000
    5        6.798643   0.000000
    6        7.651150   0.000000
    7       14.813698   0.000000
    8       14.816371   0.000000
 
  0.4190000E+00  0.5721393E-01  0.4190000E+00  0.0000000E+00
    1       -4.892672   1.000000
    2       -1.163781   1.000000
    3        2.399113   1.000000
    4        2.587910   1.000000
    5        6.811760   0.000000
    6        7.676733   0.000000
    7       14.768721   0.000000
    8       14.773119   0.000000
 
  0.4190000E+00  0.5970149E-01  0.4190000E+00  0.0000000E+00
    1       -4.908348   1.000000
    2       -1.141979   1.000000
    3        2.391334   1.000000
    4        2.594997   1.000000
    5        6.825197   0.000000
    6        7.703077   0.000000
    7       14.723148   0.000000
    8       14.729499   0.000000
 
  0.4190000E+00  0.6218905E-01  0.4190000E+00  0.0000000E+00
    1       -4.923878   1.000000
    2       -1.120360   1.000000
    3        2.383354   1.000000
    4        2.602225   1.000000
    5        6.838931   0.000000
    6        7.730181   0.000000
    7       14.676984   0.000000
    8       14.685493   0.000000
 
  0.4190000E+00  0.6467661E-01  0.4190000E+00  0.0000000E+00
    1       -4.939261   1.000000
    2       -1.098931   1.000000
    3        2.375199   1.000000
    4        2.609594   1.000000
    5        6.852944   0.000000
    6        7.758048   0.000000
    7       14.630294   0.000000
    8       14.641197   0.000000
 
  0.4190000E+00  0.6716418E-01  0.4190000E+00  0.0000000E+00
    1       -4.954498   1.000000
    2       -1.077709   1.000000
    3        2.366900   1.000000
    4        2.617103   1.000000
    5        6.867215   0.000000
    6        7.786678   0.000000
    7       14.582996   0.000000
    8       14.596510   0.000000
 
  0.4190000E+00  0.6965174E-01  0.4190000E+00  0.0000000E+00
    1       -4.969588   1.000000
    2       -1.056704   1.000000
    3        2.358485   1.000000
    4        2.624751   1.000000
    5        6.881725   0.000000
    6        7.816069   0.000000
    7       14.535212   0.000000
    8       14.551571   0.000000
 
  0.4190000E+00  0.7213930E-01  0.4190000E+00  0.0000000E+00
    1       -4.984530   1.000000
    2       -1.035927   1.000000
    3        2.349982   1.000000
    4        2.632539   1.000000
    5        6.896458   0.000000
    6        7.846219   0.000000
    7       14.486935   0.000000
    8       14.506367   0.000000
 
  0.4190000E+00  0.7462686E-01  0.4190000E+00  0.0000000E+00
    1       -4.999323   1.000000
    2       -1.015391   1.000000
    3        2.341422   1.000000
    4        2.640464   1.000000
    5        6.911397   0.000000
    6        7.877125   0.000000
    7       14.438191   0.000000
    8       14.460923   0.000000
 
  0.4190000E+00  0.7711443E-01  0.4190000E+00  0.0000000E+00
    1       -5.013971   1.000000
    2       -0.995108   1.000000
    3        2.332832   1.000000
    4        2.648526   1.000000
    5        6.926529   0.000000
    6        7.908784   0.000000
    7       14.388992   0.000000
    8       14.415248   0.000000
 
  0.4190000E+00  0.7960199E-01  0.4190000E+00  0.0000000E+00
    1       -5.028466   1.000000
    2       -0.975092   1.000000
    3        2.324244   1.000000
    4        2.656727   1.000000
    5        6.941838   0.000000
    6        7.941190   0.000000
    7       14.339365   0.000000
    8       14.369372   0.000000
 
  0.4190000E+00  0.8208955E-01  0.4190000E+00  0.0000000E+00
    1       -5.042812   1.000000
    2       -0.955357   1.000000
    3        2.315685   1.000000
    4        2.665064   1.000000
    5        6.957313   0.000000
    6        7.974337   0.000000
    7       14.289332   0.000000
    8       14.323310   0.000000
 
  0.4190000E+00  0.8457711E-01  0.4190000E+00  0.0000000E+00
    1       -5.057008   1.000000
    2       -0.935915   1.000000
    3        2.307186   1.000000
    4        2.673537   1.000000
    5        6.972943   0.000000
    6        8.008219   0.000000
    7       14.238910   0.000000
    8       14.277086   0.000000
 
  0.4190000E+00  0.8706468E-01  0.4190000E+00  0.0000000E+00
    1       -5.071054   1.000000
    2       -0.916781   1.000000
    3        2.298776   1.000000
    4        2.682144   1.000000
    5        6.988716   0.000000
    6        8.042829   0.000000
    7       14.188123   0.000000
    8       14.230711   0.000000
 
  0.4190000E+00  0.8955224E-01  0.4190000E+00  0.0000000E+00
    1       -5.084948   1.000000
    2       -0.897969   1.000000
    3        2.290484   1.000000
    4        2.690886   1.000000
    5        7.004623   0.000000
    6        8.078159   0.000000
    7       14.136981   0.000000
    8       14.184201   0.000000
 
  0.4190000E+00  0.9203980E-01  0.4190000E+00  0.0000000E+00
    1       -5.098691   1.000000
    2       -0.879496   1.000000
    3        2.282337   1.000000
    4        2.699761   1.000000
    5        7.020656   0.000000
    6        8.114199   0.000000
    7       14.085504   0.000000
    8       14.137575   0.000000
 
  0.4190000E+00  0.9452736E-01  0.4190000E+00  0.0000000E+00
    1       -5.112282   1.000000
    2       -0.861373   1.000000
    3        2.274370   1.000000
    4        2.708769   1.000000
    5        7.036808   0.000000
    6        8.150940   0.000000
    7       14.033718   0.000000
    8       14.090849   0.000000
 
  0.4190000E+00  0.9701493E-01  0.4190000E+00  0.0000000E+00
    1       -5.125721   1.000000
    2       -0.843616   1.000000
    3        2.266608   1.000000
    4        2.717908   1.000000
    5        7.053072   0.000000
    6        8.188374   0.000000
    7       13.981635   0.000000
    8       14.044030   0.000000
 
  0.4190000E+00  0.9950249E-01  0.4190000E+00  0.0000000E+00
    1       -5.139008   1.000000
    2       -0.826242   1.000000
    3        2.259081   1.000000
    4        2.727179   1.000000
    5        7.069441   0.000000
    6        8.226488   0.000000
    7       13.929270   0.000000
    8       13.997138   0.000000
 
  0.4190000E+00  0.1019900E+00  0.4190000E+00  0.0000000E+00
    1       -5.152141   1.000000
    2       -0.809264   1.000000
    3        2.251816   1.000000
    4        2.736581   1.000000
    5        7.085912   0.000000
    6        8.265273   0.000000
    7       13.876641   0.000000
    8       13.950186   0.000000
 
  0.4190000E+00  0.1044776E+00  0.4190000E+00  0.0000000E+00
    1       -5.165121   1.000000
    2       -0.792700   1.000000
    3        2.244845   1.000000
    4        2.746111   1.000000
    5        7.102479   0.000000
    6        8.304718   0.000000
    7       13.823763   0.000000
    8       13.903181   0.000000
 
  0.4190000E+00  0.1069652E+00  0.4190000E+00  0.0000000E+00
    1       -5.177948   1.000000
    2       -0.776564   1.000000
    3        2.238190   1.000000
    4        2.755770   1.000000
    5        7.119137   0.000000
    6        8.344810   0.000000
    7       13.770646   0.000000
    8       13.856138   0.000000
 
  0.4190000E+00  0.1094527E+00  0.4190000E+00  0.0000000E+00
    1       -5.190621   1.000000
    2       -0.760873   1.000000
    3        2.231882   1.000000
    4        2.765557   1.000000
    5        7.135885   0.000000
    6        8.385539   0.000000
    7       13.717311   0.000000
    8       13.809064   0.000000
 
  0.4190000E+00  0.1119403E+00  0.4190000E+00  0.0000000E+00
    1       -5.203140   1.000000
    2       -0.745640   1.000000
    3        2.225947   1.000000
    4        2.775471   1.000000
    5        7.152720   0.000000
    6        8.426893   0.000000
    7       13.663768   0.000000
    8       13.761975   0.000000
 
  0.4190000E+00  0.1144279E+00  0.4190000E+00  0.0000000E+00
    1       -5.215505   1.000000
    2       -0.730885   1.000000
    3        2.220410   1.000000
    4        2.785510   1.000000
    5        7.169637   0.000000
    6        8.468859   0.000000
    7       13.610031   0.000000
    8       13.714878   0.000000
 
  0.4190000E+00  0.1169154E+00  0.4190000E+00  0.0000000E+00
    1       -5.227716   1.000000
    2       -0.716618   1.000000
    3        2.215301   1.000000
    4        2.795674   1.000000
    5        7.186635   0.000000
    6        8.511426   0.000000
    7       13.556113   0.000000
    8       13.667783   0.000000
 
  0.4190000E+00  0.1194030E+00  0.4190000E+00  0.0000000E+00
    1       -5.239771   1.000000
    2       -0.702855   1.000000
    3        2.210646   1.000000
    4        2.805962   1.000000
    5        7.203713   0.000000
    6        8.554583   0.000000
    7       13.502027   0.000000
    8       13.620702   0.000000
 
  0.4190000E+00  0.1218905E+00  0.4190000E+00  0.0000000E+00
    1       -5.251671   1.000000
    2       -0.689612   1.000000
    3        2.206465   1.000000
    4        2.816372   1.000000
    5        7.220869   0.000000
    6        8.598316   0.000000
    7       13.447784   0.000000
    8       13.573641   0.000000
 
  0.4190000E+00  0.1243781E+00  0.4190000E+00  0.0000000E+00
    1       -5.263416   1.000000
    2       -0.676903   1.000000
    3        2.202783   1.000000
    4        2.826905   1.000000
    5        7.238102   0.000000
    6        8.642615   0.000000
    7       13.393395   0.000000
    8       13.526608   0.000000
 
  0.4190000E+00  0.1268657E+00  0.4190000E+00  0.0000000E+00
    1       -5.275005   1.000000
    2       -0.664742   1.000000
    3        2.199624   1.000000
    4        2.837556   1.000000
    5        7.255410   0.000000
    6        8.687467   0.000000
    7       13.338872   0.000000
    8       13.479612   0.000000
 
  0.4190000E+00  0.1293532E+00  0.4190000E+00  0.0000000E+00
    1       -5.286438   1.000000
    2       -0.653142   1.000000
    3        2.197010   1.000000
    4        2.848329   1.000000
    5        7.272792   0.000000
    6        8.732860   0.000000
    7       13.284228   0.000000
    8       13.432662   0.000000
 
  0.4190000E+00  0.1318408E+00  0.4190000E+00  0.0000000E+00
    1       -5.297716   1.000000
    2       -0.642115   1.000000
    3        2.194962   1.000000
    4        2.859219   1.000000
    5        7.290249   0.000000
    6        8.778783   0.000000
    7       13.229470   0.000000
    8       13.385764   0.000000
 
  0.4190000E+00  0.1343284E+00  0.4190000E+00  0.0000000E+00
    1       -5.308837   1.000000
    2       -0.631674   1.000000
    3        2.193502   1.000000
    4        2.870227   1.000000
    5        7.307778   0.000000
    6        8.825225   0.000000
    7       13.174612   0.000000
    8       13.338926   0.000000
 
  0.4190000E+00  0.1368159E+00  0.4190000E+00  0.0000000E+00
    1       -5.319802   1.000000
    2       -0.621830   1.000000
    3        2.192648   1.000000
    4        2.881351   1.000000
    5        7.325380   0.000000
    6        8.872173   0.000000
    7       13.119662   0.000000
    8       13.292156   0.000000
 
  0.4190000E+00  0.1393035E+00  0.4190000E+00  0.0000000E+00
    1       -5.330610   1.000000
    2       -0.612592   1.000000
    3        2.192418   1.000000
    4        2.892590   1.000000
    5        7.343054   0.000000
    6        8.919617   0.000000
    7       13.064631   0.000000
    8       13.245459   0.000000
 
  0.4190000E+00  0.1417911E+00  0.4190000E+00  0.0000000E+00
    1       -5.341261   1.000000
    2       -0.603971   1.000000
    3        2.192828   1.000000
    4        2.903942   1.000000
    5        7.360798   0.000000
    6        8.967546   0.000000
    7       13.009529   0.000000
    8       13.198842   0.000000
 
  0.4190000E+00  0.1442786E+00  0.4190000E+00  0.0000000E+00
    1       -5.351755   1.000000
    2       -0.595976   1.000000
    3        2.193894   1.000000
    4        2.915407   1.000000
    5        7.378613   0.000000
    6        9.015948   0.000000
    7       12.954364   0.000000
    8       13.152312   0.000000
 
  0.4190000E+00  0.1467662E+00  0.4190000E+00  0.0000000E+00
    1       -5.362092   1.000000
    2       -0.588612   1.000000
    3        2.195631   1.000000
    4        2.926983   1.000000
    5        7.396498   0.000000
    6        9.064814   0.000000
    7       12.899147   0.000000
    8       13.105874   0.000000
 
  0.4190000E+00  0.1492537E+00  0.4190000E+00  0.0000000E+00
    1       -5.372272   1.000000
    2       -0.581888   1.000000
    3        2.198050   1.000000
    4        2.938668   1.000000
    5        7.414452   0.000000
    6        9.114131   0.000000
    7       12.843885   0.000000
    8       13.059535   0.000000
 
  0.4190000E+00  0.1517413E+00  0.4190000E+00  0.0000000E+00
    1       -5.382293   1.000000
    2       -0.575807   1.000000
    3        2.201163   1.000000
    4        2.950465   1.000000
    5        7.432474   0.000000
    6        9.163892   0.000000
    7       12.788590   0.000000
    8       13.013301   0.000000
 
  0.4190000E+00  0.1542289E+00  0.4190000E+00  0.0000000E+00
    1       -5.392158   1.000000
    2       -0.570374   1.000000
    3        2.204979   1.000000
    4        2.962365   1.000000
    5        7.450563   0.000000
    6        9.214083   0.000000
    7       12.733269   0.000000
    8       12.967177   0.000000
 
  0.4190000E+00  0.1567164E+00  0.4190000E+00  0.0000000E+00
    1       -5.401865   1.000000
    2       -0.565592   1.000000
    3        2.209508   1.000000
    4        2.974370   1.000000
    5        7.468718   0.000000
    6        9.264697   0.000000
    7       12.677930   0.000000
    8       12.921168   0.000000
 
  0.4190000E+00  0.1592040E+00  0.4190000E+00  0.0000000E+00
    1       -5.411415   1.000000
    2       -0.561462   1.000000
    3        2.214754   1.000000
    4        2.986479   1.000000
    5        7.486938   0.000000
    6        9.315722   0.000000
    7       12.622584   0.000000
    8       12.875279   0.000000
 
  0.4190000E+00  0.1616915E+00  0.4190000E+00  0.0000000E+00
    1       -5.420808   1.000000
    2       -0.557985   1.000000
    3        2.220724   1.000000
    4        2.998690   1.000000
    5        7.505221   0.000000
    6        9.367149   0.000000
    7       12.567238   0.000000
    8       12.829517   0.000000
 
  0.4190000E+00  0.1641791E+00  0.4190000E+00  0.0000000E+00
    1       -5.430042   1.000000
    2       -0.555158   1.000000
    3        2.227421   1.000000
    4        3.011002   1.000000
    5        7.523567   0.000000
    6        9.418968   0.000000
    7       12.511901   0.000000
    8       12.783886   0.000000
 
  0.4190000E+00  0.1666667E+00  0.4190000E+00  0.0000000E+00
    1       -5.439118   1.000000
    2       -0.552980   1.000000
    3        2.234848   1.000000
    4        3.023413   1.000000
    5        7.541974   0.000000
    6        9.471171   0.000000
    7       12.456584   0.000000
    8       12.738391   0.000000
 
  0.4190000E+00  0.1691542E+00  0.4190000E+00  0.0000000E+00
    1       -5.448036   1.000000
    2       -0.551447   1.000000
    3        2.243004   1.000000
    4        3.035922   1.000000
    5        7.560440   0.000000
    6        9.523746   0.000000
    7       12.401294   0.000000
    8       12.693037   0.000000
 
  0.4190000E+00  0.1716418E+00  0.4190000E+00  0.0000000E+00
    1       -5.456795   1.000000
    2       -0.550555   1.000000
    3        2.251889   1.000000
    4        3.048526   1.000000
    5        7.578963   0.000000
    6        9.576685   0.000000
    7       12.346041   0.000000
    8       12.647828   0.000000
 
  0.4190000E+00  0.1741293E+00  0.4190000E+00  0.0000000E+00
    1       -5.465397   1.000000
    2       -0.550296   1.000000
    3        2.261500   1.000000
    4        3.061224   1.000000
    5        7.597541   0.000000
    6        9.629979   0.000000
    7       12.290835   0.000000
    8       12.602770   0.000000
 
  0.4190000E+00  0.1766169E+00  0.4190000E+00  0.0000000E+00
    1       -5.473840   1.000000
    2       -0.550665   1.000000
    3        2.271834   1.000000
    4        3.074015   1.000000
    5        7.616172   0.000000
    6        9.683617   0.000000
    7       12.235684   0.000000
    8       12.557868   0.000000
 
  0.4190000E+00  0.1791045E+00  0.4190000E+00  0.0000000E+00
    1       -5.482123   1.000000
    2       -0.551654   1.000000
    3        2.282885   1.000000
    4        3.086893   1.000000
    5        7.634853   0.000000
    6        9.737590   0.000000
    7       12.180598   0.000000
    8       12.513124   0.000000
 
  0.4190000E+00  0.1815920E+00  0.4190000E+00  0.0000000E+00
    1       -5.490250   1.000000
    2       -0.553251   1.000000
    3        2.294647   1.000000
    4        3.099862   1.000000
    5        7.653581   0.000000
    6        9.791888   0.000000
    7       12.125590   0.000000
    8       12.468545   0.000000
 
  0.4190000E+00  0.1840796E+00  0.4190000E+00  0.0000000E+00
    1       -5.498218   1.000000
    2       -0.555447   1.000000
    3        2.307113   1.000000
    4        3.112919   1.000000
    5        7.672354   0.000000
    6        9.846502   0.000000
    7       12.070668   0.000000
    8       12.424135   0.000000
 
  0.4190000E+00  0.1865672E+00  0.4190000E+00  0.0000000E+00
    1       -5.506027   1.000000
    2       -0.558232   1.000000
    3        2.320273   1.000000
    4        3.126059   1.000000
    5        7.691169   0.000000
    6        9.901419   0.000000
    7       12.015846   0.000000
    8       12.379897   0.000000
 