       N       E                     dE             d eps       ncg     rms          ort
DAV:   1     0.208944891904E+03    0.20894E+03   -0.19808E+04  1728   0.129E+03
DAV:   2     0.681800792862E+01   -0.20213E+03   -0.19481E+03  1728   0.378E+02
DAV:   3    -0.130272659840E+01   -0.81207E+01   -0.74034E+01  1728   0.533E+01
DAV:   4    -0.137263106320E+01   -0.69904E-01   -0.69908E-01  1728   0.634E+00
DAV:   5    -0.137292196160E+01   -0.29090E-03   -0.29102E-03  1728   0.397E-01
SDA:   6    -0.121918477668E+02   -0.10819E+02   -0.29102E-03  1728   0.337E-01 0.000E+00
CGA:   7    -0.122136829986E+02   -0.21835E-01   -0.21139E-01  1728   0.117E-01 0.187E-02
CGA:   8    -0.122195089121E+02   -0.58259E-02   -0.57659E-02  1728   0.293E-02 0.246E-03
CGA:   9    -0.122208521086E+02   -0.13432E-02   -0.13422E-02  1728   0.327E-03 0.323E-05
CGA:  10    -0.122209792622E+02   -0.12715E-03   -0.12766E-03  1728   0.485E-04-0.355E-05
CGA:  11    -0.122209984869E+02   -0.19225E-04   -0.19279E-04  1728   0.965E-05-0.420E-06
CGA:  12    -0.122210026759E+02   -0.41890E-05   -0.42730E-05  1728   0.224E-05-0.440E-06
CGA:  13    -0.122210037268E+02   -0.10509E-05   -0.11332E-05  1728   0.576E-06-0.312E-06
CGA:  14    -0.122210039092E+02   -0.18247E-06   -0.18058E-06  1728   0.727E-07 0.229E-07
   1 F= -.12221004E+02 E0= -.12221004E+02  d E =-.122210E+02
