 vasp.5.4.1 24Jun15 (build Nov 25 2015 16:01:35) complex                        
  
 executed on         CrayXC-Intel date 2016.09.07  14:56:21
 running on   96 total cores
 distrk:  each k-point on   24 cores,    4 groups
 distr:  one band on NCORES_PER_BAND=   6 cores,    4 groups


--------------------------------------------------------------------------------------------------------


 INCAR:
 POTCAR:    PAW_PBE Si 05Jan2001                  

 ----------------------------------------------------------------------------- 
|                                                                             |
|           W    W    AA    RRRRR   N    N  II  N    N   GGGG   !!!           |
|           W    W   A  A   R    R  NN   N  II  NN   N  G    G  !!!           |
|           W    W  A    A  R    R  N N  N  II  N N  N  G       !!!           |
|           W WW W  AAAAAA  RRRRR   N  N N  II  N  N N  G  GGG   !            |
|           WW  WW  A    A  R   R   N   NN  II  N   NN  G    G                |
|           W    W  A    A  R    R  N    N  II  N    N   GGGG   !!!           |
|                                                                             |
|      You have enabled k-point parallelism (KPAR>1).                         |
|      This developmental code was originally  written by Paul Kent at ORNL,  |
|      and carefully double checked in Vienna.                                |
|      GW as well as linear response parallelism added by Martijn Marsman     |
|      and Georg Kresse.                                                      |
|      Carefully verify results versus KPAR=1.                                |
|      Report problems to Paul Kent and Vienna.                               |
|                                                                             |
 ----------------------------------------------------------------------------- 


 ----------------------------------------------------------------------------- 
|                                                                             |
|           W    W    AA    RRRRR   N    N  II  N    N   GGGG   !!!           |
|           W    W   A  A   R    R  NN   N  II  NN   N  G    G  !!!           |
|           W    W  A    A  R    R  N N  N  II  N N  N  G       !!!           |
|           W WW W  AAAAAA  RRRRR   N  N N  II  N  N N  G  GGG   !            |
|           WW  WW  A    A  R   R   N   NN  II  N   NN  G    G                |
|           W    W  A    A  R    R  N    N  II  N    N   GGGG   !!!           |
|                                                                             |
|      You have selected ISYM=2 for HF type calculation. This will symmetrize |
|      the charge density but not the exchange potential.                     |
|      I suggest to use ISYM=3 instead. This uses symmetry to obtain          |
|      the orbitals at all k-points in the Brillouine zone, but does not      |
|      apply symmetry to the Hartree potential directly.                      |
|      The resultant charge might have lower symmetry than the crystal,       |
|      but at least, Hartree and exchange are fully compatible.               |
|                                                                             |
 ----------------------------------------------------------------------------- 

 POTCAR:    PAW_PBE Si 05Jan2001                  
   VRHFIN =Si: s2p2                                                             
   LEXCH  = PE                                                                  
   EATOM  =   103.0669 eV,    7.5752 Ry                                         
                                                                                
   TITEL  = PAW_PBE Si 05Jan2001                                                
   LULTRA =        F    use ultrasoft PP ?                                      
   IUNSCR =        1    unscreen: 0-lin 1-nonlin 2-no                           
   RPACOR =    1.500    partial core radius                                     
   POMASS =   28.085; ZVAL   =    4.000    mass and valenz                      
   RCORE  =    1.900    outmost cutoff radius                                   
   RWIGS  =    2.480; RWIGS  =    1.312    wigner-seitz radius (au A)           
   ENMAX  =  245.345; ENMIN  =  184.009 eV                                      
   ICORE  =        2    local potential                                         
   LCOR   =        T    correct aug charges                                     
   LPAW   =        T    paw PP                                                  
   EAUG   =  322.069                                                            
   DEXC   =    0.000                                                            
   RMAX   =    1.950    core radius for proj-oper                               
   RAUG   =    1.300    factor for augmentation sphere                          
   RDEP   =    1.993    radius for radial grids                                 
   RDEPT  =    1.837    core radius for aug-charge                              
                                                                                
   Atomic configuration                                                         
    6 entries                                                                   
     n  l   j            E        occ.                                          
     1  0  0.50     -1785.8828   2.0000                                         
     2  0  0.50      -139.4969   2.0000                                         
     2  1  1.50       -95.5546   6.0000                                         
     3  0  0.50       -10.8127   2.0000                                         
     3  1  0.50        -4.0811   2.0000                                         
     3  2  1.50        -4.0817   0.0000                                         
   Description                                                                  
     l       E           TYP  RCUT    TYP  RCUT                                 
     0    -10.8127223     23  1.900                                             
     0     -7.6451159     23  1.900                                             
     1     -4.0811372     23  1.900                                             
     1      2.4879257     23  1.900                                             
     2     -4.0817478      7  1.900                                             
  local pseudopotential read in
  partial core-charges read in
  partial kinetic energy density read in
  atomic valenz-charges read in
  non local Contribution for L=           0  read in
    real space projection operators read in
  non local Contribution for L=           0  read in
    real space projection operators read in
  non local Contribution for L=           1  read in
    real space projection operators read in
  non local Contribution for L=           1  read in
    real space projection operators read in
    PAW grid and wavefunctions read in
 
   number of l-projection  operators is LMAX  =           4
   number of lm-projection operators is LMMAX =           8
 
  PAW_PBE Si 05Jan2001                  :
 energy of atom  1       EATOM= -103.0669
 kinetic energy error for atom=    0.0006 (will be added to EATOM!!)
 
 
 POSCAR: Si (Madelung Handbook, 295.7K)          
  positions in direct lattice
  velocities in cartesian coordinates
 exchange correlation table for  LEXCH =        8
   RHO(1)=    0.500       N(1)  =     2000
   RHO(2)=  100.500       N(2)  =     4000
 


--------------------------------------------------------------------------------------------------------


 ion  position               nearest neighbor table
   1  0.000  0.000  0.000-   2 2.35   2 2.35   2 2.35   2 2.35
   2  0.250  0.250  0.250-   1 2.35   1 2.35   1 2.35   1 2.35
 
  LATTYP: Found a face centered cubic cell.
 ALAT       =     5.4310000000
  
  Lattice vectors:
  
 A1 = (   2.7155000000,   2.7155000000,   0.0000000000)
 A2 = (   2.7155000000,   0.0000000000,  -2.7155000000)
 A3 = (   0.0000000000,   2.7155000000,  -2.7155000000)


Analysis of symmetry for initial positions (statically):
=====================================================================
 Subroutine PRICEL returns:
 Original cell was already a primitive cell.
 

 Routine SETGRP: Setting up the symmetry group for a 
 face centered cubic supercell.


 Subroutine GETGRP returns: Found 48 space group operations
 (whereof 24 operations were pure point group operations)
 out of a pool of 48 trial point group operations.


The static configuration has the point symmetry T_d .
 The point group associated with its full space group is O_h .


Analysis of symmetry for dynamics (positions and initial velocities):
=====================================================================
 Subroutine PRICEL returns:
 Original cell was already a primitive cell.
 

 Routine SETGRP: Setting up the symmetry group for a 
 face centered cubic supercell.


 Subroutine GETGRP returns: Found 48 space group operations
 (whereof 24 operations were pure point group operations)
 out of a pool of 48 trial point group operations.


The dynamic configuration has the point symmetry T_d .
 The point group associated with its full space group is O_h .


 Subroutine INISYM returns: Found 48 space group operations
 (whereof 24 operations are pure point group operations),
 and found     1 'primitive' translations

 
 
 KPOINTS: Automatically generated mesh: SCF=15, 0.
  k-points in reciprocal lattice
Space group operators:
 irot       det(A)        alpha          n_x          n_y          n_z        tau_x        tau_y        tau_z
    1     1.000000     0.000001     1.000000     0.000000     0.000000     0.000000     0.000000     0.000000
    2     1.000000   120.000000    -0.577350    -0.577350     0.577350     0.000000     0.000000     0.000000
    3     1.000000   120.000000     0.577350     0.577350    -0.577350     0.000000     0.000000     0.000000
    4    -1.000000    90.000000    -1.000000     0.000000     0.000000     0.000000     0.000000     0.000000
    5    -1.000000   180.000000     0.707107     0.707107     0.000000     0.000000     0.000000     0.000000
    6    -1.000000    90.000000     0.000000     1.000000     0.000000     0.000000     0.000000     0.000000
    7     1.000000   180.000000     1.000000     0.000000     0.000000     0.000000     0.000000     0.000000
    8     1.000000   120.000000     0.577350     0.577350     0.577350     0.000000     0.000000     0.000000
    9     1.000000   120.000000    -0.577350     0.577350     0.577350     0.000000     0.000000     0.000000
   10    -1.000000    90.000000     1.000000     0.000000     0.000000     0.000000     0.000000     0.000000
   11    -1.000000    90.000000     0.000000     0.000000     1.000000     0.000000     0.000000     0.000000
   12    -1.000000   180.000000     0.707107     0.000000    -0.707107     0.000000     0.000000     0.000000
   13     1.000000   120.000000     0.577350    -0.577350    -0.577350     0.000000     0.000000     0.000000
   14     1.000000   120.000000     0.577350    -0.577350     0.577350     0.000000     0.000000     0.000000
   15     1.000000   180.000000     0.000000     0.000000     1.000000     0.000000     0.000000     0.000000
   16    -1.000000    90.000000     0.000000    -1.000000     0.000000     0.000000     0.000000     0.000000
   17    -1.000000   180.000000     0.000000    -0.707107     0.707107     0.000000     0.000000     0.000000
   18    -1.000000    90.000000     0.000000     0.000000    -1.000000     0.000000     0.000000     0.000000
   19     1.000000   120.000000    -0.577350    -0.577350    -0.577350     0.000000     0.000000     0.000000
   20     1.000000   180.000000     0.000000     1.000000     0.000000     0.000000     0.000000     0.000000
   21     1.000000   120.000000    -0.577350     0.577350    -0.577350     0.000000     0.000000     0.000000
   22    -1.000000   180.000000     0.707107    -0.707107     0.000000     0.000000     0.000000     0.000000
   23    -1.000000   180.000000     0.000000     0.707107     0.707107     0.000000     0.000000     0.000000
   24    -1.000000   180.000000     0.707107     0.000000     0.707107     0.000000     0.000000     0.000000
   25    -1.000000     0.000001     1.000000     0.000000     0.000000     0.250000     0.250000     0.250000
   26    -1.000000   120.000000    -0.577350    -0.577350     0.577350     0.250000     0.250000     0.250000
   27    -1.000000   120.000000     0.577350     0.577350    -0.577350     0.250000     0.250000     0.250000
   28     1.000000    90.000000    -1.000000     0.000000     0.000000     0.250000     0.250000     0.250000
   29     1.000000   180.000000     0.707107     0.707107     0.000000     0.250000     0.250000     0.250000
   30     1.000000    90.000000     0.000000     1.000000     0.000000     0.250000     0.250000     0.250000
   31    -1.000000   180.000000     1.000000     0.000000     0.000000     0.250000     0.250000     0.250000
   32    -1.000000   120.000000     0.577350     0.577350     0.577350     0.250000     0.250000     0.250000
   33    -1.000000   120.000000    -0.577350     0.577350     0.577350     0.250000     0.250000     0.250000
   34     1.000000    90.000000     1.000000     0.000000     0.000000     0.250000     0.250000     0.250000
   35     1.000000    90.000000     0.000000     0.000000     1.000000     0.250000     0.250000     0.250000
   36     1.000000   180.000000     0.707107     0.000000    -0.707107     0.250000     0.250000     0.250000
   37    -1.000000   120.000000     0.577350    -0.577350    -0.577350     0.250000     0.250000     0.250000
   38    -1.000000   120.000000     0.577350    -0.577350     0.577350     0.250000     0.250000     0.250000
   39    -1.000000   180.000000     0.000000     0.000000     1.000000     0.250000     0.250000     0.250000
   40     1.000000    90.000000     0.000000    -1.000000     0.000000     0.250000     0.250000     0.250000
   41     1.000000   180.000000     0.000000    -0.707107     0.707107     0.250000     0.250000     0.250000
   42     1.000000    90.000000     0.000000     0.000000    -1.000000     0.250000     0.250000     0.250000
   43    -1.000000   120.000000    -0.577350    -0.577350    -0.577350     0.250000     0.250000     0.250000
   44    -1.000000   180.000000     0.000000     1.000000     0.000000     0.250000     0.250000     0.250000
   45    -1.000000   120.000000    -0.577350     0.577350    -0.577350     0.250000     0.250000     0.250000
   46     1.000000   180.000000     0.707107    -0.707107     0.000000     0.250000     0.250000     0.250000
   47     1.000000   180.000000     0.000000     0.707107     0.707107     0.250000     0.250000     0.250000
   48     1.000000   180.000000     0.707107     0.000000     0.707107     0.250000     0.250000     0.250000

 ----------------------------------------------------------------------------- 
|                                                                             |
|           W    W    AA    RRRRR   N    N  II  N    N   GGGG   !!!           |
|           W    W   A  A   R    R  NN   N  II  NN   N  G    G  !!!           |
|           W    W  A    A  R    R  N N  N  II  N N  N  G       !!!           |
|           W WW W  AAAAAA  RRRRR   N  N N  II  N  N N  G  GGG   !            |
|           WW  WW  A    A  R   R   N   NN  II  N   NN  G    G                |
|           W    W  A    A  R    R  N    N  II  N    N   GGGG   !!!           |
|                                                                             |
|      Your generating k-point grid is not commensurate to the symmetry       |
|      of the lattice.  This can cause   slow convergence with respect        |
|      to k-points for HF type calculations                                   |
|      suggested SOLUTIONS:                                                   |
|       ) if not already the case, use automatic k-point generation           |
|       ) shift your grid to Gamma (G) (e.g. required for hex or fcc lattice) |
|                                                                             |
 ----------------------------------------------------------------------------- 

 
 Subroutine IBZKPT_HF returns following result:
 ==============================================
 
 Found    405 k-points in 1st BZ
 the following    405 k-points will be used (e.g. in the exchange kernel)
 Following reciprocal coordinates:   # in IRBZ
  0.000000  0.000000  0.000000    0.00490196   1 t-inv F
  0.166667  0.000000  0.000000    0.00490196   2 t-inv F
  0.333333  0.000000  0.000000    0.00490196   3 t-inv F
  0.500000  0.000000  0.000000    0.00490196   4 t-inv F
  0.166667  0.166667  0.000000    0.00490196   5 t-inv F
  0.333333  0.166667  0.000000    0.00490196   6 t-inv F
  0.500000  0.166667  0.000000    0.00490196   7 t-inv F
 -0.333333  0.166667  0.000000    0.00490196   8 t-inv F
 -0.166667  0.166667  0.000000    0.00490196   9 t-inv F
  0.333333  0.333333  0.000000    0.00490196  10 t-inv F
  0.500000  0.333333  0.000000    0.00490196  11 t-inv F
 -0.333333  0.333333  0.000000    0.00490196  12 t-inv F
  0.500000  0.500000  0.000000    0.00490196  13 t-inv F
  0.500000  0.333333  0.166667    0.00490196  14 t-inv F
 -0.333333  0.333333  0.166667    0.00490196  15 t-inv F
  0.419000  0.000000  0.419000    0.00000000  16 t-inv F
  0.419000  0.002488  0.419000    0.00000000  17 t-inv F
  0.419000  0.004975  0.419000    0.00000000  18 t-inv F
  0.419000  0.007463  0.419000    0.00000000  19 t-inv F
  0.419000  0.009950  0.419000    0.00000000  20 t-inv F
  0.419000  0.012438  0.419000    0.00000000  21 t-inv F
  0.419000  0.014925  0.419000    0.00000000  22 t-inv F
  0.419000  0.017413  0.419000    0.00000000  23 t-inv F
  0.419000  0.019901  0.419000    0.00000000  24 t-inv F
  0.419000  0.022388  0.419000    0.00000000  25 t-inv F
  0.419000  0.024876  0.419000    0.00000000  26 t-inv F
  0.419000  0.027363  0.419000    0.00000000  27 t-inv F
  0.419000  0.029851  0.419000    0.00000000  28 t-inv F
  0.419000  0.032338  0.419000    0.00000000  29 t-inv F
  0.419000  0.034826  0.419000    0.00000000  30 t-inv F
  0.419000  0.037313  0.419000    0.00000000  31 t-inv F
  0.419000  0.039801  0.419000    0.00000000  32 t-inv F
  0.419000  0.042289  0.419000    0.00000000  33 t-inv F
  0.419000  0.044776  0.419000    0.00000000  34 t-inv F
  0.419000  0.047264  0.419000    0.00000000  35 t-inv F
  0.419000  0.049751  0.419000    0.00000000  36 t-inv F
  0.419000  0.052239  0.419000    0.00000000  37 t-inv F
  0.419000  0.054726  0.419000    0.00000000  38 t-inv F
  0.419000  0.057214  0.419000    0.00000000  39 t-inv F
  0.419000  0.059701  0.419000    0.00000000  40 t-inv F
  0.419000  0.062189  0.419000    0.00000000  41 t-inv F
  0.419000  0.064677  0.419000    0.00000000  42 t-inv F
  0.419000  0.067164  0.419000    0.00000000  43 t-inv F
  0.419000  0.069652  0.419000    0.00000000  44 t-inv F
  0.419000  0.072139  0.419000    0.00000000  45 t-inv F
  0.419000  0.074627  0.419000    0.00000000  46 t-inv F
  0.419000  0.077114  0.419000    0.00000000  47 t-inv F
  0.419000  0.079602  0.419000    0.00000000  48 t-inv F
  0.419000  0.082090  0.419000    0.00000000  49 t-inv F
  0.419000  0.084577  0.419000    0.00000000  50 t-inv F
  0.419000  0.087065  0.419000    0.00000000  51 t-inv F
  0.419000  0.089552  0.419000    0.00000000  52 t-inv F
  0.419000  0.092040  0.419000    0.00000000  53 t-inv F
  0.419000  0.094527  0.419000    0.00000000  54 t-inv F
  0.419000  0.097015  0.419000    0.00000000  55 t-inv F
  0.419000  0.099502  0.419000    0.00000000  56 t-inv F
  0.419000  0.101990  0.419000    0.00000000  57 t-inv F
  0.419000  0.104478  0.419000    0.00000000  58 t-inv F
  0.419000  0.106965  0.419000    0.00000000  59 t-inv F
  0.419000  0.109453  0.419000    0.00000000  60 t-inv F
  0.419000  0.111940  0.419000    0.00000000  61 t-inv F
  0.419000  0.114428  0.419000    0.00000000  62 t-inv F
  0.419000  0.116915  0.419000    0.00000000  63 t-inv F
  0.419000  0.119403  0.419000    0.00000000  64 t-inv F
  0.419000  0.121891  0.419000    0.00000000  65 t-inv F
  0.419000  0.124378  0.419000    0.00000000  66 t-inv F
  0.419000  0.126866  0.419000    0.00000000  67 t-inv F
  0.419000  0.129353  0.419000    0.00000000  68 t-inv F
  0.419000  0.131841  0.419000    0.00000000  69 t-inv F
  0.419000  0.134328  0.419000    0.00000000  70 t-inv F
  0.419000  0.136816  0.419000    0.00000000  71 t-inv F
  0.419000  0.139303  0.419000    0.00000000  72 t-inv F
  0.419000  0.141791  0.419000    0.00000000  73 t-inv F
  0.419000  0.144279  0.419000    0.00000000  74 t-inv F
  0.419000  0.146766  0.419000    0.00000000  75 t-inv F
  0.419000  0.149254  0.419000    0.00000000  76 t-inv F
  0.419000  0.151741  0.419000    0.00000000  77 t-inv F
  0.419000  0.154229  0.419000    0.00000000  78 t-inv F
  0.419000  0.156716  0.419000    0.00000000  79 t-inv F
  0.419000  0.159204  0.419000    0.00000000  80 t-inv F
  0.419000  0.161692  0.419000    0.00000000  81 t-inv F
  0.419000  0.164179  0.419000    0.00000000  82 t-inv F
  0.419000  0.166667  0.419000    0.00000000  83 t-inv F
  0.419000  0.169154  0.419000    0.00000000  84 t-inv F
  0.419000  0.171642  0.419000    0.00000000  85 t-inv F
  0.419000  0.174129  0.419000    0.00000000  86 t-inv F
  0.419000  0.176617  0.419000    0.00000000  87 t-inv F
  0.419000  0.179104  0.419000    0.00000000  88 t-inv F
  0.419000  0.181592  0.419000    0.00000000  89 t-inv F
  0.419000  0.184080  0.419000    0.00000000  90 t-inv F
  0.419000  0.186567  0.419000    0.00000000  91 t-inv F
  0.419000  0.189055  0.419000    0.00000000  92 t-inv F
  0.419000  0.191542  0.419000    0.00000000  93 t-inv F
  0.419000  0.194030  0.419000    0.00000000  94 t-inv F
  0.419000  0.196517  0.419000    0.00000000  95 t-inv F
  0.419000  0.199005  0.419000    0.00000000  96 t-inv F
  0.419000  0.201493  0.419000    0.00000000  97 t-inv F
  0.419000  0.203980  0.419000    0.00000000  98 t-inv F
  0.419000  0.206468  0.419000    0.00000000  99 t-inv F
  0.419000  0.208955  0.419000    0.00000000 100 t-inv F
  0.419000  0.211443  0.419000    0.00000000 101 t-inv F
  0.419000  0.213930  0.419000    0.00000000 102 t-inv F
  0.419000  0.216418  0.419000    0.00000000 103 t-inv F
  0.419000  0.218905  0.419000    0.00000000 104 t-inv F
  0.419000  0.221393  0.419000    0.00000000 105 t-inv F
  0.419000  0.223881  0.419000    0.00000000 106 t-inv F
  0.419000  0.226368  0.419000    0.00000000 107 t-inv F
  0.419000  0.228856  0.419000    0.00000000 108 t-inv F
  0.419000  0.231343  0.419000    0.00000000 109 t-inv F
  0.419000  0.233831  0.419000    0.00000000 110 t-inv F
  0.419000  0.236318  0.419000    0.00000000 111 t-inv F
  0.419000  0.238806  0.419000    0.00000000 112 t-inv F
  0.419000  0.241294  0.419000    0.00000000 113 t-inv F
  0.419000  0.243781  0.419000    0.00000000 114 t-inv F
  0.419000  0.246269  0.419000    0.00000000 115 t-inv F
  0.419000  0.248756  0.419000    0.00000000 116 t-inv F
  0.419000  0.251244  0.419000    0.00000000 117 t-inv F
  0.419000  0.253731  0.419000    0.00000000 118 t-inv F
  0.419000  0.256219  0.419000    0.00000000 119 t-inv F
  0.419000  0.258706  0.419000    0.00000000 120 t-inv F
  0.419000  0.261194  0.419000    0.00000000 121 t-inv F
  0.419000  0.263682  0.419000    0.00000000 122 t-inv F
  0.419000  0.266169  0.419000    0.00000000 123 t-inv F
  0.419000  0.268657  0.419000    0.00000000 124 t-inv F
  0.419000  0.271144  0.419000    0.00000000 125 t-inv F
  0.419000  0.273632  0.419000    0.00000000 126 t-inv F
  0.419000  0.276119  0.419000    0.00000000 127 t-inv F
  0.419000  0.278607  0.419000    0.00000000 128 t-inv F
  0.419000  0.281095  0.419000    0.00000000 129 t-inv F
  0.419000  0.283582  0.419000    0.00000000 130 t-inv F
  0.419000  0.286070  0.419000    0.00000000 131 t-inv F
  0.419000  0.288557  0.419000    0.00000000 132 t-inv F
  0.419000  0.291045  0.419000    0.00000000 133 t-inv F
  0.419000  0.293532  0.419000    0.00000000 134 t-inv F
  0.419000  0.296020  0.419000    0.00000000 135 t-inv F
  0.419000  0.298507  0.419000    0.00000000 136 t-inv F
  0.419000  0.300995  0.419000    0.00000000 137 t-inv F
  0.419000  0.303483  0.419000    0.00000000 138 t-inv F
  0.419000  0.305970  0.419000    0.00000000 139 t-inv F
  0.419000  0.308458  0.419000    0.00000000 140 t-inv F
  0.419000  0.310945  0.419000    0.00000000 141 t-inv F
  0.419000  0.313433  0.419000    0.00000000 142 t-inv F
  0.419000  0.315920  0.419000    0.00000000 143 t-inv F
  0.419000  0.318408  0.419000    0.00000000 144 t-inv F
  0.419000  0.320896  0.419000    0.00000000 145 t-inv F
  0.419000  0.323383  0.419000    0.00000000 146 t-inv F
  0.419000  0.325871  0.419000    0.00000000 147 t-inv F
  0.419000  0.328358  0.419000    0.00000000 148 t-inv F
  0.419000  0.330846  0.419000    0.00000000 149 t-inv F
  0.419000  0.333333  0.419000    0.00000000 150 t-inv F
  0.419000  0.335821  0.419000    0.00000000 151 t-inv F
  0.419000  0.338308  0.419000    0.00000000 152 t-inv F
  0.419000  0.340796  0.419000    0.00000000 153 t-inv F
  0.419000  0.343284  0.419000    0.00000000 154 t-inv F
  0.419000  0.345771  0.419000    0.00000000 155 t-inv F
  0.419000  0.348259  0.419000    0.00000000 156 t-inv F
  0.419000  0.350746  0.419000    0.00000000 157 t-inv F
  0.419000  0.353234  0.419000    0.00000000 158 t-inv F
  0.419000  0.355721  0.419000    0.00000000 159 t-inv F
  0.419000  0.358209  0.419000    0.00000000 160 t-inv F
  0.419000  0.360696  0.419000    0.00000000 161 t-inv F
  0.419000  0.363184  0.419000    0.00000000 162 t-inv F
  0.419000  0.365672  0.419000    0.00000000 163 t-inv F
  0.419000  0.368159  0.419000    0.00000000 164 t-inv F
  0.419000  0.370647  0.419000    0.00000000 165 t-inv F
  0.419000  0.373134  0.419000    0.00000000 166 t-inv F
  0.419000  0.375622  0.419000    0.00000000 167 t-inv F
  0.419000  0.378109  0.419000    0.00000000 168 t-inv F
  0.419000  0.380597  0.419000    0.00000000 169 t-inv F
  0.419000  0.383085  0.419000    0.00000000 170 t-inv F
  0.419000  0.385572  0.419000    0.00000000 171 t-inv F
  0.419000  0.388060  0.419000    0.00000000 172 t-inv F
  0.419000  0.390547  0.419000    0.00000000 173 t-inv F
  0.419000  0.393035  0.419000    0.00000000 174 t-inv F
  0.419000  0.395522  0.419000    0.00000000 175 t-inv F
  0.419000  0.398010  0.419000    0.00000000 176 t-inv F
  0.419000  0.400498  0.419000    0.00000000 177 t-inv F
  0.419000  0.402985  0.419000    0.00000000 178 t-inv F
  0.419000  0.405473  0.419000    0.00000000 179 t-inv F
  0.419000  0.407960  0.419000    0.00000000 180 t-inv F
  0.419000  0.410448  0.419000    0.00000000 181 t-inv F
  0.419000  0.412935  0.419000    0.00000000 182 t-inv F
  0.419000  0.415423  0.419000    0.00000000 183 t-inv F
  0.419000  0.417910  0.419000    0.00000000 184 t-inv F
  0.419000  0.420398  0.419000    0.00000000 185 t-inv F
  0.419000  0.422886  0.419000    0.00000000 186 t-inv F
  0.419000  0.425373  0.419000    0.00000000 187 t-inv F
  0.419000  0.427861  0.419000    0.00000000 188 t-inv F
  0.419000  0.430348  0.419000    0.00000000 189 t-inv F
  0.419000  0.432836  0.419000    0.00000000 190 t-inv F
  0.419000  0.435323  0.419000    0.00000000 191 t-inv F
  0.419000  0.437811  0.419000    0.00000000 192 t-inv F
  0.419000  0.440298  0.419000    0.00000000 193 t-inv F
  0.419000  0.442786  0.419000    0.00000000 194 t-inv F
  0.419000  0.445274  0.419000    0.00000000 195 t-inv F
  0.419000  0.447761  0.419000    0.00000000 196 t-inv F
  0.419000  0.450249  0.419000    0.00000000 197 t-inv F
  0.419000  0.452736  0.419000    0.00000000 198 t-inv F
  0.419000  0.455224  0.419000    0.00000000 199 t-inv F
  0.419000  0.457711  0.419000    0.00000000 200 t-inv F
  0.419000  0.460199  0.419000    0.00000000 201 t-inv F
  0.419000  0.462687  0.419000    0.00000000 202 t-inv F
  0.419000  0.465174  0.419000    0.00000000 203 t-inv F
  0.419000  0.467662  0.419000    0.00000000 204 t-inv F
  0.419000  0.470149  0.419000    0.00000000 205 t-inv F
  0.419000  0.472637  0.419000    0.00000000 206 t-inv F
  0.419000  0.475124  0.419000    0.00000000 207 t-inv F
  0.419000  0.477612  0.419000    0.00000000 208 t-inv F
  0.419000  0.480100  0.419000    0.00000000 209 t-inv F
  0.419000  0.482587  0.419000    0.00000000 210 t-inv F
  0.419000  0.485075  0.419000    0.00000000 211 t-inv F
  0.419000  0.487562  0.419000    0.00000000 212 t-inv F
  0.419000  0.490050  0.419000    0.00000000 213 t-inv F
  0.419000  0.492537  0.419000    0.00000000 214 t-inv F
  0.419000  0.495025  0.419000    0.00000000 215 t-inv F
  0.419000  0.497512  0.419000    0.00000000 216 t-inv F
  0.000000  0.166667  0.000000    0.00490196   2 t-inv F
  0.000000  0.000000  0.166667    0.00490196   2 t-inv F
 -0.166667 -0.166667 -0.166667    0.00490196   2 t-inv F
 -0.166667  0.000000  0.000000    0.00490196   2 t-inv F
  0.000000 -0.166667  0.000000    0.00490196   2 t-inv F
  0.000000  0.000000 -0.166667    0.00490196   2 t-inv F
  0.166667  0.166667  0.166667    0.00490196   2 t-inv F
  0.000000  0.333333  0.000000    0.00490196   3 t-inv F
  0.000000  0.000000  0.333333    0.00490196   3 t-inv F
 -0.333333 -0.333333 -0.333333    0.00490196   3 t-inv F
 -0.333333  0.000000  0.000000    0.00490196   3 t-inv F
  0.000000 -0.333333  0.000000    0.00490196   3 t-inv F
  0.000000  0.000000 -0.333333    0.00490196   3 t-inv F
  0.333333  0.333333  0.333333    0.00490196   3 t-inv F
  0.000000  0.500000  0.000000    0.00490196   4 t-inv F
  0.000000  0.000000  0.500000    0.00490196   4 t-inv F
 -0.500000 -0.500000 -0.500000    0.00490196   4 t-inv F
  0.000000  0.166667  0.166667    0.00490196   5 t-inv F
  0.166667  0.000000  0.166667    0.00490196   5 t-inv F
 -0.166667 -0.166667  0.000000    0.00490196   5 t-inv F
 -0.166667  0.000000 -0.166667    0.00490196   5 t-inv F
  0.000000 -0.166667 -0.166667    0.00490196   5 t-inv F
  0.000000  0.333333  0.166667    0.00490196   6 t-inv F
  0.166667  0.000000  0.333333    0.00490196   6 t-inv F
 -0.166667 -0.166667  0.166667    0.00490196   6 t-inv F
 -0.333333 -0.166667 -0.333333    0.00490196   6 t-inv F
  0.166667  0.333333  0.000000    0.00490196   6 t-inv F
  0.166667 -0.166667 -0.166667    0.00490196   6 t-inv F
 -0.333333 -0.333333 -0.166667    0.00490196   6 t-inv F
  0.000000  0.166667  0.333333    0.00490196   6 t-inv F
 -0.166667  0.166667 -0.166667    0.00490196   6 t-inv F
 -0.166667 -0.333333 -0.333333    0.00490196   6 t-inv F
  0.333333  0.000000  0.166667    0.00490196   6 t-inv F
 -0.333333 -0.166667  0.000000    0.00490196   6 t-inv F
  0.000000 -0.333333 -0.166667    0.00490196   6 t-inv F
 -0.166667  0.000000 -0.333333    0.00490196   6 t-inv F
  0.166667  0.166667 -0.166667    0.00490196   6 t-inv F
  0.333333  0.166667  0.333333    0.00490196   6 t-inv F
 -0.166667 -0.333333  0.000000    0.00490196   6 t-inv F
 -0.166667  0.166667  0.166667    0.00490196   6 t-inv F
  0.333333  0.333333  0.166667    0.00490196   6 t-inv F
  0.000000 -0.166667 -0.333333    0.00490196   6 t-inv F
  0.166667 -0.166667  0.166667    0.00490196   6 t-inv F
  0.166667  0.333333  0.333333    0.00490196   6 t-inv F
 -0.333333  0.000000 -0.166667    0.00490196   6 t-inv F
  0.000000  0.500000  0.166667    0.00490196   7 t-inv F
  0.166667  0.000000  0.500000    0.00490196   7 t-inv F
 -0.166667 -0.166667  0.333333    0.00490196   7 t-inv F
 -0.500000 -0.333333 -0.500000    0.00490196   7 t-inv F
  0.166667  0.500000  0.000000    0.00490196   7 t-inv F
  0.333333 -0.166667 -0.166667    0.00490196   7 t-inv F
 -0.500000 -0.500000 -0.333333    0.00490196   7 t-inv F
  0.000000  0.166667  0.500000    0.00490196   7 t-inv F
 -0.166667  0.333333 -0.166667    0.00490196   7 t-inv F
 -0.333333 -0.500000 -0.500000    0.00490196   7 t-inv F
  0.500000  0.000000  0.166667    0.00490196   7 t-inv F
 -0.500000 -0.166667  0.000000    0.00490196   7 t-inv F
  0.000000 -0.500000 -0.166667    0.00490196   7 t-inv F
 -0.166667  0.000000 -0.500000    0.00490196   7 t-inv F
  0.166667  0.166667 -0.333333    0.00490196   7 t-inv F
  0.500000  0.333333  0.500000    0.00490196   7 t-inv F
 -0.166667 -0.500000  0.000000    0.00490196   7 t-inv F
 -0.333333  0.166667  0.166667    0.00490196   7 t-inv F
  0.500000  0.500000  0.333333    0.00490196   7 t-inv F
  0.000000 -0.166667 -0.500000    0.00490196   7 t-inv F
  0.166667 -0.333333  0.166667    0.00490196   7 t-inv F
  0.333333  0.500000  0.500000    0.00490196   7 t-inv F
 -0.500000  0.000000 -0.166667    0.00490196   7 t-inv F
  0.000000 -0.333333  0.166667    0.00490196   8 t-inv F
  0.166667  0.000000 -0.333333    0.00490196   8 t-inv F
 -0.166667 -0.166667 -0.500000    0.00490196   8 t-inv F
  0.333333  0.500000  0.333333    0.00490196   8 t-inv F
  0.166667 -0.333333  0.000000    0.00490196   8 t-inv F
 -0.500000 -0.166667 -0.166667    0.00490196   8 t-inv F
  0.333333  0.333333  0.500000    0.00490196   8 t-inv F
  0.000000  0.166667 -0.333333    0.00490196   8 t-inv F
 -0.166667 -0.500000 -0.166667    0.00490196   8 t-inv F
  0.500000  0.333333  0.333333    0.00490196   8 t-inv F
 -0.333333  0.000000  0.166667    0.00490196   8 t-inv F
  0.333333 -0.166667  0.000000    0.00490196   8 t-inv F
  0.000000  0.333333 -0.166667    0.00490196   8 t-inv F
 -0.166667  0.000000  0.333333    0.00490196   8 t-inv F
  0.166667  0.166667  0.500000    0.00490196   8 t-inv F
 -0.333333 -0.500000 -0.333333    0.00490196   8 t-inv F
 -0.166667  0.333333  0.000000    0.00490196   8 t-inv F
  0.500000  0.166667  0.166667    0.00490196   8 t-inv F
 -0.333333 -0.333333 -0.500000    0.00490196   8 t-inv F
  0.000000 -0.166667  0.333333    0.00490196   8 t-inv F
  0.166667  0.500000  0.166667    0.00490196   8 t-inv F
 -0.500000 -0.333333 -0.333333    0.00490196   8 t-inv F
  0.333333  0.000000 -0.166667    0.00490196   8 t-inv F
  0.000000 -0.166667  0.166667    0.00490196   9 t-inv F
  0.166667  0.000000 -0.166667    0.00490196   9 t-inv F
 -0.166667 -0.166667 -0.333333    0.00490196   9 t-inv F
  0.166667  0.333333  0.166667    0.00490196   9 t-inv F
  0.166667 -0.166667  0.000000    0.00490196   9 t-inv F
 -0.333333 -0.166667 -0.166667    0.00490196   9 t-inv F
  0.166667  0.166667  0.333333    0.00490196   9 t-inv F
  0.000000  0.166667 -0.166667    0.00490196   9 t-inv F
 -0.166667 -0.333333 -0.166667    0.00490196   9 t-inv F
  0.333333  0.166667  0.166667    0.00490196   9 t-inv F
 -0.166667  0.000000  0.166667    0.00490196   9 t-inv F
  0.000000  0.333333  0.333333    0.00490196  10 t-inv F
  0.333333  0.000000  0.333333    0.00490196  10 t-inv F
 -0.333333 -0.333333  0.000000    0.00490196  10 t-inv F
 -0.333333  0.000000 -0.333333    0.00490196  10 t-inv F
  0.000000 -0.333333 -0.333333    0.00490196  10 t-inv F
  0.000000  0.500000  0.333333    0.00490196  11 t-inv F
  0.333333  0.000000  0.500000    0.00490196  11 t-inv F
 -0.333333 -0.333333  0.166667    0.00490196  11 t-inv F
 -0.500000 -0.166667 -0.500000    0.00490196  11 t-inv F
  0.333333  0.500000  0.000000    0.00490196  11 t-inv F
  0.166667 -0.333333 -0.333333    0.00490196  11 t-inv F
 -0.500000 -0.500000 -0.166667    0.00490196  11 t-inv F
  0.000000  0.333333  0.500000    0.00490196  11 t-inv F
 -0.333333  0.166667 -0.333333    0.00490196  11 t-inv F
 -0.166667 -0.500000 -0.500000    0.00490196  11 t-inv F
  0.500000  0.000000  0.333333    0.00490196  11 t-inv F
 -0.500000 -0.333333  0.000000    0.00490196  11 t-inv F
  0.000000 -0.500000 -0.333333    0.00490196  11 t-inv F
 -0.333333  0.000000 -0.500000    0.00490196  11 t-inv F
  0.333333  0.333333 -0.166667    0.00490196  11 t-inv F
  0.500000  0.166667  0.500000    0.00490196  11 t-inv F
 -0.333333 -0.500000  0.000000    0.00490196  11 t-inv F
 -0.166667  0.333333  0.333333    0.00490196  11 t-inv F
  0.500000  0.500000  0.166667    0.00490196  11 t-inv F
  0.000000 -0.333333 -0.500000    0.00490196  11 t-inv F
  0.333333 -0.166667  0.333333    0.00490196  11 t-inv F
  0.166667  0.500000  0.500000    0.00490196  11 t-inv F
 -0.500000  0.000000 -0.333333    0.00490196  11 t-inv F
  0.000000 -0.333333  0.333333    0.00490196  12 t-inv F
  0.333333  0.000000 -0.333333    0.00490196  12 t-inv F
 -0.333333 -0.333333 -0.666667    0.00490196  12 t-inv F
  0.333333  0.666667  0.333333    0.00490196  12 t-inv F
  0.333333 -0.333333  0.000000    0.00490196  12 t-inv F
 -0.666667 -0.333333 -0.333333    0.00490196  12 t-inv F
  0.333333  0.333333  0.666667    0.00490196  12 t-inv F
  0.000000  0.333333 -0.333333    0.00490196  12 t-inv F
 -0.333333 -0.666667 -0.333333    0.00490196  12 t-inv F
  0.666667  0.333333  0.333333    0.00490196  12 t-inv F
 -0.333333  0.000000  0.333333    0.00490196  12 t-inv F
  0.000000  0.500000  0.500000    0.00490196  13 t-inv F
  0.500000  0.000000  0.500000    0.00490196  13 t-inv F
  0.166667  0.500000  0.333333    0.00490196  14 t-inv F
  0.333333  0.166667  0.500000    0.00490196  14 t-inv F
 -0.333333 -0.166667  0.166667    0.00490196  14 t-inv F
 -0.500000 -0.166667 -0.333333    0.00490196  14 t-inv F
 -0.166667  0.333333  0.166667    0.00490196  14 t-inv F
  0.166667  0.333333 -0.166667    0.00490196  14 t-inv F
  0.166667 -0.166667 -0.333333    0.00490196  14 t-inv F
 -0.333333 -0.166667 -0.500000    0.00490196  14 t-inv F
 -0.333333 -0.500000 -0.166667    0.00490196  14 t-inv F
  0.166667 -0.166667  0.333333    0.00490196  14 t-inv F
  0.166667 -0.333333 -0.166667    0.00490196  14 t-inv F
 -0.166667  0.166667  0.333333    0.00490196  14 t-inv F
 -0.333333  0.166667 -0.166667    0.00490196  14 t-inv F
 -0.500000 -0.333333 -0.166667    0.00490196  14 t-inv F
 -0.166667 -0.333333 -0.500000    0.00490196  14 t-inv F
  0.333333  0.166667 -0.166667    0.00490196  14 t-inv F
 -0.166667  0.166667 -0.333333    0.00490196  14 t-inv F
  0.333333 -0.166667  0.166667    0.00490196  14 t-inv F
 -0.166667 -0.333333  0.166667    0.00490196  14 t-inv F
 -0.166667 -0.500000 -0.333333    0.00490196  14 t-inv F
  0.500000  0.166667  0.333333    0.00490196  14 t-inv F
  0.333333  0.500000  0.166667    0.00490196  14 t-inv F
  0.166667  0.333333  0.500000    0.00490196  14 t-inv F
  0.166667 -0.333333  0.333333    0.00490196  15 t-inv F
  0.333333  0.166667 -0.333333    0.00490196  15 t-inv F
 -0.333333 -0.166667 -0.666667    0.00490196  15 t-inv F
  0.333333  0.666667  0.500000    0.00490196  15 t-inv F
 -0.166667 -0.500000  0.166667    0.00490196  15 t-inv F
  0.166667 -0.500000 -0.166667    0.00490196  15 t-inv F
 -0.666667 -0.166667 -0.333333    0.00490196  15 t-inv F
  0.500000  0.666667  0.333333    0.00490196  15 t-inv F
  0.500000  0.333333  0.666667    0.00490196  15 t-inv F
  0.166667 -0.166667 -0.500000    0.00490196  15 t-inv F
 -0.666667 -0.333333 -0.166667    0.00490196  15 t-inv F
 -0.166667  0.166667 -0.500000    0.00490196  15 t-inv F
 -0.333333 -0.666667 -0.166667    0.00490196  15 t-inv F
  0.333333  0.500000  0.666667    0.00490196  15 t-inv F
  0.666667  0.500000  0.333333    0.00490196  15 t-inv F
 -0.500000  0.166667 -0.166667    0.00490196  15 t-inv F
 -0.166667 -0.666667 -0.333333    0.00490196  15 t-inv F
 -0.500000 -0.166667  0.166667    0.00490196  15 t-inv F
 -0.166667 -0.333333 -0.666667    0.00490196  15 t-inv F
  0.666667  0.333333  0.500000    0.00490196  15 t-inv F
 -0.333333  0.166667  0.333333    0.00490196  15 t-inv F
  0.333333 -0.333333  0.166667    0.00490196  15 t-inv F
  0.166667  0.333333 -0.333333    0.00490196  15 t-inv F


--------------------------------------------------------------------------------------------------------




 Dimension of arrays:
   k-points           NKPTS =    216   k-points in BZ     NKDIM =    405   number of bands    NBANDS=      8
   number of dos      NEDOS =    301   number of ions     NIONS =      2
   non local maximal  LDIM  =      4   non local SUM 2l+1 LMDIM =      8
   total plane-waves  NPLWV =  21952
   max r-space proj   IRMAX =      1   max aug-charges    IRDMAX=  18525
   dimension x,y,z NGX =    28 NGY =   28 NGZ =   28
   dimension x,y,z NGXF=    56 NGYF=   56 NGZF=   56
   support grid    NGXF=    56 NGYF=   56 NGZF=   56
   ions per type =               2
 NGX,Y,Z   is equivalent  to a cutoff of  12.12, 12.12, 12.12 a.u.
 NGXF,Y,Z  is equivalent  to a cutoff of  24.24, 24.24, 24.24 a.u.


 I would recommend the setting:
   dimension x,y,z NGX =    28 NGY =   28 NGZ =   28
 SYSTEM =  Name                                    
 POSCAR =  Si (Madelung Handbook, 295.7K)          

 Startparameter for this run:
   NWRITE =      2    write-flag & timer
   PREC   = accura    normal or accurate (medium, high low for compatibility)
   ISTART =      0    job   : 0-new  1-cont  2-samecut
   ICHARG =      2    charge: 1-file 2-atom 10-const
   ISPIN  =      1    spin polarized calculation?
   LNONCOLLINEAR =      F non collinear calculations
   LSORBIT =      F    spin-orbit coupling
   INIWAV =      1    electr: 0-lowe 1-rand  2-diag
   LASPH  =      F    aspherical Exc in radial PAW
   METAGGA=      F    non-selfconsistent MetaGGA calc.

 Electronic Relaxation 1
   ENCUT  =  500.0 eV  36.75 Ry    6.06 a.u.   7.00  7.00  7.00*2*pi/ulx,y,z
   ENINI  =  500.0     initial cutoff
   ENAUG  =  322.1 eV  augmentation charge cutoff
   NELM   =     60;   NELMIN=  2; NELMDL=  0     # of ELM steps 
   EDIFF  = 0.1E-05   stopping-criterion for ELM
   LREAL  =      F    real-space projection
   NLSPLINE    = F    spline interpolate recip. space projectors
   LCOMPAT=      F    compatible to vasp.4.4
   GGA_COMPAT  = T    GGA compatible to vasp.4.4-vasp.4.6
   LMAXPAW     = -100 max onsite density
   LMAXMIX     =    2 max onsite mixed and CHGCAR
   VOSKOWN=      0    Vosko Wilk Nusair interpolation
   ROPT   =    0.00000
 Ionic relaxation
   EDIFFG = -.5E-02   stopping-criterion for IOM
   NSW    =      1    number of steps for IOM
   NBLOCK =      1;   KBLOCK =      1    inner block; outer block 
   IBRION =      2    ionic relax: 0-MD 1-quasi-New 2-CG
   NFREE  =      1    steps in history (QN), initial steepest desc. (CG)
   ISIF   =      3    stress and relaxation
   IWAVPR =     11    prediction:  0-non 1-charg 2-wave 3-comb
   ISYM   =      2    0-nonsym 1-usesym 2-fastsym
   LCORR  =      T    Harris-Foulkes like correction to forces

   POTIM  = 0.5000    time-step for ionic-motion
   TEIN   =    0.0    initial temperature
   TEBEG  =    0.0;   TEEND  =   0.0 temperature during run
   SMASS  =  -3.00    Nose mass-parameter (am)
   estimated Nose-frequenzy (Omega)   =  0.10E-29 period in steps =****** mass=  -0.337E-27a.u.
   SCALEE = 1.0000    scale energy and forces
   NPACO  =    256;   APACO  = 16.0  distance and # of slots for P.C.
   PSTRESS=    0.0 pullay stress

  Mass of Ions in am
   POMASS =  28.09
  Ionic Valenz
   ZVAL   =   4.00
  Atomic Wigner-Seitz radii
   RWIGS  =  -1.00
  virtual crystal weights 
   VCA    =   1.00
   NELECT =       8.0000    total number of electrons
   NUPDOWN=      -1.0000    fix difference up-down

 DOS related values:
   EMIN   =  10.00;   EMAX   =-10.00  energy-range for DOS
   EFERMI =   0.00
   ISMEAR =     0;   SIGMA  =   0.01  broadening in eV -4-tet -1-fermi 0-gaus

 Electronic relaxation 2 (details)
   IALGO  =     58    algorithm
   LDIAG  =      T    sub-space diagonalisation (order eigenvalues)
   LSUBROT=      F    optimize rotation matrix (better conditioning)
   TURBO    =      0    0=normal 1=particle mesh
   IRESTART =      0    0=no restart 2=restart with 2 vectors
   NREBOOT  =      0    no. of reboots
   NMIN     =      0    reboot dimension
   EREF     =   0.00    reference energy to select bands
   IMIX   =      4    mixing-type and parameters
     AMIX     =   0.40;   BMIX     =  1.00
     AMIX_MAG =   1.60;   BMIX_MAG =  1.00
     AMIN     =   0.01
     WC   =   100.;   INIMIX=   1;  MIXPRE=   1;  MAXMIX= -45

 Intra band minimization:
   WEIMIN = 0.0010     energy-eigenvalue tresh-hold
   EBREAK =  0.31E-07  absolut break condition
   DEPER  =   0.30     relativ break condition  

   TIME   =   0.40     timestep for ELM

  volume/ion in A,a.u.               =      20.02       135.13
  Fermi-wavevector in a.u.,A,eV,Ry     =   0.956999  1.808467 12.460868  0.915848
  Thomas-Fermi vector in A             =   2.085978
 
 Write flags
   LWAVE  =      T    write WAVECAR
   LCHARG =      T    write CHGCAR
   LVTOT  =      F    write LOCPOT, total local potential
   LVHAR  =      F    write LOCPOT, Hartree potential only
   LELF   =      F    write electronic localiz. function (ELF)
   LORBIT =     10    0 simple, 1 ext, 2 COOP (PROOUT)


 Dipole corrections
   LMONO  =      F    monopole corrections only (constant potential shift)
   LDIPOL =      F    correct potential (dipole corrections)
   IDIPOL =      0    1-x, 2-y, 3-z, 4-all directions 
   EPSILON=  1.0000000 bulk dielectric constant

 Core level calculations are selected ICORELEVEL =  1
 Exchange correlation treatment:
   GGA     =    PE    GGA type
   LEXCH   =     8    internal setting for exchange type
   VOSKOWN=      0    Vosko Wilk Nusair interpolation
   EXXOEP  =     0    0=HF, 1=EXX-LHF (local Hartree Fock) 2=EXX OEP
   LHFCALC =     T    Hartree Fock is set to
   LSYMGRAD=     F    symmetrize gradient (conserves proper symmetry)
   PRECFOCK=fast      Normal, Fast or Accurate (Low or Medium for compatibility)
   LRHFCALC=     F    long range Hartree Fock
   LRSCOR  =     F    long range correlation only (use DFT for short range part)
   LTHOMAS =     F    Thomas Fermi screening in HF
   LMODELHF=     F    short range full HF, long range fraction AEXX
   ENCUT4O =  -1.0   cutoff for four orbital integrals eV
   LMAXFOCK=     4    L truncation for augmentation on plane wave grid
   LMAXFOCKAE=  -1    L truncation for all-electron charge restoration on plane wave grid
   NMAXFOCKAE=   1    number of basis functions for all-electron charge restoration
   LFOCKAEDFT=     F  apply the AE augmentation even for DFT
   NKREDX  =     1    reduce k-point grid by
   NKREDY  =     1    reduce k-point grid by
   NKREDZ  =     1    reduce k-point grid by
   SHIFTRED=     F    shift reduced grid of Gamma
   HFKIDENT=     F    idential grid for each k-point
   ODDONLY =     F    use only odd q-grid points
   EVENONLY=     F    use only even q-grid points
   HFALPHA =   -1.0000 decay constant for conv. correction
   MCALPHA =    0.0000 extent of test-charge in conv. correction in multipole expansion
   AEXX    =    0.2500 exact exchange contribution
   HFSCREEN=    0.2070 screening length (either q_TF or 0.3 A-1)
   HFSCREENC=   0.2070 screening length for correlation (either q_TF or 0.3 A-1)
   HFRCUT  =    0.0000 spherical cutoff for potential kernel
   ALDAX   =    0.7500 LDA exchange part
   AGGAX   =    0.7500 GGA exchange part
   ALDAC   =    1.0000 LDA correlation
   AGGAC   =    1.0000 GGA correlation
   NBANDSGWLOW=     1    first orbital included in HF term
   ENCUTFOCK=  -1.0 apply spherical cutoff to Coloumb kernel
 Linear response parameters
   LEPSILON=     F    determine dielectric tensor
   LRPA    =     F    only Hartree local field effects (RPA)
   LNABLA  =     F    use nabla operator in PAW spheres
   LVEL    =     F    velocity operator in full k-point grid
   LINTERFAST=   F  fast interpolation
   KINTER  =     0    interpolate to denser k-point grid
   CSHIFT  =0.1000    complex shift for real part using Kramers Kronig
   OMEGAMAX=  -1.0    maximum frequency
   DEG_THRESHOLD= 0.2000000E-02 threshold for treating states as degnerate
   RTIME   =    0.100 relaxation time in fs

 Orbital magnetization related:
   ORBITALMAG=     F  switch on orbital magnetization
   LCHIMAG   =     F  perturbation theory with respect to B field
   DQ        =  0.001000  dq finite difference perturbation B field



--------------------------------------------------------------------------------------------------------


 conjugate gradient relaxation of ions
 charge density and potential will be updated during run
 non-spin polarized calculation
 Conjugate gradient for all bands (Freysoldt, et al. PRB 79, 241103 (2009))
 preconditioned conjugated gradient                                        
 perform sub-space diagonalisation
    before iterative eigenvector-optimisation
 modified Broyden-mixing scheme, WC =      100.0
 initial mixing is a Kerker type mixing with AMIX =  0.4000 and BMIX =      1.0000
 Hartree-type preconditioning will be used
 using additional bands            4
 reciprocal scheme for non local part
 use partial core corrections
 no Harris-corrections to forces 
 use gradient corrections 
 use of overlap-Matrix (Vanderbilt PP)
 Gauss-broadening in eV      SIGMA  =   0.01


--------------------------------------------------------------------------------------------------------


  energy-cutoff  :      500.00
  volume of cell :       40.05
      direct lattice vectors                 reciprocal lattice vectors
     2.715500000  2.715500000  0.000000000     0.184128153  0.184128153  0.184128153
     2.715500000  0.000000000 -2.715500000     0.184128153 -0.184128153 -0.184128153
     0.000000000  2.715500000 -2.715500000    -0.184128153  0.184128153 -0.184128153

  length of vectors
     3.840296929  3.840296929  3.840296929     0.318919316  0.318919316  0.318919316


 
 k-points in units of 2pi/SCALE and weight: Automatically generated mesh: SCF=15, 0.
   0.00000000  0.00000000  0.00000000       0.005
   0.16666667  0.16666667  0.16666667       0.039
   0.33333333  0.33333333  0.33333333       0.039
   0.50000000  0.50000000  0.50000000       0.020
   0.33333333  0.00000000  0.00000000       0.029
   0.50000000  0.16666667  0.16666667       0.118
   0.66666667  0.33333333  0.33333333       0.118
  -0.16666667 -0.50000000 -0.50000000       0.118
   0.00000000 -0.33333333 -0.33333333       0.059
   0.66666667  0.00000000  0.00000000       0.029
   0.83333333  0.16666667  0.16666667       0.118
   0.00000000 -0.66666667 -0.66666667       0.059
   1.00000000  0.00000000  0.00000000       0.015
   0.66666667  0.33333333  0.00000000       0.118
  -0.16666667 -0.50000000 -0.83333333       0.118
   0.00000000  0.83800000  0.00000000       0.000
   0.00248756  0.83551244 -0.00248756       0.000
   0.00497512  0.83302488 -0.00497512       0.000
   0.00746269  0.83053731 -0.00746269       0.000
   0.00995025  0.82804975 -0.00995025       0.000
   0.01243781  0.82556219 -0.01243781       0.000
   0.01492537  0.82307463 -0.01492537       0.000
   0.01741293  0.82058707 -0.01741293       0.000
   0.01990050  0.81809950 -0.01990050       0.000
   0.02238806  0.81561194 -0.02238806       0.000
   0.02487562  0.81312438 -0.02487562       0.000
   0.02736318  0.81063682 -0.02736318       0.000
   0.02985075  0.80814925 -0.02985075       0.000
   0.03233831  0.80566169 -0.03233831       0.000
   0.03482587  0.80317413 -0.03482587       0.000
   0.03731343  0.80068657 -0.03731343       0.000
   0.03980099  0.79819901 -0.03980099       0.000
   0.04228856  0.79571144 -0.04228856       0.000
   0.04477612  0.79322388 -0.04477612       0.000
   0.04726368  0.79073632 -0.04726368       0.000
   0.04975124  0.78824876 -0.04975124       0.000
   0.05223880  0.78576120 -0.05223880       0.000
   0.05472637  0.78327363 -0.05472637       0.000
   0.05721393  0.78078607 -0.05721393       0.000
   0.05970149  0.77829851 -0.05970149       0.000
   0.06218905  0.77581095 -0.06218905       0.000
   0.06467661  0.77332339 -0.06467661       0.000
   0.06716418  0.77083582 -0.06716418       0.000
   0.06965174  0.76834826 -0.06965174       0.000
   0.07213930  0.76586070 -0.07213930       0.000
   0.07462686  0.76337314 -0.07462686       0.000
   0.07711443  0.76088557 -0.07711443       0.000
   0.07960199  0.75839801 -0.07960199       0.000
   0.08208955  0.75591045 -0.08208955       0.000
   0.08457711  0.75342289 -0.08457711       0.000
   0.08706468  0.75093532 -0.08706468       0.000
   0.08955224  0.74844776 -0.08955224       0.000
   0.09203980  0.74596020 -0.09203980       0.000
   0.09452736  0.74347264 -0.09452736       0.000
   0.09701493  0.74098507 -0.09701493       0.000
   0.09950249  0.73849751 -0.09950249       0.000
   0.10199004  0.73600996 -0.10199004       0.000
   0.10447761  0.73352239 -0.10447761       0.000
   0.10696517  0.73103483 -0.10696517       0.000
   0.10945273  0.72854727 -0.10945273       0.000
   0.11194029  0.72605971 -0.11194029       0.000
   0.11442786  0.72357214 -0.11442786       0.000
   0.11691542  0.72108458 -0.11691542       0.000
   0.11940298  0.71859702 -0.11940298       0.000
   0.12189054  0.71610946 -0.12189054       0.000
   0.12437811  0.71362189 -0.12437811       0.000
   0.12686567  0.71113433 -0.12686567       0.000
   0.12935323  0.70864677 -0.12935323       0.000
   0.13184080  0.70615920 -0.13184080       0.000
   0.13432835  0.70367165 -0.13432835       0.000
   0.13681592  0.70118408 -0.13681592       0.000
   0.13930348  0.69869652 -0.13930348       0.000
   0.14179105  0.69620895 -0.14179105       0.000
   0.14427860  0.69372140 -0.14427860       0.000
   0.14676617  0.69123383 -0.14676617       0.000
   0.14925373  0.68874627 -0.14925373       0.000
   0.15174130  0.68625870 -0.15174130       0.000
   0.15422885  0.68377115 -0.15422885       0.000
   0.15671642  0.68128358 -0.15671642       0.000
   0.15920398  0.67879602 -0.15920398       0.000
   0.16169153  0.67630847 -0.16169153       0.000
   0.16417910  0.67382090 -0.16417910       0.000
   0.16666666  0.67133334 -0.16666666       0.000
   0.16915423  0.66884577 -0.16915423       0.000
   0.17164178  0.66635822 -0.17164178       0.000
   0.17412935  0.66387065 -0.17412935       0.000
   0.17661691  0.66138309 -0.17661691       0.000
   0.17910448  0.65889552 -0.17910448       0.000
   0.18159203  0.65640797 -0.18159203       0.000
   0.18407960  0.65392040 -0.18407960       0.000
   0.18656716  0.65143284 -0.18656716       0.000
   0.18905473  0.64894527 -0.18905473       0.000
   0.19154228  0.64645772 -0.19154228       0.000
   0.19402985  0.64397015 -0.19402985       0.000
   0.19651741  0.64148259 -0.19651741       0.000
   0.19900498  0.63899502 -0.19900498       0.000
   0.20149253  0.63650747 -0.20149253       0.000
   0.20398009  0.63401991 -0.20398009       0.000
   0.20646766  0.63153234 -0.20646766       0.000
   0.20895521  0.62904479 -0.20895521       0.000
   0.21144278  0.62655722 -0.21144278       0.000
   0.21393034  0.62406966 -0.21393034       0.000
   0.21641791  0.62158209 -0.21641791       0.000
   0.21890546  0.61909454 -0.21890546       0.000
   0.22139303  0.61660697 -0.22139303       0.000
   0.22388059  0.61411941 -0.22388059       0.000
   0.22636816  0.61163184 -0.22636816       0.000
   0.22885571  0.60914429 -0.22885571       0.000
   0.23134328  0.60665672 -0.23134328       0.000
   0.23383084  0.60416916 -0.23383084       0.000
   0.23631841  0.60168159 -0.23631841       0.000
   0.23880596  0.59919404 -0.23880596       0.000
   0.24129352  0.59670648 -0.24129352       0.000
   0.24378109  0.59421891 -0.24378109       0.000
   0.24626864  0.59173136 -0.24626864       0.000
   0.24875621  0.58924379 -0.24875621       0.000
   0.25124377  0.58675623 -0.25124377       0.000
   0.25373134  0.58426866 -0.25373134       0.000
   0.25621891  0.58178109 -0.25621891       0.000
   0.25870645  0.57929355 -0.25870645       0.000
   0.26119402  0.57680598 -0.26119402       0.000
   0.26368159  0.57431841 -0.26368159       0.000
   0.26616916  0.57183084 -0.26616916       0.000
   0.26865670  0.56934330 -0.26865670       0.000
   0.27114427  0.56685573 -0.27114427       0.000
   0.27363184  0.56436816 -0.27363184       0.000
   0.27611941  0.56188059 -0.27611941       0.000
   0.27860695  0.55939305 -0.27860695       0.000
   0.28109452  0.55690548 -0.28109452       0.000
   0.28358209  0.55441791 -0.28358209       0.000
   0.28606963  0.55193037 -0.28606963       0.000
   0.28855720  0.54944280 -0.28855720       0.000
   0.29104477  0.54695523 -0.29104477       0.000
   0.29353234  0.54446766 -0.29353234       0.000
   0.29601988  0.54198012 -0.29601988       0.000
   0.29850745  0.53949255 -0.29850745       0.000
   0.30099502  0.53700498 -0.30099502       0.000
   0.30348259  0.53451741 -0.30348259       0.000
   0.30597013  0.53202987 -0.30597013       0.000
   0.30845770  0.52954230 -0.30845770       0.000
   0.31094527  0.52705473 -0.31094527       0.000
   0.31343284  0.52456716 -0.31343284       0.000
   0.31592038  0.52207962 -0.31592038       0.000
   0.31840795  0.51959205 -0.31840795       0.000
   0.32089552  0.51710448 -0.32089552       0.000
   0.32338306  0.51461694 -0.32338306       0.000
   0.32587063  0.51212937 -0.32587063       0.000
   0.32835820  0.50964180 -0.32835820       0.000
   0.33084577  0.50715423 -0.33084577       0.000
   0.33333331  0.50466669 -0.33333331       0.000
   0.33582088  0.50217912 -0.33582088       0.000
   0.33830845  0.49969155 -0.33830845       0.000
   0.34079602  0.49720398 -0.34079602       0.000
   0.34328356  0.49471644 -0.34328356       0.000
   0.34577113  0.49222887 -0.34577113       0.000
   0.34825870  0.48974130 -0.34825870       0.000
   0.35074627  0.48725373 -0.35074627       0.000
   0.35323381  0.48476619 -0.35323381       0.000
   0.35572138  0.48227862 -0.35572138       0.000
   0.35820895  0.47979105 -0.35820895       0.000
   0.36069649  0.47730351 -0.36069649       0.000
   0.36318406  0.47481594 -0.36318406       0.000
   0.36567163  0.47232837 -0.36567163       0.000
   0.36815920  0.46984080 -0.36815920       0.000
   0.37064674  0.46735326 -0.37064674       0.000
   0.37313432  0.46486568 -0.37313432       0.000
   0.37562189  0.46237811 -0.37562189       0.000
   0.37810946  0.45989054 -0.37810946       0.000
   0.38059700  0.45740300 -0.38059700       0.000
   0.38308457  0.45491543 -0.38308457       0.000
   0.38557214  0.45242786 -0.38557214       0.000
   0.38805971  0.44994029 -0.38805971       0.000
   0.39054725  0.44745275 -0.39054725       0.000
   0.39303482  0.44496518 -0.39303482       0.000
   0.39552239  0.44247761 -0.39552239       0.000
   0.39800996  0.43999004 -0.39800996       0.000
   0.40049750  0.43750250 -0.40049750       0.000
   0.40298507  0.43501493 -0.40298507       0.000
   0.40547264  0.43252736 -0.40547264       0.000
   0.40796018  0.43003982 -0.40796018       0.000
   0.41044775  0.42755225 -0.41044775       0.000
   0.41293532  0.42506468 -0.41293532       0.000
   0.41542289  0.42257711 -0.41542289       0.000
   0.41791043  0.42008957 -0.41791043       0.000
   0.42039800  0.41760200 -0.42039800       0.000
   0.42288557  0.41511443 -0.42288557       0.000
   0.42537314  0.41262686 -0.42537314       0.000
   0.42786068  0.41013932 -0.42786068       0.000
   0.43034825  0.40765175 -0.43034825       0.000
   0.43283582  0.40516418 -0.43283582       0.000
   0.43532339  0.40267661 -0.43532339       0.000
   0.43781093  0.40018907 -0.43781093       0.000
   0.44029850  0.39770150 -0.44029850       0.000
   0.44278607  0.39521393 -0.44278607       0.000
   0.44527361  0.39272639 -0.44527361       0.000
   0.44776118  0.39023882 -0.44776118       0.000
   0.45024875  0.38775125 -0.45024875       0.000
   0.45273632  0.38526368 -0.45273632       0.000
   0.45522386  0.38277614 -0.45522386       0.000
   0.45771143  0.38028857 -0.45771143       0.000
   0.46019900  0.37780100 -0.46019900       0.000
   0.46268657  0.37531343 -0.46268657       0.000
   0.46517411  0.37282589 -0.46517411       0.000
   0.46766168  0.37033832 -0.46766168       0.000
   0.47014925  0.36785075 -0.47014925       0.000
   0.47263682  0.36536318 -0.47263682       0.000
   0.47512436  0.36287564 -0.47512436       0.000
   0.47761193  0.36038807 -0.47761193       0.000
   0.48009950  0.35790050 -0.48009950       0.000
   0.48258704  0.35541296 -0.48258704       0.000
   0.48507461  0.35292539 -0.48507461       0.000
   0.48756218  0.35043782 -0.48756218       0.000
   0.49004975  0.34795025 -0.49004975       0.000
   0.49253729  0.34546271 -0.49253729       0.000
   0.49502486  0.34297514 -0.49502486       0.000
   0.49751243  0.34048757 -0.49751243       0.000
 
 k-points in reciprocal lattice and weights: Automatically generated mesh: SCF=15, 0.
   0.00000000  0.00000000  0.00000000       0.005
   0.16666667  0.00000000  0.00000000       0.039
   0.33333333  0.00000000  0.00000000       0.039
   0.50000000  0.00000000  0.00000000       0.020
   0.16666667  0.16666667  0.00000000       0.029
   0.33333333  0.16666667  0.00000000       0.118
   0.50000000  0.16666667  0.00000000       0.118
  -0.33333333  0.16666667  0.00000000       0.118
  -0.16666667  0.16666667  0.00000000       0.059
   0.33333333  0.33333333  0.00000000       0.029
   0.50000000  0.33333333  0.00000000       0.118
  -0.33333333  0.33333333  0.00000000       0.059
   0.50000000  0.50000000  0.00000000       0.015
   0.50000000  0.33333333  0.16666667       0.118
  -0.33333333  0.33333333  0.16666667       0.118
   0.41900000  0.00000000  0.41900000       0.000
   0.41900000  0.00248756  0.41900000       0.000
   0.41900000  0.00497512  0.41900000       0.000
   0.41900000  0.00746269  0.41900000       0.000
   0.41900000  0.00995025  0.41900000       0.000
   0.41900000  0.01243781  0.41900000       0.000
   0.41900000  0.01492537  0.41900000       0.000
   0.41900000  0.01741293  0.41900000       0.000
   0.41900000  0.01990050  0.41900000       0.000
   0.41900000  0.02238806  0.41900000       0.000
   0.41900000  0.02487562  0.41900000       0.000
   0.41900000  0.02736318  0.41900000       0.000
   0.41900000  0.02985075  0.41900000       0.000
   0.41900000  0.03233831  0.41900000       0.000
   0.41900000  0.03482587  0.41900000       0.000
   0.41900000  0.03731343  0.41900000       0.000
   0.41900000  0.03980099  0.41900000       0.000
   0.41900000  0.04228856  0.41900000       0.000
   0.41900000  0.04477612  0.41900000       0.000
   0.41900000  0.04726368  0.41900000       0.000
   0.41900000  0.04975124  0.41900000       0.000
   0.41900000  0.05223880  0.41900000       0.000
   0.41900000  0.05472637  0.41900000       0.000
   0.41900000  0.05721393  0.41900000       0.000
   0.41900000  0.05970149  0.41900000       0.000
   0.41900000  0.06218905  0.41900000       0.000
   0.41900000  0.06467661  0.41900000       0.000
   0.41900000  0.06716418  0.41900000       0.000
   0.41900000  0.06965174  0.41900000       0.000
   0.41900000  0.07213930  0.41900000       0.000
   0.41900000  0.07462686  0.41900000       0.000
   0.41900000  0.07711443  0.41900000       0.000
   0.41900000  0.07960199  0.41900000       0.000
   0.41900000  0.08208955  0.41900000       0.000
   0.41900000  0.08457711  0.41900000       0.000
   0.41900000  0.08706468  0.41900000       0.000
   0.41900000  0.08955224  0.41900000       0.000
   0.41900000  0.09203980  0.41900000       0.000
   0.41900000  0.09452736  0.41900000       0.000
   0.41900000  0.09701493  0.41900000       0.000
   0.41900000  0.09950249  0.41900000       0.000
   0.41900000  0.10199004  0.41900000       0.000
   0.41900000  0.10447761  0.41900000       0.000
   0.41900000  0.10696517  0.41900000       0.000
   0.41900000  0.10945273  0.41900000       0.000
   0.41900000  0.11194029  0.41900000       0.000
   0.41900000  0.11442786  0.41900000       0.000
   0.41900000  0.11691542  0.41900000       0.000
   0.41900000  0.11940298  0.41900000       0.000
   0.41900000  0.12189054  0.41900000       0.000
   0.41900000  0.12437811  0.41900000       0.000
   0.41900000  0.12686567  0.41900000       0.000
   0.41900000  0.12935323  0.41900000       0.000
   0.41900000  0.13184080  0.41900000       0.000
   0.41900000  0.13432835  0.41900000       0.000
   0.41900000  0.13681592  0.41900000       0.000
   0.41900000  0.13930348  0.41900000       0.000
   0.41900000  0.14179105  0.41900000       0.000
   0.41900000  0.14427860  0.41900000       0.000
   0.41900000  0.14676617  0.41900000       0.000
   0.41900000  0.14925373  0.41900000       0.000
   0.41900000  0.15174130  0.41900000       0.000
   0.41900000  0.15422885  0.41900000       0.000
   0.41900000  0.15671642  0.41900000       0.000
   0.41900000  0.15920398  0.41900000       0.000
   0.41900000  0.16169153  0.41900000       0.000
   0.41900000  0.16417910  0.41900000       0.000
   0.41900000  0.16666666  0.41900000       0.000
   0.41900000  0.16915423  0.41900000       0.000
   0.41900000  0.17164178  0.41900000       0.000
   0.41900000  0.17412935  0.41900000       0.000
   0.41900000  0.17661691  0.41900000       0.000
   0.41900000  0.17910448  0.41900000       0.000
   0.41900000  0.18159203  0.41900000       0.000
   0.41900000  0.18407960  0.41900000       0.000
   0.41900000  0.18656716  0.41900000       0.000
   0.41900000  0.18905473  0.41900000       0.000
   0.41900000  0.19154228  0.41900000       0.000
   0.41900000  0.19402985  0.41900000       0.000
   0.41900000  0.19651741  0.41900000       0.000
   0.41900000  0.19900498  0.41900000       0.000
   0.41900000  0.20149253  0.41900000       0.000
   0.41900000  0.20398009  0.41900000       0.000
   0.41900000  0.20646766  0.41900000       0.000
   0.41900000  0.20895521  0.41900000       0.000
   0.41900000  0.21144278  0.41900000       0.000
   0.41900000  0.21393034  0.41900000       0.000
   0.41900000  0.21641791  0.41900000       0.000
   0.41900000  0.21890546  0.41900000       0.000
   0.41900000  0.22139303  0.41900000       0.000
   0.41900000  0.22388059  0.41900000       0.000
   0.41900000  0.22636816  0.41900000       0.000
   0.41900000  0.22885571  0.41900000       0.000
   0.41900000  0.23134328  0.41900000       0.000
   0.41900000  0.23383084  0.41900000       0.000
   0.41900000  0.23631841  0.41900000       0.000
   0.41900000  0.23880596  0.41900000       0.000
   0.41900000  0.24129352  0.41900000       0.000
   0.41900000  0.24378109  0.41900000       0.000
   0.41900000  0.24626864  0.41900000       0.000
   0.41900000  0.24875621  0.41900000       0.000
   0.41900000  0.25124377  0.41900000       0.000
   0.41900000  0.25373134  0.41900000       0.000
   0.41900000  0.25621891  0.41900000       0.000
   0.41900000  0.25870645  0.41900000       0.000
   0.41900000  0.26119402  0.41900000       0.000
   0.41900000  0.26368159  0.41900000       0.000
   0.41900000  0.26616916  0.41900000       0.000
   0.41900000  0.26865670  0.41900000       0.000
   0.41900000  0.27114427  0.41900000       0.000
   0.41900000  0.27363184  0.41900000       0.000
   0.41900000  0.27611941  0.41900000       0.000
   0.41900000  0.27860695  0.41900000       0.000
   0.41900000  0.28109452  0.41900000       0.000
   0.41900000  0.28358209  0.41900000       0.000
   0.41900000  0.28606963  0.41900000       0.000
   0.41900000  0.28855720  0.41900000       0.000
   0.41900000  0.29104477  0.41900000       0.000
   0.41900000  0.29353234  0.41900000       0.000
   0.41900000  0.29601988  0.41900000       0.000
   0.41900000  0.29850745  0.41900000       0.000
   0.41900000  0.30099502  0.41900000       0.000
   0.41900000  0.30348259  0.41900000       0.000
   0.41900000  0.30597013  0.41900000       0.000
   0.41900000  0.30845770  0.41900000       0.000
   0.41900000  0.31094527  0.41900000       0.000
   0.41900000  0.31343284  0.41900000       0.000
   0.41900000  0.31592038  0.41900000       0.000
   0.41900000  0.31840795  0.41900000       0.000
   0.41900000  0.32089552  0.41900000       0.000
   0.41900000  0.32338306  0.41900000       0.000
   0.41900000  0.32587063  0.41900000       0.000
   0.41900000  0.32835820  0.41900000       0.000
   0.41900000  0.33084577  0.41900000       0.000
   0.41900000  0.33333331  0.41900000       0.000
   0.41900000  0.33582088  0.41900000       0.000
   0.41900000  0.33830845  0.41900000       0.000
   0.41900000  0.34079602  0.41900000       0.000
   0.41900000  0.34328356  0.41900000       0.000
   0.41900000  0.34577113  0.41900000       0.000
   0.41900000  0.34825870  0.41900000       0.000
   0.41900000  0.35074627  0.41900000       0.000
   0.41900000  0.35323381  0.41900000       0.000
   0.41900000  0.35572138  0.41900000       0.000
   0.41900000  0.35820895  0.41900000       0.000
   0.41900000  0.36069649  0.41900000       0.000
   0.41900000  0.36318406  0.41900000       0.000
   0.41900000  0.36567163  0.41900000       0.000
   0.41900000  0.36815920  0.41900000       0.000
   0.41900000  0.37064674  0.41900000       0.000
   0.41900000  0.37313432  0.41900000       0.000
   0.41900000  0.37562189  0.41900000       0.000
   0.41900000  0.37810946  0.41900000       0.000
   0.41900000  0.38059700  0.41900000       0.000
   0.41900000  0.38308457  0.41900000       0.000
   0.41900000  0.38557214  0.41900000       0.000
   0.41900000  0.38805971  0.41900000       0.000
   0.41900000  0.39054725  0.41900000       0.000
   0.41900000  0.39303482  0.41900000       0.000
   0.41900000  0.39552239  0.41900000       0.000
   0.41900000  0.39800996  0.41900000       0.000
   0.41900000  0.40049750  0.41900000       0.000
   0.41900000  0.40298507  0.41900000       0.000
   0.41900000  0.40547264  0.41900000       0.000
   0.41900000  0.40796018  0.41900000       0.000
   0.41900000  0.41044775  0.41900000       0.000
   0.41900000  0.41293532  0.41900000       0.000
   0.41900000  0.41542289  0.41900000       0.000
   0.41900000  0.41791043  0.41900000       0.000
   0.41900000  0.42039800  0.41900000       0.000
   0.41900000  0.42288557  0.41900000       0.000
   0.41900000  0.42537314  0.41900000       0.000
   0.41900000  0.42786068  0.41900000       0.000
   0.41900000  0.43034825  0.41900000       0.000
   0.41900000  0.43283582  0.41900000       0.000
   0.41900000  0.43532339  0.41900000       0.000
   0.41900000  0.43781093  0.41900000       0.000
   0.41900000  0.44029850  0.41900000       0.000
   0.41900000  0.44278607  0.41900000       0.000
   0.41900000  0.44527361  0.41900000       0.000
   0.41900000  0.44776118  0.41900000       0.000
   0.41900000  0.45024875  0.41900000       0.000
   0.41900000  0.45273632  0.41900000       0.000
   0.41900000  0.45522386  0.41900000       0.000
   0.41900000  0.45771143  0.41900000       0.000
   0.41900000  0.46019900  0.41900000       0.000
   0.41900000  0.46268657  0.41900000       0.000
   0.41900000  0.46517411  0.41900000       0.000
   0.41900000  0.46766168  0.41900000       0.000
   0.41900000  0.47014925  0.41900000       0.000
   0.41900000  0.47263682  0.41900000       0.000
   0.41900000  0.47512436  0.41900000       0.000
   0.41900000  0.47761193  0.41900000       0.000
   0.41900000  0.48009950  0.41900000       0.000
   0.41900000  0.48258704  0.41900000       0.000
   0.41900000  0.48507461  0.41900000       0.000
   0.41900000  0.48756218  0.41900000       0.000
   0.41900000  0.49004975  0.41900000       0.000
   0.41900000  0.49253729  0.41900000       0.000
   0.41900000  0.49502486  0.41900000       0.000
   0.41900000  0.49751243  0.41900000       0.000
 
 position of ions in fractional coordinates (direct lattice) 
   0.00000000  0.00000000  0.00000000
   0.25000000  0.25000000  0.25000000
 
 position of ions in cartesian coordinates  (Angst):
   0.00000000  0.00000000  0.00000000
   1.35775000  1.35775000 -1.35775000
 


--------------------------------------------------------------------------------------------------------


 k-point  1 :   0.0000 0.0000 0.0000  plane waves:     965
 k-point  2 :   0.1667 0.0000 0.0000  plane waves:     989
 k-point  3 :   0.3333 0.0000 0.0000  plane waves:    1008
 k-point  4 :   0.5000 0.0000 0.0000  plane waves:    1008
 k-point  5 :   0.1667 0.1667 0.0000  plane waves:     998
 k-point  6 :   0.3333 0.1667 0.0000  plane waves:    1011
 k-point  7 :   0.5000 0.1667 0.0000  plane waves:    1017
 k-point  8 :  -0.3333 0.1667 0.0000  plane waves:    1019
 k-point  9 :  -0.1667 0.1667 0.0000  plane waves:    1013
 k-point 10 :   0.3333 0.3333 0.0000  plane waves:    1018
 k-point 11 :   0.5000 0.3333 0.0000  plane waves:    1012
 k-point 12 :  -0.3333 0.3333 0.0000  plane waves:    1015
 k-point 13 :   0.5000 0.5000 0.0000  plane waves:    1034
 k-point 14 :   0.5000 0.3333 0.1667  plane waves:    1032
 k-point 15 :  -0.3333 0.3333 0.1667  plane waves:    1020
 k-point 16 :   0.4190 0.0000 0.4190  plane waves:    1010
 k-point 17 :   0.4190 0.0025 0.4190  plane waves:    1011
 k-point 18 :   0.4190 0.0050 0.4190  plane waves:    1015
 k-point 19 :   0.4190 0.0075 0.4190  plane waves:    1015
 k-point 20 :   0.4190 0.0100 0.4190  plane waves:    1015
 k-point 21 :   0.4190 0.0124 0.4190  plane waves:    1017
 k-point 22 :   0.4190 0.0149 0.4190  plane waves:    1017
 k-point 23 :   0.4190 0.0174 0.4190  plane waves:    1017
 k-point 24 :   0.4190 0.0199 0.4190  plane waves:    1017
 k-point 25 :   0.4190 0.0224 0.4190  plane waves:    1019
 k-point 26 :   0.4190 0.0249 0.4190  plane waves:    1019
 k-point 27 :   0.4190 0.0274 0.4190  plane waves:    1019
 k-point 28 :   0.4190 0.0299 0.4190  plane waves:    1019
 k-point 29 :   0.4190 0.0323 0.4190  plane waves:    1020
 k-point 30 :   0.4190 0.0348 0.4190  plane waves:    1020
 k-point 31 :   0.4190 0.0373 0.4190  plane waves:    1020
 k-point 32 :   0.4190 0.0398 0.4190  plane waves:    1022
 k-point 33 :   0.4190 0.0423 0.4190  plane waves:    1024
 k-point 34 :   0.4190 0.0448 0.4190  plane waves:    1025
 k-point 35 :   0.4190 0.0473 0.4190  plane waves:    1025
 k-point 36 :   0.4190 0.0498 0.4190  plane waves:    1024
 k-point 37 :   0.4190 0.0522 0.4190  plane waves:    1024
 k-point 38 :   0.4190 0.0547 0.4190  plane waves:    1024
 k-point 39 :   0.4190 0.0572 0.4190  plane waves:    1024
 k-point 40 :   0.4190 0.0597 0.4190  plane waves:    1024
 k-point 41 :   0.4190 0.0622 0.4190  plane waves:    1024
 k-point 42 :   0.4190 0.0647 0.4190  plane waves:    1022
 k-point 43 :   0.4190 0.0672 0.4190  plane waves:    1022
 k-point 44 :   0.4190 0.0697 0.4190  plane waves:    1022
 k-point 45 :   0.4190 0.0721 0.4190  plane waves:    1022
 k-point 46 :   0.4190 0.0746 0.4190  plane waves:    1022
 k-point 47 :   0.4190 0.0771 0.4190  plane waves:    1024
 k-point 48 :   0.4190 0.0796 0.4190  plane waves:    1024
 k-point 49 :   0.4190 0.0821 0.4190  plane waves:    1024
 k-point 50 :   0.4190 0.0846 0.4190  plane waves:    1024
 k-point 51 :   0.4190 0.0871 0.4190  plane waves:    1024
 k-point 52 :   0.4190 0.0896 0.4190  plane waves:    1024
 k-point 53 :   0.4190 0.0920 0.4190  plane waves:    1026
 k-point 54 :   0.4190 0.0945 0.4190  plane waves:    1026
 k-point 55 :   0.4190 0.0970 0.4190  plane waves:    1026
 k-point 56 :   0.4190 0.0995 0.4190  plane waves:    1026
 k-point 57 :   0.4190 0.1020 0.4190  plane waves:    1024
 k-point 58 :   0.4190 0.1045 0.4190  plane waves:    1022
 k-point 59 :   0.4190 0.1070 0.4190  plane waves:    1023
 k-point 60 :   0.4190 0.1095 0.4190  plane waves:    1023
 k-point 61 :   0.4190 0.1119 0.4190  plane waves:    1021
 k-point 62 :   0.4190 0.1144 0.4190  plane waves:    1023
 k-point 63 :   0.4190 0.1169 0.4190  plane waves:    1023
 k-point 64 :   0.4190 0.1194 0.4190  plane waves:    1021
 k-point 65 :   0.4190 0.1219 0.4190  plane waves:    1021
 k-point 66 :   0.4190 0.1244 0.4190  plane waves:    1021
 k-point 67 :   0.4190 0.1269 0.4190  plane waves:    1023
 k-point 68 :   0.4190 0.1294 0.4190  plane waves:    1023
 k-point 69 :   0.4190 0.1318 0.4190  plane waves:    1025
 k-point 70 :   0.4190 0.1343 0.4190  plane waves:    1025
 k-point 71 :   0.4190 0.1368 0.4190  plane waves:    1025
 k-point 72 :   0.4190 0.1393 0.4190  plane waves:    1025
 k-point 73 :   0.4190 0.1418 0.4190  plane waves:    1025
 k-point 74 :   0.4190 0.1443 0.4190  plane waves:    1025
 k-point 75 :   0.4190 0.1468 0.4190  plane waves:    1025
 k-point 76 :   0.4190 0.1493 0.4190  plane waves:    1025
 k-point 77 :   0.4190 0.1517 0.4190  plane waves:    1021
 k-point 78 :   0.4190 0.1542 0.4190  plane waves:    1021
 k-point 79 :   0.4190 0.1567 0.4190  plane waves:    1021
 k-point 80 :   0.4190 0.1592 0.4190  plane waves:    1021
 k-point 81 :   0.4190 0.1617 0.4190  plane waves:    1023
 k-point 82 :   0.4190 0.1642 0.4190  plane waves:    1023
 k-point 83 :   0.4190 0.1667 0.4190  plane waves:    1023
 k-point 84 :   0.4190 0.1692 0.4190  plane waves:    1023
 k-point 85 :   0.4190 0.1716 0.4190  plane waves:    1023
 k-point 86 :   0.4190 0.1741 0.4190  plane waves:    1023
 k-point 87 :   0.4190 0.1766 0.4190  plane waves:    1023
 k-point 88 :   0.4190 0.1791 0.4190  plane waves:    1024
 k-point 89 :   0.4190 0.1816 0.4190  plane waves:    1024
 k-point 90 :   0.4190 0.1841 0.4190  plane waves:    1024
 k-point 91 :   0.4190 0.1866 0.4190  plane waves:    1024
 k-point 92 :   0.4190 0.1891 0.4190  plane waves:    1022
 k-point 93 :   0.4190 0.1915 0.4190  plane waves:    1022
 k-point 94 :   0.4190 0.1940 0.4190  plane waves:    1024
 k-point 95 :   0.4190 0.1965 0.4190  plane waves:    1024
 k-point 96 :   0.4190 0.1990 0.4190  plane waves:    1024
 k-point 97 :   0.4190 0.2015 0.4190  plane waves:    1023
 k-point 98 :   0.4190 0.2040 0.4190  plane waves:    1023
 k-point 99 :   0.4190 0.2065 0.4190  plane waves:    1021
 k-point ** :   0.4190 0.2090 0.4190  plane waves:    1021
 k-point ** :   0.4190 0.2114 0.4190  plane waves:    1021
 k-point ** :   0.4190 0.2139 0.4190  plane waves:    1021
 k-point ** :   0.4190 0.2164 0.4190  plane waves:    1023
 k-point ** :   0.4190 0.2189 0.4190  plane waves:    1019
 k-point ** :   0.4190 0.2214 0.4190  plane waves:    1019
 k-point ** :   0.4190 0.2239 0.4190  plane waves:    1017
 k-point ** :   0.4190 0.2264 0.4190  plane waves:    1016
 k-point ** :   0.4190 0.2289 0.4190  plane waves:    1016
 k-point ** :   0.4190 0.2313 0.4190  plane waves:    1016
 k-point ** :   0.4190 0.2338 0.4190  plane waves:    1016
 k-point ** :   0.4190 0.2363 0.4190  plane waves:    1016
 k-point ** :   0.4190 0.2388 0.4190  plane waves:    1016
 k-point ** :   0.4190 0.2413 0.4190  plane waves:    1016
 k-point ** :   0.4190 0.2438 0.4190  plane waves:    1016
 k-point ** :   0.4190 0.2463 0.4190  plane waves:    1016
 k-point ** :   0.4190 0.2488 0.4190  plane waves:    1016
 k-point ** :   0.4190 0.2512 0.4190  plane waves:    1016
 k-point ** :   0.4190 0.2537 0.4190  plane waves:    1016
 k-point ** :   0.4190 0.2562 0.4190  plane waves:    1016
 k-point ** :   0.4190 0.2587 0.4190  plane waves:    1016
 k-point ** :   0.4190 0.2612 0.4190  plane waves:    1014
 k-point ** :   0.4190 0.2637 0.4190  plane waves:    1014
 k-point ** :   0.4190 0.2662 0.4190  plane waves:    1014
 k-point ** :   0.4190 0.2687 0.4190  plane waves:    1016
 k-point ** :   0.4190 0.2711 0.4190  plane waves:    1016
 k-point ** :   0.4190 0.2736 0.4190  plane waves:    1014
 k-point ** :   0.4190 0.2761 0.4190  plane waves:    1014
 k-point ** :   0.4190 0.2786 0.4190  plane waves:    1014
 k-point ** :   0.4190 0.2811 0.4190  plane waves:    1014
 k-point ** :   0.4190 0.2836 0.4190  plane waves:    1014
 k-point ** :   0.4190 0.2861 0.4190  plane waves:    1014
 k-point ** :   0.4190 0.2886 0.4190  plane waves:    1016
 k-point ** :   0.4190 0.2910 0.4190  plane waves:    1016
 k-point ** :   0.4190 0.2935 0.4190  plane waves:    1014
 k-point ** :   0.4190 0.2960 0.4190  plane waves:    1014
 k-point ** :   0.4190 0.2985 0.4190  plane waves:    1016
 k-point ** :   0.4190 0.3010 0.4190  plane waves:    1016
 k-point ** :   0.4190 0.3035 0.4190  plane waves:    1015
 k-point ** :   0.4190 0.3060 0.4190  plane waves:    1017
 k-point ** :   0.4190 0.3085 0.4190  plane waves:    1017
 k-point ** :   0.4190 0.3109 0.4190  plane waves:    1017
 k-point ** :   0.4190 0.3134 0.4190  plane waves:    1017
[...]
      2      -1.6547      2.00000
      3       4.2215      2.00000
      4       4.2392      2.00000
      5       7.8010      0.00000
      6       9.6764      0.00000
      7       9.6996      0.00000
      8      14.2011      0.00000

 k-point   183 :       0.4190    0.4154    0.4190
  band No.  band energies     occupation 
      1      -5.5652      2.00000
      2      -1.6650      2.00000
      3       4.2253      2.00000
      4       4.2364      2.00000
      5       7.7974      0.00000
      6       9.6802      0.00000
      7       9.6931      0.00000
      8      14.1984      0.00000

 k-point   184 :       0.4190    0.4179    0.4190
  band No.  band energies     occupation 
      1      -5.5591      2.00000
      2      -1.6752      2.00000
      3       4.2287      2.00000
      4       4.2323      2.00000
      5       7.7950      0.00000
      6       9.6836      0.00000
      7       9.6873      0.00000
      8      14.1963      0.00000

 k-point   185 :       0.4190    0.4204    0.4190
  band No.  band energies     occupation 
      1      -5.5529      2.00000
      2      -1.6851      2.00000
      3       4.2269      2.00000
      4       4.2318      2.00000
      5       7.7939      0.00000
      6       9.6821      0.00000
      7       9.6866      0.00000
      8      14.1945      0.00000

 k-point   186 :       0.4190    0.4229    0.4190
  band No.  band energies     occupation 
      1      -5.5466      2.00000
      2      -1.6950      2.00000
      3       4.2202      2.00000
      4       4.2345      2.00000
      5       7.7941      0.00000
      6       9.6777      0.00000
      7       9.6892      0.00000
      8      14.1934      0.00000

 k-point   187 :       0.4190    0.4254    0.4190
  band No.  band energies     occupation 
      1      -5.5401      2.00000
      2      -1.7047      2.00000
      3       4.2123      2.00000
      4       4.2368      2.00000
      5       7.7956      0.00000
      6       9.6739      0.00000
      7       9.6915      0.00000
      8      14.1927      0.00000

 k-point   188 :       0.4190    0.4279    0.4190
  band No.  band energies     occupation 
      1      -5.5335      2.00000
      2      -1.7142      2.00000
      3       4.2030      2.00000
      4       4.2388      2.00000
      5       7.7984      0.00000
      6       9.6708      0.00000
      7       9.6934      0.00000
      8      14.1927      0.00000

 k-point   189 :       0.4190    0.4303    0.4190
  band No.  band energies     occupation 
      1      -5.5268      2.00000
      2      -1.7236      2.00000
      3       4.1926      2.00000
      4       4.2404      2.00000
      5       7.8024      0.00000
      6       9.6684      0.00000
      7       9.6949      0.00000
      8      14.1933      0.00000

 k-point   190 :       0.4190    0.4328    0.4190
  band No.  band energies     occupation 
      1      -5.5199      2.00000
      2      -1.7328      2.00000
      3       4.1809      2.00000
      4       4.2417      2.00000
      5       7.8076      0.00000
      6       9.6666      0.00000
      7       9.6960      0.00000
      8      14.1946      0.00000

 k-point   191 :       0.4190    0.4353    0.4190
  band No.  band energies     occupation 
      1      -5.5129      2.00000
      2      -1.7419      2.00000
      3       4.1680      2.00000
      4       4.2426      2.00000
      5       7.8141      0.00000
      6       9.6656      0.00000
      7       9.6967      0.00000
      8      14.1965      0.00000

 k-point   192 :       0.4190    0.4378    0.4190
  band No.  band energies     occupation 
      1      -5.5058      2.00000
      2      -1.7508      2.00000
      3       4.1539      2.00000
      4       4.2432      2.00000
      5       7.8217      0.00000
      6       9.6653      0.00000
      7       9.6971      0.00000
      8      14.1991      0.00000

 k-point   193 :       0.4190    0.4403    0.4190
  band No.  band energies     occupation 
      1      -5.4986      2.00000
      2      -1.7595      2.00000
      3       4.1386      2.00000
      4       4.2434      2.00000
      5       7.8305      0.00000
      6       9.6656      0.00000
      7       9.6971      0.00000
      8      14.2024      0.00000

 k-point   194 :       0.4190    0.4428    0.4190
  band No.  band energies     occupation 
      1      -5.4912      2.00000
      2      -1.7681      2.00000
      3       4.1222      2.00000
      4       4.2432      2.00000
      5       7.8405      0.00000
      6       9.6667      0.00000
      7       9.6967      0.00000
      8      14.2064      0.00000

 k-point   195 :       0.4190    0.4453    0.4190
  band No.  band energies     occupation 
      1      -5.4837      2.00000
      2      -1.7765      2.00000
      3       4.1047      2.00000
      4       4.2426      2.00000
      5       7.8515      0.00000
      6       9.6684      0.00000
      7       9.6960      0.00000
      8      14.2111      0.00000

 k-point   196 :       0.4190    0.4478    0.4190
  band No.  band energies     occupation 
      1      -5.4761      2.00000
      2      -1.7848      2.00000
      3       4.0861      2.00000
      4       4.2417      2.00000
      5       7.8635      0.00000
      6       9.6708      0.00000
      7       9.6950      0.00000
      8      14.2167      0.00000

 k-point   197 :       0.4190    0.4502    0.4190
  band No.  band energies     occupation 
      1      -5.4684      2.00000
      2      -1.7929      2.00000
      3       4.0665      2.00000
      4       4.2405      2.00000
      5       7.8766      0.00000
      6       9.6740      0.00000
      7       9.6936      0.00000
      8      14.2226      0.00000

 k-point   198 :       0.4190    0.4527    0.4190
  band No.  band energies     occupation 
      1      -5.4606      2.00000
      2      -1.8009      2.00000
      3       4.0458      2.00000
      4       4.2389      2.00000
      5       7.8907      0.00000
      6       9.6778      0.00000
      7       9.6919      0.00000
      8      14.2295      0.00000

 k-point   199 :       0.4190    0.4552    0.4190
  band No.  band energies     occupation 
      1      -5.4526      2.00000
      2      -1.8087      2.00000
      3       4.0242      2.00000
      4       4.2369      2.00000
      5       7.9056      0.00000
      6       9.6823      0.00000
      7       9.6900      0.00000
      8      14.2369      0.00000

 k-point   200 :       0.4190    0.4577    0.4190
  band No.  band energies     occupation 
      1      -5.4445      2.00000
      2      -1.8163      2.00000
      3       4.0016      2.00000
      4       4.2345      2.00000
      5       7.9215      0.00000
      6       9.6875      0.00000
      7       9.6878      0.00000
      8      14.2451      0.00000

 k-point   201 :       0.4190    0.4602    0.4190
  band No.  band energies     occupation 
      1      -5.4363      2.00000
      2      -1.8237      2.00000
      3       3.9781      2.00000
      4       4.2318      2.00000
      5       7.9382      0.00000
      6       9.6854      0.00000
      7       9.6934      0.00000
      8      14.2539      0.00000

 k-point   202 :       0.4190    0.4627    0.4190
  band No.  band energies     occupation 
      1      -5.4280      2.00000
      2      -1.8310      2.00000
      3       3.9538      2.00000
      4       4.2288      2.00000
      5       7.9556      0.00000
      6       9.6828      0.00000
      7       9.6999      0.00000
      8      14.2635      0.00000

 k-point   203 :       0.4190    0.4652    0.4190
  band No.  band energies     occupation 
      1      -5.4196      2.00000
      2      -1.8382      2.00000
      3       3.9286      2.00000
      4       4.2254      2.00000
      5       7.9737      0.00000
      6       9.6800      0.00000
      7       9.7072      0.00000
      8      14.2736      0.00000

 k-point   204 :       0.4190    0.4677    0.4190
  band No.  band energies     occupation 
      1      -5.4110      2.00000
      2      -1.8452      2.00000
      3       3.9026      2.00000
      4       4.2216      2.00000
      5       7.9925      0.00000
      6       9.6771      0.00000
      7       9.7151      0.00000
      8      14.2844      0.00000

 k-point   205 :       0.4190    0.4701    0.4190
  band No.  band energies     occupation 
      1      -5.4023      2.00000
      2      -1.8520      2.00000
      3       3.8758      2.00000
      4       4.2176      2.00000
      5       8.0119      0.00000
      6       9.6740      0.00000
      7       9.7237      0.00000
      8      14.2959      0.00000

 k-point   206 :       0.4190    0.4726    0.4190
  band No.  band energies     occupation 
      1      -5.3936      2.00000
      2      -1.8586      2.00000
      3       3.8483      2.00000
      4       4.2131      2.00000
      5       8.0319      0.00000
      6       9.6709      0.00000
      7       9.7330      0.00000
      8      14.3079      0.00000

 k-point   207 :       0.4190    0.4751    0.4190
  band No.  band energies     occupation 
      1      -5.3847      2.00000
      2      -1.8651      2.00000
      3       3.8201      2.00000
      4       4.2084      2.00000
      5       8.0523      0.00000
      6       9.6678      0.00000
      7       9.7429      0.00000
      8      14.3206      0.00000

 k-point   208 :       0.4190    0.4776    0.4190
  band No.  band energies     occupation 
      1      -5.3756      2.00000
      2      -1.8714      2.00000
      3       3.7912      2.00000
      4       4.2033      2.00000
      5       8.0731      0.00000
      6       9.6647      0.00000
      7       9.7535      0.00000
      8      14.3338      0.00000

 k-point   209 :       0.4190    0.4801    0.4190
  band No.  band energies     occupation 
      1      -5.3665      2.00000
      2      -1.8776      2.00000
      3       3.7617      2.00000
      4       4.1978      2.00000
      5       8.0943      0.00000
      6       9.6616      0.00000
      7       9.7648      0.00000
      8      14.3477      0.00000

 k-point   210 :       0.4190    0.4826    0.4190
  band No.  band energies     occupation 
      1      -5.3573      2.00000
      2      -1.8836      2.00000
      3       3.7316      2.00000
      4       4.1921      2.00000
      5       8.1157      0.00000
      6       9.6587      0.00000
      7       9.7767      0.00000
      8      14.3618      0.00000

 k-point   211 :       0.4190    0.4851    0.4190
  band No.  band energies     occupation 
      1      -5.3479      2.00000
      2      -1.8894      2.00000
      3       3.7009      2.00000
      4       4.1860      2.00000
      5       8.1374      0.00000
      6       9.6560      0.00000
      7       9.7893      0.00000
      8      14.3766      0.00000

 k-point   212 :       0.4190    0.4876    0.4190
  band No.  band energies     occupation 
      1      -5.3385      2.00000
      2      -1.8951      2.00000
      3       3.6697      2.00000
      4       4.1796      2.00000
      5       8.1591      0.00000
      6       9.6535      0.00000
      7       9.8025      0.00000
      8      14.3917      0.00000

 k-point   213 :       0.4190    0.4900    0.4190
  band No.  band energies     occupation 
      1      -5.3289      2.00000
      2      -1.9006      2.00000
      3       3.6380      2.00000
      4       4.1730      2.00000
      5       8.1809      0.00000
      6       9.6513      0.00000
      7       9.8163      0.00000
      8      14.4076      0.00000

 k-point   214 :       0.4190    0.4925    0.4190
  band No.  band energies     occupation 
      1      -5.3192      2.00000
      2      -1.9060      2.00000
      3       3.6058      2.00000
      4       4.1660      2.00000
      5       8.2027      0.00000
      6       9.6494      0.00000
      7       9.8308      0.00000
      8      14.4235      0.00000

 k-point   215 :       0.4190    0.4950    0.4190
  band No.  band energies     occupation 
      1      -5.3095      2.00000
      2      -1.9111      2.00000
      3       3.5731      2.00000
      4       4.1587      2.00000
      5       8.2243      0.00000
      6       9.6480      0.00000
      7       9.8460      0.00000
      8      14.4401      0.00000

 k-point   216 :       0.4190    0.4975    0.4190
  band No.  band energies     occupation 
      1      -5.2996      2.00000
      2      -1.9162      2.00000
      3       3.5400      2.00000
      4       4.1511      2.00000
      5       8.2457      0.00000
      6       9.6471      0.00000
      7       9.8617      0.00000
      8      14.4571      0.00000


--------------------------------------------------------------------------------------------------------


 soft charge-density along one line, spin component           1
         0         1         2         3         4         5         6         7         8         9
 total charge-density along one line
 
 pseudopotential strength for first ion, spin component:           1
 17.851  24.907  -0.000   0.000  -0.000  -0.000   0.000  -0.000
 24.907  34.756  -0.000   0.000  -0.000  -0.000   0.000  -0.000
 -0.000  -0.000   4.076   0.000  -0.000   7.598   0.000  -0.000
  0.000   0.000   0.000   4.076   0.000   0.000   7.598   0.000
 -0.000  -0.000  -0.000   0.000   4.076  -0.000   0.000   7.598
 -0.000  -0.000   7.598   0.000  -0.000  14.174   0.000  -0.000
  0.000   0.000   0.000   7.598   0.000   0.000  14.174   0.000
 -0.000  -0.000  -0.000   0.000   7.598  -0.000   0.000  14.174
 total augmentation occupancy for first ion, spin component:           1
 11.034  -5.196  -0.000   0.000  -0.000  -0.000   0.000   0.000
 -5.196   2.499   0.000  -0.000   0.000  -0.000   0.000  -0.000
  0.000   0.000   3.934  -0.000   0.000  -1.044   0.000   0.000
  0.000  -0.000   0.000   3.934  -0.000   0.000  -1.044   0.000
  0.000   0.000  -0.000  -0.000   3.934   0.000   0.000  -1.044
 -0.000   0.000  -1.044   0.000   0.000   0.283   0.000   0.000
 -0.000   0.000   0.000  -1.044   0.000   0.000   0.283  -0.000
  0.000  -0.000   0.000   0.000  -1.044  -0.000  -0.000   0.283


------------------------ aborting loop because EDIFF is reached ----------------------------------------


 


 total charge     
 
# of ion     s       p       d       tot
----------------------------------------
  1        0.753   0.972   0.000   1.725
  2        0.753   0.972   0.000   1.725
------------------------------------------------
tot        1.507   1.944   0.000   3.451
 
    FORLOC:  cpu time    0.0000: real time    0.0002
    FORHF :  cpu time   15.3610: real time   15.3674
    FORNL :  cpu time    0.0040: real time    0.0066
    STRESS:  cpu time    0.0760: real time    0.0762
    FORCOR:  cpu time    0.0160: real time    0.0189
    OFIELD:  cpu time    0.0000: real time    0.0001

  FORCE on cell =-STRESS in cart. coord.  units (eV):
  Direction    XX          YY          ZZ          XY          YZ          ZX
  --------------------------------------------------------------------------------------
  Alpha Z     3.36229     3.36229     3.36229
  Ewald     -76.17385   -76.17385   -76.17385     0.00000     0.00000    -0.00000
  Hartree     5.05799     5.05799     5.05799     0.00000    -0.00000    -0.00000
  E(xc)     -19.65143   -19.65143   -19.65143     0.00000    -0.00000    -0.00000
  Local     -29.22459   -29.22459   -29.22459     0.00001    -0.00001    -0.00001
  n-local    70.64031    75.93210    75.18300    -1.16342    -2.37031    -0.76789
  augment   -10.65096   -10.65096   -10.65096    -0.00001     0.00001     0.00001
  Kinetic    55.07394    57.18276    58.59644    -1.13693    -3.67179    -1.06870
  Fock       -3.24403    -3.17725    -3.13489    -0.00130    -0.05159    -0.00297
  -------------------------------------------------------------------------------------
  Total       0.40358     0.40358     0.40358     0.00000    -0.00000    -0.00000
  in kB      16.14585    16.14585    16.14585     0.00000    -0.00000    -0.00000
  external pressure =       16.15 kB  Pullay stress =        0.00 kB


 VOLUME and BASIS-vectors are now :
 -----------------------------------------------------------------------------
  energy-cutoff  :      500.00
  volume of cell :       40.05
      direct lattice vectors                 reciprocal lattice vectors
     2.715500000  2.715500000  0.000000000     0.184128153  0.184128153  0.184128153
     2.715500000  0.000000000 -2.715500000     0.184128153 -0.184128153 -0.184128153
     0.000000000  2.715500000 -2.715500000    -0.184128153  0.184128153 -0.184128153

  length of vectors
     3.840296929  3.840296929  3.840296929     0.318919316  0.318919316  0.318919316


 FORCES acting on ions:
    Electron-Ion                     Ewald-Force                    Non-Local-Force
 -----------------------------------------------------------------------------------------------
   -.757E-08 -.475E-08 0.475E-08   -.923E-14 -.515E-14 0.930E-14   0.364E-16 0.139E-16 0.694E-17
   0.757E-08 0.475E-08 -.475E-08   0.907E-14 0.563E-14 -.939E-14   -.399E-16 -.278E-16 0.000E+00
 -----------------------------------------------------------------------------------------------
   0.407E-06 0.501E-06 -.183E-06   -.164E-15 0.474E-15 -.970E-16   -.347E-17 -.139E-16 0.694E-17
 
 
 POSITION                                       TOTAL-FORCE (eV/Angst)
 -----------------------------------------------------------------------------------
      0.00000      0.00000      0.00000        -0.000000      0.000000      0.000000
      1.35775      1.35775     -1.35775         0.000000     -0.000000     -0.000000
 -----------------------------------------------------------------------------------
    total drift:                                0.000000      0.000001     -0.000000


--------------------------------------------------------------------------------------------------------



  FREE ENERGIE OF THE ION-ELECTRON SYSTEM (eV)
  ---------------------------------------------------
  free  energy   TOTEN  =       -12.22100391 eV

  energy  without entropy=      -12.22100391  energy(sigma->0) =      -12.22100391
 


--------------------------------------------------------------------------------------------------------


    POTLOK:  cpu time    0.0920: real time    0.0895


--------------------------------------------------------------------------------------------------------




--------------------------------------------------------------------------------------------------------


 writing wavefunctions
     LOOP+:  cpu time  134.3004: real time  138.0222
    4ORBIT:  cpu time    0.0000: real time    0.0000
 


 total charge     
 
# of ion     s       p       d       tot
----------------------------------------
  1        0.753   0.972   0.000   1.725
  2        0.753   0.972   0.000   1.725
------------------------------------------------
tot        1.507   1.944   0.000   3.451
 

 total amount of memory used by VASP on root node    39374. kBytes
========================================================================

   base      :      30000. kBytes
   nonl-proj :       3103. kBytes
   fftplans  :        473. kBytes
   grid      :        621. kBytes
   one-center:          3. kBytes
   HF        :          4. kBytes
   nonlr-proj:        361. kBytes
   wavefun   :       4809. kBytes
 
  
  
 General timing and accounting informations for this job:
 ========================================================
  
                  Total CPU time used (sec):      152.021
                            User time (sec):      150.761
                          System time (sec):        1.260
                         Elapsed time (sec):      156.376
  
                   Maximum memory used (kb):      134156.
                   Average memory used (kb):           0.
  
                          Minor page faults:        34101
                          Major page faults:            0
                 Voluntary context switches:         1193
