PROCAR new format
# of k-points:  216         # of bands:   8         # of ions:   2

 k-point    1 :    0.00000000 0.00000000 0.00000000     weight = 0.00490196

band   1 # energy   -7.79610288 # occ.  2.00000000
 
ion      s      p      d    tot
  1  0.220  0.000  0.000  0.220
  2  0.220  0.000  0.000  0.220
tot  0.439  0.000  0.000  0.439
 
band   2 # energy    5.49755949 # occ.  2.00000000
 
ion      s      p      d    tot
  1  0.000  0.217  0.000  0.217
  2  0.000  0.217  0.000  0.217
tot  0.000  0.435  0.000  0.435
 
band   3 # energy    5.49755942 # occ.  2.00000000
 
ion      s      p      d    tot
  1  0.000  0.217  0.000  0.217
  2  0.000  0.217  0.000  0.217
tot  0.000  0.435  0.000  0.435
 
band   4 # energy    5.49755937 # occ.  2.00000000
 
ion      s      p      d    tot
  1  0.000  0.217  0.000  0.217
  2  0.000  0.217  0.000  0.217
tot  0.000  0.435  0.000  0.435
 
band   5 # energy    8.80771091 # occ.  0.00000000
 
ion      s      p      d    tot
  1  0.000  0.150  0.000  0.150
  2  0.000  0.150  0.000  0.150
tot  0.000  0.301  0.000  0.301
 
band   6 # energy    8.80771091 # occ.  0.00000000
 
ion      s      p      d    tot
  1  0.000  0.150  0.000  0.150
  2  0.000  0.150  0.000  0.150
tot  0.000  0.301  0.000  0.301
 
band   7 # energy    8.80771092 # occ.  0.00000000
 
ion      s      p      d    tot
  1  0.000  0.150  0.000  0.150
  2  0.000  0.150  0.000  0.150
tot  0.000  0.301  0.000  0.301
 
band   8 # energy    9.81507129 # occ.  0.00000000
 
ion      s      p      d    tot
  1  0.365  0.000  0.000  0.365
  2  0.365  0.000  0.000  0.365
tot  0.730  0.000  0.000  0.730
 

 k-point    2 :    0.16666667 0.00000000 0.00000000     weight = 0.03921569

band   1 # energy   -7.39547755 # occ.  2.00000000
 
ion      s      p      d    tot
  1  0.218  0.004  0.000  0.222
  2  0.218  0.004  0.000  0.222
tot  0.435  0.008  0.000  0.443
 
band   2 # energy    2.94239175 # occ.  2.00000000
 
ion      s      p      d    tot
  1  0.073  0.148  0.000  0.221
  2  0.073  0.148  0.000  0.221
tot  0.146  0.296  0.000  0.442
 
band   3 # energy    5.02269168 # occ.  2.00000000
 
ion      s      p      d    tot
  1  0.000  0.215  0.000  0.215
  2  0.000  0.215  0.000  0.215
tot  0.000  0.430  0.000  0.430
 
band   4 # energy    5.02269165 # occ.  2.00000000
 
ion      s      p      d    tot
  1  0.000  0.215  0.000  0.215
  2  0.000  0.215  0.000  0.215
tot  0.000  0.430  0.000  0.430
 
band   5 # energy    8.59746357 # occ.  0.00000000
 
ion      s      p      d    tot
  1  0.122  0.074  0.000  0.196
  2  0.122  0.074  0.000  0.196
tot  0.244  0.148  0.000  0.392
 
band   6 # energy    9.49628363 # occ.  0.00000000
 
ion      s      p      d    tot
  1  0.000  0.152  0.000  0.152
  2  0.000  0.152  0.000  0.152
tot  0.000  0.304  0.000  0.304
 
band   7 # energy    9.49628365 # occ.  0.00000000
 
ion      s      p      d    tot
  1  0.000  0.152  0.000  0.152
  2  0.000  0.152  0.000  0.152
tot  0.000  0.304  0.000  0.304
 
band   8 # energy   11.94300516 # occ.  0.00000000
 
ion      s      p      d    tot
  1  0.186  0.110  0.000  0.296
  2  0.186  0.110  0.000  0.296
tot  0.371  0.220  0.000  0.591
 

 k-point    3 :    0.33333333 0.00000000 0.00000000     weight = 0.03921569

band   1 # energy   -6.26620114 # occ.  2.00000000
 
ion      s      p      d    tot
  1  0.216  0.013  0.000  0.229
  2  0.216  0.013  0.000  0.229
tot  0.432  0.026  0.000  0.459
 
band   2 # energy   -0.37646261 # occ.  2.00000000
 
ion      s      p      d    tot
  1  0.105  0.106  0.000  0.212
  2  0.105  0.106  0.000  0.212
tot  0.211  0.213  0.000  0.424
 
band   3 # energy    4.40512153 # occ.  2.00000000
 
ion      s      p      d    tot
  1  0.000  0.218  0.000  0.218
  2  0.000  0.218  0.000  0.218
tot  0.000  0.435  0.000  0.435
 
band   4 # energy    4.40512149 # occ.  2.00000000
 
ion      s      p      d    tot
  1  0.000  0.218  0.000  0.218
  2  0.000  0.218  0.000  0.218
tot  0.000  0.435  0.000  0.435
 
band   5 # energy    7.97493011 # occ.  0.00000000
 
ion      s      p      d    tot
  1  0.174  0.030  0.000  0.204
  2  0.174  0.030  0.000  0.204
tot  0.348  0.061  0.000  0.409
 
band   6 # energy    9.81223356 # occ.  0.00000000
 
ion      s      p      d    tot
  1  0.000  0.112  0.000  0.112
  2  0.000  0.112  0.000  0.112
tot  0.000  0.223  0.000  0.223
 
band   7 # energy    9.81223358 # occ.  0.00000000
 
ion      s      p      d    tot
  1  0.000  0.112  0.000  0.112
  2  0.000  0.112  0.000  0.112
tot  0.000  0.223  0.000  0.223
 
band   8 # energy   14.34927633 # occ.  0.00000000
 
ion      s      p      d    tot
  1  0.010  0.103  0.000  0.113
  2  0.010  0.103  0.000  0.114
tot  0.021  0.206  0.000  0.226
 

 k-point    4 :    0.50000000 0.00000000 0.00000000     weight = 0.01960784

band   1 # energy   -5.20037404 # occ.  2.00000000
 
ion      s      p      d    tot
  1  0.230  0.014  0.000  0.244
  2  0.230  0.014  0.000  0.244
tot  0.460  0.029  0.000  0.489
 
band   2 # energy   -2.22112168 # occ.  2.00000000
 
ion      s      p      d    tot
  1  0.100  0.096  0.000  0.196
  2  0.100  0.096  0.000  0.196
tot  0.199  0.192  0.000  0.392
 
band   3 # energy    4.17517783 # occ.  2.00000000
 
ion      s      p      d    tot
  1  0.000  0.220  0.000  0.220
  2  0.000  0.220  0.000  0.220
tot  0.000  0.439  0.000  0.439
 
band   4 # energy    4.17517779 # occ.  2.00000000
 
ion      s      p      d    tot
  1  0.000  0.220  0.000  0.220
  2  0.000  0.220  0.000  0.220
tot  0.000  0.439  0.000  0.439
 
band   5 # energy    7.73767029 # occ.  0.00000000
 
ion      s      p      d    tot
  1  0.189  0.018  0.000  0.206
  2  0.189  0.018  0.000  0.206
tot  0.377  0.035  0.000  0.412
 
band   6 # energy    9.62860547 # occ.  0.00000000
 
ion      s      p      d    tot
  1  0.000  0.092  0.000  0.092
  2  0.000  0.092  0.000  0.092
tot  0.000  0.183  0.000  0.183
 
band   7 # energy    9.62860548 # occ.  0.00000000
 
ion      s      p      d    tot
  1  0.000  0.092  0.000  0.092
  2  0.000  0.092  0.000  0.092
tot  0.000  0.183  0.000  0.183
 
band   8 # energy   14.10429265 # occ.  0.00000000
 
ion      s      p      d    tot
  1  0.007  0.046  0.000  0.053
  2  0.007  0.046  0.000  0.053
tot  0.014  0.092  0.000  0.106
 

 k-point    5 :    0.16666667 0.16666667 0.00000000     weight = 0.02941176

band   1 # energy   -7.25903567 # occ.  2.00000000
 
ion      s      p      d    tot
  1  0.217  0.005  0.000  0.222
  2  0.217  0.005  0.000  0.222
tot  0.433  0.011  0.000  0.444
 
band   2 # energy    3.32307357 # occ.  2.00000000
 
ion      s      p      d    tot
  1  0.116  0.135  0.000  0.251
  2  0.116  0.135  0.000  0.251
tot  0.232  0.271  0.000  0.502
 
band   3 # energy    4.22451182 # occ.  2.00000000
 
ion      s      p      d    tot
  1  0.000  0.204  0.000  0.204
  2  0.000  0.204  0.000  0.204
tot  0.000  0.407  0.000  0.407
 
band   4 # energy    4.22451202 # occ.  2.00000000
 
ion      s      p      d    tot
  1  0.000  0.204  0.000  0.204
  2  0.000  0.204  0.000  0.204
tot  0.000  0.407  0.000  0.407
 
band   5 # energy    7.85752325 # occ.  0.00000000
 
ion      s      p      d    tot
  1  0.031  0.100  0.000  0.131
  2  0.031  0.100  0.000  0.131
tot  0.061  0.201  0.000  0.262
 
band   6 # energy   10.67558176 # occ.  0.00000000
 
ion      s      p      d    tot
  1  0.114  0.058  0.000  0.172
  2  0.114  0.058  0.000  0.172
tot  0.228  0.116  0.000  0.344
 
band   7 # energy   10.70693506 # occ.  0.00000000
 
ion      s      p      d    tot
  1  0.000  0.164  0.000  0.164
  2  0.000  0.164  0.000  0.164
tot  0.000  0.328  0.000  0.328
 
band   8 # energy   10.70693472 # occ.  0.00000000
 
ion      s      p      d    tot
  1  0.000  0.164  0.000  0.164
  2  0.000  0.164  0.000  0.164
tot  0.000  0.328  0.000  0.328
 

 k-point    6 :    0.33333333 0.16666667 0.00000000     weight = 0.11764706

band   1 # energy   -6.35257891 # occ.  2.00000000
 
ion      s      p      d    tot
  1  0.214  0.014  0.000  0.227
  2  0.214  0.014  0.000  0.227
tot  0.427  0.028  0.000  0.455
 
band   2 # energy    0.63178154 # occ.  2.00000000
 
ion      s      p      d    tot
  1  0.126  0.108  0.000  0.233
  2  0.126  0.108  0.000  0.233
tot  0.252  0.215  0.000  0.467
 
band   3 # energy    3.37142113 # occ.  2.00000000
 
ion      s      p      d    tot
  1  0.031  0.175  0.000  0.206
  2  0.031  0.175  0.000  0.206
tot  0.061  0.350  0.000  0.411
 
band   4 # energy    3.59836259 # occ.  2.00000000
 
ion      s      p      d    tot
  1  0.000  0.204  0.000  0.204
  2  0.000  0.204  0.000  0.204
tot  0.000  0.407  0.000  0.407
 
band   5 # energy    8.12031915 # occ.  0.00000000
 
ion      s      p      d    tot
  1  0.043  0.084  0.000  0.127
  2  0.043  0.084  0.000  0.127
tot  0.085  0.168  0.000  0.253
 
band   6 # energy   10.42658511 # occ.  0.00000000
 
ion      s      p      d    tot
  1  0.062  0.068  0.000  0.130
  2  0.062  0.068  0.000  0.130
tot  0.123  0.136  0.000  0.259
 
band   7 # energy   10.85428059 # occ.  0.00000000
 
ion      s      p      d    tot
  1  0.037  0.104  0.000  0.141
  2  0.037  0.104  0.000  0.141
tot  0.074  0.207  0.000  0.281
 
band   8 # energy   11.49584826 # occ.  0.00000000
 
ion      s      p      d    tot
  1  0.000  0.136  0.000  0.136
  2  0.000  0.136  0.000  0.136
tot  0.000  0.273  0.000  0.273
 

 k-point    7 :    0.50000000 0.16666667 0.00000000     weight = 0.11764706

band   1 # energy   -5.02306194 # occ.  2.00000000
 
ion      s      p      d    tot
  1  0.222  0.020  0.000  0.242
  2  0.222  0.020  0.000  0.242
tot  0.444  0.040  0.000  0.484
 
band   2 # energy   -1.81143190 # occ.  2.00000000
 
ion      s      p      d    tot
  1  0.123  0.089  0.000  0.212
  2  0.123  0.089  0.000  0.212
tot  0.245  0.179  0.000  0.424
 
band   3 # energy    2.49920167 # occ.  2.00000000
 
ion      s      p      d    tot
  1  0.039  0.162  0.000  0.201
  2  0.039  0.162  0.000  0.201
tot  0.078  0.324  0.000  0.402
 
band   4 # energy    3.55003944 # occ.  2.00000000
 
ion      s      p      d    tot
  1  0.000  0.209  0.000  0.209
  2  0.000  0.209  0.000  0.209
tot  0.000  0.417  0.000  0.417
 
band   5 # energy    8.22795626 # occ.  0.00000000
 
ion      s      p      d    tot
  1  0.064  0.056  0.000  0.120
  2  0.064  0.056  0.000  0.120
tot  0.129  0.112  0.000  0.241
 
band   6 # energy   10.43792394 # occ.  0.00000000
 
ion      s      p      d    tot
  1  0.063  0.093  0.000  0.156
  2  0.063  0.093  0.000  0.156
tot  0.127  0.186  0.000  0.312
 
band   7 # energy   11.00243811 # occ.  0.00000000
 
ion      s      p      d    tot
  1  0.000  0.103  0.000  0.103
  2  0.000  0.103  0.000  0.103
tot  0.000  0.207  0.000  0.207
 
band   8 # energy   12.91931337 # occ.  0.00000000
 
ion      s      p      d    tot
  1  0.023  0.101  0.000  0.124
  2  0.023  0.101  0.000  0.124
tot  0.047  0.202  0.000  0.249
 

 k-point    8 :   -0.33333333 0.16666667 0.00000000     weight = 0.11764706

band   1 # energy   -5.45329901 # occ.  2.00000000
 
ion      s      p      d    tot
  1  0.217  0.019  0.000  0.236
  2  0.217  0.019  0.000  0.236
tot  0.434  0.038  0.000  0.472
 
band   2 # energy   -1.13635748 # occ.  2.00000000
 
ion      s      p      d    tot
  1  0.127  0.093  0.000  0.220
  2  0.127  0.093  0.000  0.220
tot  0.254  0.186  0.000  0.439
 
band   3 # energy    2.19842283 # occ.  2.00000000
 
ion      s      p      d    tot
  1  0.032  0.161  0.000  0.193
  2  0.032  0.161  0.000  0.193
tot  0.064  0.321  0.000  0.385
 
band   4 # energy    4.07729231 # occ.  2.00000000
 
ion      s      p      d    tot
  1  0.000  0.215  0.000  0.215
  2  0.000  0.215  0.000  0.215
tot  0.000  0.430  0.000  0.430
 
band   5 # energy    8.68969011 # occ.  0.00000000
 
ion      s      p      d    tot
  1  0.081  0.061  0.000  0.142
  2  0.081  0.061  0.000  0.142
tot  0.163  0.121  0.000  0.284
 
band   6 # energy   10.41795081 # occ.  0.00000000
 
ion      s      p      d    tot
  1  0.048  0.093  0.000  0.141
  2  0.048  0.093  0.000  0.141
tot  0.097  0.186  0.000  0.283
 
band   7 # energy   10.60241339 # occ.  0.00000000
 
ion      s      p      d    tot
  1  0.000  0.112  0.000  0.112
  2  0.000  0.112  0.000  0.112
tot  0.000  0.224  0.000  0.224
 
band   8 # energy   13.84434585 # occ.  0.00000000
 
ion      s      p      d    tot
  1  0.032  0.106  0.000  0.138
  2  0.033  0.104  0.000  0.137
tot  0.065  0.210  0.000  0.275
 

 k-point    9 :   -0.16666667 0.16666667 0.00000000     weight = 0.05882353

band   1 # energy   -6.74196764 # occ.  2.00000000
 
ion      s      p      d    tot
  1  0.215  0.010  0.000  0.225
  2  0.215  0.010  0.000  0.225
tot  0.430  0.020  0.000  0.450
 
band   2 # energy    1.43806607 # occ.  2.00000000
 
ion      s      p      d    tot
  1  0.120  0.117  0.000  0.237
  2  0.120  0.117  0.000  0.237
tot  0.240  0.235  0.000  0.475
 
band   3 # energy    2.91490970 # occ.  2.00000000
 
ion      s      p      d    tot
  1  0.011  0.174  0.000  0.185
  2  0.011  0.174  0.000  0.185
tot  0.022  0.348  0.000  0.370
 
band   4 # energy    4.88326213 # occ.  2.00000000
 
ion      s      p      d    tot
  1  0.000  0.222  0.000  0.222
  2  0.000  0.222  0.000  0.222
tot  0.000  0.444  0.000  0.444
 
band   5 # energy    9.36018623 # occ.  0.00000000
 
ion      s      p      d    tot
  1  0.094  0.090  0.000  0.185
  2  0.094  0.090  0.000  0.185
tot  0.189  0.181  0.000  0.370
 
band   6 # energy    9.90365486 # occ.  0.00000000
 
ion      s      p      d    tot
  1  0.000  0.149  0.000  0.149
  2  0.000  0.149  0.000  0.149
tot  0.000  0.297  0.000  0.297
 
band   7 # energy   10.08815391 # occ.  0.00000000
 
ion      s      p      d    tot
  1  0.033  0.115  0.000  0.148
  2  0.033  0.115  0.000  0.148
tot  0.065  0.231  0.000  0.296
 
band   8 # energy   12.11333355 # occ.  0.00000000
 
ion      s      p      d    tot
  1  0.075  0.089  0.000  0.164
  2  0.075  0.089  0.000  0.164
tot  0.150  0.178  0.000  0.329
 

 k-point   10 :    0.33333333 0.33333333 0.00000000     weight = 0.02941176

band   1 # energy   -5.67873805 # occ.  2.00000000
 
ion      s      p      d    tot
  1  0.209  0.021  0.000  0.230
  2  0.209  0.021  0.000  0.230
tot  0.418  0.043  0.000  0.460
 
band   2 # energy   -0.01532634 # occ.  2.00000000
 
ion      s      p      d    tot
  1  0.174  0.082  0.000  0.256
  2  0.174  0.082  0.000  0.256
tot  0.348  0.165  0.000  0.513
 
band   3 # energy    2.84394781 # occ.  2.00000000
 
ion      s      p      d    tot
  1  0.000  0.199  0.000  0.199
  2  0.000  0.199  0.000  0.199
tot  0.000  0.399  0.000  0.399
 
band   4 # energy    2.84394810 # occ.  2.00000000
 
ion      s      p      d    tot
  1  0.000  0.199  0.000  0.199
  2  0.000  0.199  0.000  0.199
tot  0.000  0.399  0.000  0.399
 
band   5 # energy    6.80101177 # occ.  0.00000000
 
ion      s      p      d    tot
  1  0.052  0.055  0.000  0.107
  2  0.052  0.055  0.000  0.107
tot  0.104  0.111  0.000  0.215
 
band   6 # energy    8.15852060 # occ.  0.00000000
 
ion      s      p      d    tot
  1  0.044  0.028  0.000  0.072
  2  0.044  0.028  0.000  0.072
tot  0.087  0.057  0.000  0.144
 
band   7 # energy   13.87302629 # occ.  0.00000000
 
ion      s      p      d    tot
  1  0.000  0.163  0.000  0.163
  2  0.000  0.163  0.000  0.163
tot  0.000  0.325  0.000  0.325
 
band   8 # energy   13.87303696 # occ.  0.00000000
 
ion      s      p      d    tot
  1  0.000  0.163  0.000  0.163
  2  0.000  0.163  0.000  0.163
tot  0.000  0.325  0.000  0.325
 

 k-point   11 :    0.50000000 0.33333333 0.00000000     weight = 0.11764706

band   1 # energy   -4.37854825 # occ.  2.00000000
 
ion      s      p      d    tot
  1  0.207  0.032  0.000  0.240
  2  0.207  0.032  0.000  0.240
tot  0.415  0.064  0.000  0.479
 
band   2 # energy   -1.76806181 # occ.  2.00000000
 
ion      s      p      d    tot
  1  0.187  0.063  0.000  0.250
  2  0.187  0.063  0.000  0.250
tot  0.374  0.126  0.000  0.500
 
band   3 # energy    1.53601891 # occ.  2.00000000
 
ion      s      p      d    tot
  1  0.005  0.168  0.000  0.173
  2  0.005  0.168  0.000  0.173
tot  0.011  0.335  0.000  0.346
 
band   4 # energy    2.68255985 # occ.  2.00000000
 
ion      s      p      d    tot
  1  0.000  0.201  0.000  0.201
  2  0.000  0.201  0.000  0.201
tot  0.000  0.401  0.000  0.401
 
band   5 # energy    7.16719418 # occ.  0.00000000
 
ion      s      p      d    tot
  1  0.051  0.041  0.000  0.093
  2  0.051  0.041  0.000  0.093
tot  0.102  0.083  0.000  0.185
 
band   6 # energy    8.91936522 # occ.  0.00000000
 
ion      s      p      d    tot
  1  0.034  0.067  0.000  0.101
  2  0.034  0.067  0.000  0.101
tot  0.069  0.134  0.000  0.203
 
band   7 # energy   14.05149046 # occ.  0.00000000
 
ion      s      p      d    tot
  1  0.000  0.120  0.000  0.120
  2  0.000  0.120  0.000  0.120
tot  0.000  0.241  0.000  0.241
 
band   8 # energy   14.09278732 # occ.  0.00000000
 
ion      s      p      d    tot
  1  0.044  0.137  0.000  0.181
  2  0.044  0.137  0.000  0.181
tot  0.088  0.275  0.000  0.362
 

 k-point   12 :   -0.33333333 0.33333333 0.00000000     weight = 0.05882353

band   1 # energy   -4.15889276 # occ.  2.00000000
 
ion      s      p      d    tot
  1  0.218  0.029  0.000  0.247
  2  0.218  0.029  0.000  0.247
tot  0.437  0.058  0.000  0.495
 
band   2 # energy   -1.99831402 # occ.  2.00000000
 
ion      s      p      d    tot
  1  0.178  0.065  0.000  0.243
  2  0.178  0.065  0.000  0.243
tot  0.355  0.130  0.000  0.486
 
band   3 # energy    0.67316370 # occ.  2.00000000
 
ion      s      p      d    tot
  1  0.004  0.155  0.000  0.159
  2  0.004  0.155  0.000  0.159
tot  0.007  0.310  0.000  0.317
 
band   4 # energy    3.17501211 # occ.  2.00000000
 
ion      s      p      d    tot
  1  0.000  0.205  0.000  0.205
  2  0.000  0.205  0.000  0.205
tot  0.000  0.411  0.000  0.411
 
band   5 # energy    7.71634357 # occ.  0.00000000
 
ion      s      p      d    tot
  1  0.054  0.044  0.000  0.098
  2  0.054  0.044  0.000  0.098
tot  0.108  0.087  0.000  0.195
 
band   6 # energy   12.17777373 # occ.  0.00000000
 
ion      s      p      d    tot
  1  0.004  0.071  0.000  0.075
  2  0.004  0.070  0.000  0.074
tot  0.008  0.141  0.000  0.149
 
band   7 # energy   13.05833432 # occ.  0.00000000
 
ion      s      p      d    tot
  1  0.000  0.150  0.000  0.150
  2  0.000  0.150  0.000  0.150
tot  0.000  0.300  0.000  0.300
 
band   8 # energy   13.66486953 # occ.  0.00000000
 
ion      s      p      d    tot
  1  0.058  0.120  0.000  0.178
  2  0.042  0.150  0.000  0.191
tot  0.099  0.270  0.000  0.369
 

 k-point   13 :    0.50000000 0.50000000 0.00000000     weight = 0.01470588

band   1 # energy   -3.17280856 # occ.  2.00000000
 
ion      s      p      d    tot
  1  0.393  0.000  0.000  0.393
  2  0.000  0.094  0.000  0.094
tot  0.393  0.094  0.000  0.487
 
band   2 # energy   -3.17280829 # occ.  2.00000000
 
ion      s      p      d    tot
  1  0.000  0.094  0.000  0.094
  2  0.393  0.000  0.000  0.393
tot  0.393  0.094  0.000  0.487
 
band   3 # energy    2.34598206 # occ.  2.00000000
 
ion      s      p      d    tot
  1  0.000  0.199  0.000  0.199
  2  0.000  0.199  0.000  0.199
tot  0.000  0.398  0.000  0.398
 
band   4 # energy    2.34598206 # occ.  2.00000000
 
ion      s      p      d    tot
  1  0.000  0.199  0.000  0.199
  2  0.000  0.199  0.000  0.199
tot  0.000  0.398  0.000  0.398
 
band   5 # energy    6.78931339 # occ.  0.00000000
 
ion      s      p      d    tot
  1  0.104  0.001  0.000  0.105
  2  0.001  0.065  0.000  0.066
tot  0.105  0.066  0.000  0.171
 
band   6 # energy    6.78931328 # occ.  0.00000000
 
ion      s      p      d    tot
  1  0.001  0.065  0.000  0.066
  2  0.104  0.001  0.000  0.105
tot  0.105  0.066  0.000  0.171
 
band   7 # energy   16.97861786 # occ.  0.00000000
 
ion      s      p      d    tot
  1  0.000  0.238  0.000  0.238
  2  0.000  0.240  0.000  0.240
tot  0.000  0.478  0.000  0.478
 
band   8 # energy   16.98370660 # occ.  0.00000000
 
ion      s      p      d    tot
  1  0.000  0.233  0.000  0.233
  2  0.000  0.243  0.000  0.243
tot  0.000  0.476  0.000  0.476
 

 k-point   14 :    0.50000000 0.33333333 0.16666667     weight = 0.11764706

band   1 # energy   -5.24883053 # occ.  2.00000000
 
ion      s      p      d    tot
  1  0.212  0.023  0.000  0.235
  2  0.212  0.023  0.000  0.235
tot  0.423  0.047  0.000  0.470
 
band   2 # energy   -0.73213160 # occ.  2.00000000
 
ion      s      p      d    tot
  1  0.170  0.079  0.000  0.249
  2  0.170  0.079  0.000  0.249
tot  0.340  0.159  0.000  0.499
 
band   3 # energy    1.61417096 # occ.  2.00000000
 
ion      s      p      d    tot
  1  0.011  0.164  0.000  0.174
  2  0.011  0.164  0.000  0.174
tot  0.022  0.327  0.000  0.349
 
band   4 # energy    3.01255857 # occ.  2.00000000
 
ion      s      p      d    tot
  1  0.004  0.189  0.000  0.193
  2  0.004  0.189  0.000  0.193
tot  0.009  0.377  0.000  0.386
 
band   5 # energy    9.07221662 # occ.  0.00000000
 
ion      s      p      d    tot
  1  0.031  0.097  0.000  0.127
  2  0.031  0.097  0.000  0.127
tot  0.061  0.193  0.000  0.255
 
band   6 # energy    9.95895032 # occ.  0.00000000
 
ion      s      p      d    tot
  1  0.015  0.055  0.000  0.070
  2  0.015  0.055  0.000  0.070
tot  0.030  0.111  0.000  0.141
 
band   7 # energy   10.62155196 # occ.  0.00000000
 
ion      s      p      d    tot
  1  0.071  0.097  0.000  0.168
  2  0.071  0.097  0.000  0.168
tot  0.142  0.194  0.000  0.336
 
band   8 # energy   13.64152520 # occ.  0.00000000
 
ion      s      p      d    tot
  1  0.005  0.144  0.000  0.149
  2  0.005  0.144  0.000  0.149
tot  0.011  0.288  0.000  0.298
 

 k-point   15 :   -0.33333333 0.33333333 0.16666667     weight = 0.11764706

band   1 # energy   -4.14753881 # occ.  2.00000000
 
ion      s      p      d    tot
  1  0.220  0.028  0.000  0.248
  2  0.220  0.028  0.000  0.248
tot  0.439  0.057  0.000  0.496
 
band   2 # energy   -2.08065484 # occ.  2.00000000
 
ion      s      p      d    tot
  1  0.167  0.069  0.000  0.236
  2  0.167  0.069  0.000  0.236
tot  0.335  0.138  0.000  0.473
 
band   3 # energy    1.12263371 # occ.  2.00000000
 
ion      s      p      d    tot
  1  0.019  0.154  0.000  0.173
  2  0.019  0.154  0.000  0.173
tot  0.038  0.309  0.000  0.346
 
band   4 # energy    2.49668056 # occ.  2.00000000
 
ion      s      p      d    tot
  1  0.001  0.183  0.000  0.184
  2  0.001  0.183  0.000  0.184
tot  0.002  0.365  0.000  0.368
 
band   5 # energy    9.57113227 # occ.  0.00000000
 
ion      s      p      d    tot
  1  0.008  0.080  0.000  0.088
  2  0.008  0.080  0.000  0.088
tot  0.016  0.159  0.000  0.175
 
band   6 # energy    9.87135085 # occ.  0.00000000
 
ion      s      p      d    tot
  1  0.063  0.083  0.000  0.146
  2  0.063  0.083  0.000  0.146
tot  0.126  0.165  0.000  0.291
 
band   7 # energy   12.54184662 # occ.  0.00000000
 
ion      s      p      d    tot
  1  0.019  0.078  0.000  0.097
  2  0.019  0.078  0.000  0.097
tot  0.038  0.155  0.000  0.193
 
band   8 # energy   13.07325194 # occ.  0.00000000
 
ion      s      p      d    tot
  1  0.035  0.118  0.000  0.153
  2  0.035  0.118  0.000  0.153
tot  0.070  0.236  0.000  0.306
 

 k-point   16 :    0.41900000 0.00000000 0.41900000     weight = 0.00000000

band   1 # energy   -4.49362297 # occ.  2.00000000
 
ion      s      p      d    tot
  1  0.203  0.033  0.000  0.236
  2  0.203  0.033  0.000  0.236
tot  0.406  0.067  0.000  0.473
 
band   2 # energy   -1.69490447 # occ.  2.00000000
 
ion      s      p      d    tot
  1  0.188  0.063  0.000  0.251
  2  0.188  0.063  0.000  0.251
tot  0.376  0.125  0.000  0.501
 
band   3 # energy    2.46497520 # occ.  2.00000000
 
ion      s      p      d    tot
  1  0.000  0.199  0.000  0.199
  2  0.000  0.199  0.000  0.199
tot  0.000  0.398  0.000  0.398
 
band   4 # energy    2.46497512 # occ.  2.00000000
 
ion      s      p      d    tot
  1  0.000  0.199  0.000  0.199
  2  0.000  0.199  0.000  0.199
tot  0.000  0.398  0.000  0.398
 
band   5 # energy    6.63806447 # occ.  0.00000000
 
ion      s      p      d    tot
  1  0.054  0.042  0.000  0.096
  2  0.054  0.042  0.000  0.096
tot  0.109  0.083  0.000  0.192
 
band   6 # energy    7.26907846 # occ.  0.00000000
 
ion      s      p      d    tot
  1  0.048  0.028  0.000  0.077
  2  0.048  0.028  0.000  0.077
tot  0.096  0.057  0.000  0.153
 
band   7 # energy   15.59915673 # occ.  0.00000000
 
ion      s      p      d    tot
  1  0.000  0.164  0.000  0.164
  2  0.000  0.164  0.000  0.164
tot  0.000  0.327  0.000  0.327
 
band   8 # energy   15.59920832 # occ.  0.00000000
 
ion      s      p      d    tot
  1  0.000  0.164  0.000  0.164
  2  0.000  0.164  0.000  0.164
tot  0.000  0.327  0.000  0.327
 

 k-point   17 :    0.41900000 0.00248756 0.41900000     weight = 0.00000000

band   1 # energy   -4.51243186 # occ.  2.00000000
 
ion      s      p      d    tot
  1  0.203  0.033  0.000  0.236
  2  0.203  0.033  0.000  0.236
tot  0.407  0.066  0.000  0.473
 
band   2 # energy   -1.67124419 # occ.  2.00000000
 
ion      s      p      d    tot
  1  0.188  0.063  0.000  0.251
  2  0.188  0.063  0.000  0.251
tot  0.375  0.126  0.000  0.501
 
band   3 # energy    2.46828703 # occ.  2.00000000
 
ion      s      p      d    tot
  1  0.000  0.199  0.000  0.199
  2  0.000  0.199  0.000  0.199
tot  0.000  0.398  0.000  0.398
 
band   4 # energy    2.46869155 # occ.  2.00000000
 
ion      s      p      d    tot
  1  0.000  0.199  0.000  0.199
  2  0.000  0.199  0.000  0.199
tot  0.000  0.398  0.000  0.398
 
band   5 # energy    6.63848363 # occ.  0.00000000
 
ion      s      p      d    tot
  1  0.054  0.042  0.000  0.096
  2  0.054  0.042  0.000  0.096
tot  0.109  0.083  0.000  0.192
 
band   6 # energy    7.27942389 # occ.  0.00000000
 
ion      s      p      d    tot
  1  0.048  0.028  0.000  0.076
  2  0.048  0.028  0.000  0.076
tot  0.096  0.057  0.000  0.153
 
band   7 # energy   15.57338953 # occ.  0.00000000
 
ion      s      p      d    tot
  1  0.000  0.163  0.000  0.163
  2  0.000  0.163  0.000  0.163
tot  0.000  0.327  0.000  0.327
 
band   8 # energy   15.57337465 # occ.  0.00000000
 
ion      s      p      d    tot
  1  0.000  0.163  0.000  0.163
  2  0.000  0.163  0.000  0.163
tot  0.000  0.327  0.000  0.327
 

 k-point   18 :    0.41900000 0.00497512 0.41900000     weight = 0.00000000

band   1 # energy   -4.53111590 # occ.  2.00000000
 
ion      s      p      d    tot
  1  0.203  0.033  0.000  0.236
  2  0.203  0.033  0.000  0.236
tot  0.407  0.066  0.000  0.473
 
band   2 # energy   -1.64759394 # occ.  2.00000000
 
ion      s      p      d    tot
  1  0.188  0.063  0.000  0.251
  2  0.188  0.063  0.000  0.251
tot  0.375  0.126  0.000  0.502
 
band   3 # energy    2.47094174 # occ.  2.00000000
 
ion      s      p      d    tot
  1  0.000  0.199  0.000  0.199
  2  0.000  0.199  0.000  0.199
tot  0.000  0.398  0.000  0.398
 
band   4 # energy    2.47255636 # occ.  2.00000000
 
ion      s      p      d    tot
  1  0.000  0.199  0.000  0.199
  2  0.000  0.199  0.000  0.199
tot  0.000  0.398  0.000  0.398
 
band   5 # energy    6.63964628 # occ.  0.00000000
 
ion      s      p      d    tot
  1  0.054  0.042  0.000  0.096
  2  0.054  0.042  0.000  0.096
tot  0.109  0.084  0.000  0.193
 
band   6 # energy    7.29040894 # occ.  0.00000000
 
ion      s      p      d    tot
  1  0.048  0.028  0.000  0.076
  2  0.048  0.028  0.000  0.076
tot  0.096  0.057  0.000  0.153
 
band   7 # energy   15.54649350 # occ.  0.00000000
 
ion      s      p      d    tot
  1  0.000  0.163  0.000  0.163
  2  0.000  0.163  0.000  0.163
tot  0.000  0.327  0.000  0.327
 
band   8 # energy   15.54663435 # occ.  0.00000000
 
ion      s      p      d    tot
  1  0.000  0.163  0.000  0.163
  2  0.000  0.163  0.000  0.163
tot  0.000  0.326  0.000  0.326
 

 k-point   19 :    0.41900000 0.00746269 0.41900000     weight = 0.00000000

band   1 # energy   -4.54967357 # occ.  2.00000000
 
ion      s      p      d    tot
  1  0.203  0.033  0.000  0.236
  2  0.203  0.033  0.000  0.236
tot  0.407  0.065  0.000  0.472
 
band   2 # energy   -1.62395830 # occ.  2.00000000
 
ion      s      p      d    tot
  1  0.187  0.063  0.000  0.251
  2  0.187  0.063  0.000  0.251
tot  0.375  0.127  0.000  0.502
 
band   3 # energy    2.47294709 # occ.  2.00000000
 
ion      s      p      d    tot
  1  0.000  0.199  0.000  0.199
  2  0.000  0.199  0.000  0.199
tot  0.000  0.398  0.000  0.398
 
band   4 # energy    2.47657300 # occ.  2.00000000
 
ion      s      p      d    tot
  1  0.000  0.199  0.000  0.199
  2  0.000  0.199  0.000  0.199
tot  0.000  0.398  0.000  0.398
 
band   5 # energy    6.64154944 # occ.  0.00000000
 
ion      s      p      d    tot
  1  0.054  0.042  0.000  0.097
  2  0.054  0.042  0.000  0.097
tot  0.109  0.084  0.000  0.193
 
band   6 # energy    7.30204001 # occ.  0.00000000
 
ion      s      p      d    tot
  1  0.048  0.028  0.000  0.076
  2  0.048  0.028  0.000  0.076
tot  0.096  0.057  0.000  0.152
 
band   7 # energy   15.51830150 # occ.  0.00000000
 
ion      s      p      d    tot
  1  0.000  0.163  0.000  0.163
  2  0.000  0.163  0.000  0.163
tot  0.000  0.326  0.000  0.326
 
band   8 # energy   15.51882119 # occ.  0.00000000
 
ion      s      p      d    tot
  1  0.000  0.163  0.000  0.163
  2  0.000  0.163  0.000  0.163
tot  0.000  0.326  0.000  0.326
 

 k-point   20 :    0.41900000 0.00995025 0.41900000     weight = 0.00000000

band   1 # energy   -4.56810350 # occ.  2.00000000
 
ion      s      p      d    tot
  1  0.204  0.033  0.000  0.236
  2  0.204  0.033  0.000  0.236
tot  0.407  0.065  0.000  0.472
 
band   2 # energy   -1.60034260 # occ.  2.00000000
 
ion      s      p      d    tot
  1  0.187  0.064  0.000  0.251
  2  0.187  0.064  0.000  0.251
tot  0.375  0.127  0.000  0.502
 
band   3 # energy    2.47431117 # occ.  2.00000000
 
ion      s      p      d    tot
  1  0.000  0.199  0.000  0.199
  2  0.000  0.199  0.000  0.199