       N       E                     dE             d eps       ncg     rms          rms(c)
DAV:   1     0.187678710367E+02    0.18768E+02   -0.93617E+03755840   0.236E+02
DAV:   2    -0.543885193422E+01   -0.24207E+02   -0.24207E+02******   0.314E+01
DAV:   3    -0.549283866655E+01   -0.53987E-01   -0.53987E-01755968   0.209E+00
DAV:   4    -0.549287028992E+01   -0.31623E-04   -0.31623E-04******   0.437E-02
DAV:   5    -0.549287028996E+01   -0.42746E-10   -0.45202E-10755968   0.557E-05
DAV:   6    -0.549287028996E+01    0.00000E+00   -0.13217E-11******   0.131E-06
   1 F= -.54928703E+01 E0= -.54928703E+01  d E =-.549287E+01
