  96  96   0   0
  0.2080188E+02  0.1257760E-08  0.1245754E-08  0.1274818E-08  0.5000000E-15
  1.000000000000000E-004
  CAR 
 MAPbI3-Cubic                            
      8.87135066    -19.51934843  301      1.41879215      1.00000000
    -19.519  0.0000E+00  0.0000E+00
    -19.425  0.0000E+00  0.0000E+00
    -19.330  0.0000E+00  0.0000E+00
    -19.235  0.0000E+00  0.0000E+00
    -19.141  0.0000E+00  0.0000E+00
    -19.046  0.0000E+00  0.0000E+00
    -18.952  0.0000E+00  0.0000E+00
    -18.857  0.0000E+00  0.0000E+00
    -18.762  0.0000E+00  0.0000E+00
    -18.668  0.0000E+00  0.0000E+00
    -18.573  0.0000E+00  0.0000E+00
    -18.478  0.0000E+00  0.0000E+00
    -18.384  0.0000E+00  0.0000E+00
    -18.289  0.0000E+00  0.0000E+00
    -18.194  0.0000E+00  0.1600E+02
    -18.100  0.0000E+00  0.1600E+02
    -18.005  0.0000E+00  0.1600E+02
    -17.911  0.0000E+00  0.1600E+02
    -17.816  0.0000E+00  0.1600E+02
    -17.721  0.0000E+00  0.1600E+02
    -17.627  0.0000E+00  0.1600E+02
    -17.532  0.0000E+00  0.1600E+02
    -17.437  0.0000E+00  0.1600E+02
    -17.343  0.0000E+00  0.1600E+02
    -17.248  0.0000E+00  0.1600E+02
    -17.153  0.0000E+00  0.1600E+02
    -17.059  0.0000E+00  0.1600E+02
    -16.964  0.0000E+00  0.1600E+02
    -16.870  0.0000E+00  0.1600E+02
    -16.775  0.0000E+00  0.1600E+02
    -16.680  0.0000E+00  0.1600E+02
    -16.586  0.0000E+00  0.1600E+02
    -16.491  0.0000E+00  0.1600E+02
    -16.396  0.0000E+00  0.1600E+02
    -16.302  0.0000E+00  0.1600E+02
    -16.207  0.0000E+00  0.1600E+02
    -16.112  0.0000E+00  0.1600E+02
    -16.018  0.0000E+00  0.1600E+02
    -15.923  0.0000E+00  0.1600E+02
    -15.829  0.0000E+00  0.1600E+02
    -15.734  0.0000E+00  0.1600E+02
    -15.639  0.0000E+00  0.1600E+02
    -15.545  0.0000E+00  0.1600E+02
    -15.450  0.0000E+00  0.1600E+02
    -15.355  0.0000E+00  0.1600E+02
    -15.261  0.0000E+00  0.1600E+02
    -15.166  0.0000E+00  0.1600E+02
    -15.071  0.9195E+02  0.4411E+02
    -14.977  0.0000E+00  0.9600E+02
    -14.882  0.0000E+00  0.9600E+02
    -14.788  0.0000E+00  0.9600E+02
    -14.693  0.0000E+00  0.9600E+02
    -14.598  0.0000E+00  0.9600E+02
    -14.504  0.0000E+00  0.9600E+02
    -14.409  0.0000E+00  0.9600E+02
    -14.314  0.0000E+00  0.9600E+02
    -14.220  0.0000E+00  0.9600E+02
    -14.125  0.0000E+00  0.9600E+02
    -14.030  0.0000E+00  0.9600E+02
    -13.936  0.0000E+00  0.9600E+02
    -13.841  0.0000E+00  0.9600E+02
    -13.747  0.0000E+00  0.9600E+02
    -13.652  0.0000E+00  0.9600E+02
    -13.557  0.0000E+00  0.9600E+02
    -13.463  0.0000E+00  0.9600E+02
    -13.368  0.0000E+00  0.9600E+02
    -13.273  0.0000E+00  0.9600E+02
    -13.179  0.0000E+00  0.9600E+02
    -13.084  0.0000E+00  0.9600E+02
    -12.989  0.0000E+00  0.9600E+02
    -12.895  0.0000E+00  0.9600E+02
    -12.800  0.0000E+00  0.9600E+02
    -12.706  0.0000E+00  0.9600E+02
    -12.611  0.0000E+00  0.9600E+02
    -12.516  0.0000E+00  0.9600E+02
    -12.422  0.0000E+00  0.9600E+02
    -12.327  0.0000E+00  0.9600E+02
    -12.232  0.0000E+00  0.9600E+02
    -12.138  0.0000E+00  0.9600E+02
    -12.043  0.0000E+00  0.9600E+02
    -11.948  0.0000E+00  0.9600E+02
    -11.854  0.0000E+00  0.9600E+02
    -11.759  0.0000E+00  0.9600E+02
    -11.665  0.0000E+00  0.9600E+02
    -11.570  0.0000E+00  0.9600E+02
    -11.475  0.0000E+00  0.9600E+02
    -11.381  0.0000E+00  0.9600E+02
    -11.286  0.0000E+00  0.1040E+03
    -11.191  0.0000E+00  0.1120E+03
    -11.097  0.0000E+00  0.1120E+03
    -11.002  0.0000E+00  0.1120E+03
    -10.908  0.0000E+00  0.1120E+03
    -10.813  0.0000E+00  0.1121E+03
    -10.718  0.4696E+01  0.1141E+03
    -10.624  0.4695E+01  0.1184E+03
    -10.529  0.5297E+01  0.1241E+03
    -10.434  0.9593E+00  0.1283E+03
    -10.340  0.2257E+01  0.1301E+03
    -10.245  0.1049E+02  0.1394E+03
    -10.150  0.1565E+01  0.1436E+03
    -10.056  0.7828E+01  0.1485E+03
     -9.961  0.1011E+02  0.1570E+03
     -9.867  0.0000E+00  0.1600E+03
     -9.772  0.0000E+00  0.1600E+03
     -9.677  0.0000E+00  0.1600E+03
     -9.583  0.0000E+00  0.1600E+03
     -9.488  0.0000E+00  0.1600E+03
     -9.393  0.0000E+00  0.1600E+03
     -9.299  0.0000E+00  0.1600E+03
     -9.204  0.0000E+00  0.1600E+03
     -9.109  0.0000E+00  0.1600E+03
     -9.015  0.0000E+00  0.1600E+03
     -8.920  0.0000E+00  0.1600E+03
     -8.826  0.0000E+00  0.1600E+03
     -8.731  0.0000E+00  0.1600E+03
     -8.636  0.0000E+00  0.1600E+03
     -8.542  0.0000E+00  0.1600E+03
     -8.447  0.0000E+00  0.1600E+03
     -8.352  0.0000E+00  0.1600E+03
     -8.258  0.0000E+00  0.1600E+03
     -8.163  0.0000E+00  0.1600E+03
     -8.068  0.0000E+00  0.1600E+03
     -7.974  0.0000E+00  0.1600E+03
     -7.879  0.0000E+00  0.1600E+03
     -7.785  0.0000E+00  0.1600E+03
     -7.690  0.0000E+00  0.1680E+03
     -7.595  0.0000E+00  0.1840E+03
     -7.501  0.0000E+00  0.1920E+03
     -7.406  0.0000E+00  0.1920E+03
     -7.311  0.0000E+00  0.1920E+03
     -7.217  0.0000E+00  0.1920E+03
     -7.122  0.0000E+00  0.1920E+03
     -7.027  0.0000E+00  0.1921E+03
     -6.933  0.4004E-12  0.1921E+03
     -6.838  0.0000E+00  0.1925E+03
     -6.744  0.0000E+00  0.1934E+03
     -6.649  0.1381E+00  0.1942E+03
     -6.554  0.4116E+00  0.1945E+03
     -6.460  0.0000E+00  0.1964E+03
     -6.365  0.0000E+00  0.1988E+03
     -6.270  0.0000E+00  0.2000E+03
     -6.176  0.3118E+01  0.2015E+03
     -6.081  0.3387E-01  0.2034E+03
     -5.986  0.4056E-06  0.2053E+03
     -5.892  0.1558E+01  0.2064E+03
     -5.797  0.5106E+01  0.2137E+03
     -5.703  0.4696E+01  0.2223E+03
     -5.608  0.0000E+00  0.2235E+03
     -5.513  0.0000E+00  0.2239E+03
     -5.419  0.2095E-02  0.2239E+03
     -5.324  0.0000E+00  0.2240E+03
     -5.229  0.0000E+00  0.2240E+03
     -5.135  0.0000E+00  0.2240E+03
     -5.040  0.0000E+00  0.2240E+03
     -4.945  0.0000E+00  0.2240E+03
     -4.851  0.0000E+00  0.2240E+03
     -4.756  0.0000E+00  0.2240E+03
     -4.662  0.0000E+00  0.2240E+03
     -4.567  0.0000E+00  0.2240E+03
     -4.472  0.0000E+00  0.2240E+03
     -4.378  0.0000E+00  0.2240E+03
     -4.283  0.0000E+00  0.2240E+03
     -4.188  0.0000E+00  0.2240E+03
     -4.094  0.0000E+00  0.2240E+03
     -3.999  0.0000E+00  0.2240E+03
     -3.904  0.0000E+00  0.2240E+03
     -3.810  0.0000E+00  0.2240E+03
     -3.715  0.0000E+00  0.2240E+03
     -3.621  0.1702E-07  0.2240E+03
     -3.526  0.2927E+02  0.2426E+03
     -3.431  0.0000E+00  0.2560E+03
     -3.337  0.0000E+00  0.2560E+03
     -3.242  0.0000E+00  0.2560E+03
     -3.147  0.0000E+00  0.2560E+03
     -3.053  0.0000E+00  0.2560E+03
     -2.958  0.0000E+00  0.2560E+03
     -2.863  0.0000E+00  0.2560E+03
     -2.769  0.0000E+00  0.2560E+03
     -2.674  0.0000E+00  0.2560E+03
     -2.580  0.0000E+00  0.2560E+03
     -2.485  0.0000E+00  0.2560E+03
     -2.390  0.0000E+00  0.2560E+03
     -2.296  0.0000E+00  0.2560E+03
     -2.201  0.0000E+00  0.2560E+03
     -2.106  0.3972E-11  0.2561E+03
     -2.012  0.7827E+00  0.2584E+03
     -1.917  0.2349E+01  0.2613E+03
     -1.822  0.1565E+01  0.2635E+03
     -1.728  0.1702E-02  0.2657E+03
     -1.633  0.1565E+01  0.2687E+03
     -1.539  0.7827E+01  0.2726E+03
     -1.444  0.2690E+01  0.2758E+03
     -1.349  0.3101E+01  0.2788E+03
     -1.255  0.3131E+01  0.2799E+03
     -1.160  0.0000E+00  0.2800E+03
     -1.065  0.0000E+00  0.2800E+03
     -0.971  0.1565E+01  0.2811E+03
     -0.876  0.3133E+01  0.2853E+03
     -0.781  0.8240E+00  0.2920E+03
     -0.687  0.9310E+01  0.2974E+03
     -0.592  0.1576E+01  0.3023E+03
     -0.498  0.1588E+01  0.3054E+03
     -0.403  0.3649E+01  0.3093E+03
     -0.308  0.3826E+01  0.3147E+03
     -0.214  0.4675E+01  0.3210E+03
     -0.119  0.3929E-02  0.3273E+03
     -0.024  0.6262E+01  0.3335E+03
      0.070  0.3372E+01  0.3398E+03
      0.165  0.4142E+01  0.3482E+03
      0.260  0.6394E+01  0.3580E+03
      0.354  0.9279E+01  0.3650E+03
      0.449  0.6673E+01  0.3715E+03
      0.543  0.3131E+01  0.3810E+03
      0.638  0.1256E+02  0.3879E+03
      0.733  0.3159E+01  0.3924E+03
      0.827  0.1565E+01  0.3961E+03
      0.922  0.1599E+01  0.3978E+03
      1.017  0.0000E+00  0.3993E+03
      1.111  0.0000E+00  0.3993E+03
      1.206  0.0000E+00  0.3998E+03
      1.300  0.0000E+00  0.3999E+03
      1.395  0.0000E+00  0.4000E+03
      1.490  0.0000E+00  0.4000E+03
      1.584  0.0000E+00  0.4000E+03
      1.679  0.0000E+00  0.4000E+03
      1.774  0.0000E+00  0.4000E+03
      1.868  0.0000E+00  0.4000E+03
      1.963  0.0000E+00  0.4000E+03
      2.058  0.0000E+00  0.4000E+03
      2.152  0.0000E+00  0.4000E+03
      2.247  0.0000E+00  0.4000E+03
      2.341  0.0000E+00  0.4000E+03
      2.436  0.0000E+00  0.4000E+03
      2.531  0.0000E+00  0.4000E+03
      2.625  0.0000E+00  0.4000E+03
      2.720  0.0000E+00  0.4000E+03
      2.815  0.0000E+00  0.4000E+03
      2.909  0.0000E+00  0.4000E+03
      3.004  0.3131E+01  0.4005E+03
      3.099  0.0000E+00  0.4007E+03
      3.193  0.1565E+01  0.4013E+03
      3.288  0.0000E+00  0.4029E+03
      3.382  0.1107E-02  0.4036E+03
      3.477  0.3131E+01  0.4059E+03
      3.572  0.0000E+00  0.4067E+03
      3.666  0.0000E+00  0.4077E+03
      3.761  0.0000E+00  0.4083E+03
      3.856  0.4485E+00  0.4091E+03
      3.950  0.3131E+01  0.4102E+03
      4.045  0.4671E+00  0.4109E+03
      4.140  0.3980E-01  0.4135E+03
      4.234  0.3898E+01  0.4156E+03
      4.329  0.4696E+01  0.4178E+03
      4.423  0.2783E+01  0.4207E+03
      4.518  0.0000E+00  0.4227E+03
      4.613  0.0000E+00  0.4239E+03
      4.707  0.0000E+00  0.4240E+03
      4.802  0.0000E+00  0.4240E+03
      4.897  0.0000E+00  0.4240E+03
      4.991  0.0000E+00  0.4240E+03
      5.086  0.0000E+00  0.4241E+03
      5.181  0.1565E+01  0.4245E+03
      5.275  0.0000E+00  0.4263E+03
      5.370  0.7587E+00  0.4285E+03
      5.464  0.0000E+00  0.4319E+03
      5.559  0.6176E-02  0.4356E+03
      5.654  0.4696E+01  0.4388E+03
      5.748  0.0000E+00  0.4406E+03
      5.843  0.2348E+01  0.4426E+03
      5.938  0.2330E+01  0.4451E+03
      6.032  0.2213E+01  0.4484E+03
      6.127  0.0000E+00  0.4524E+03
      6.222  0.7044E+01  0.4570E+03
      6.316  0.1565E+01  0.4604E+03
      6.411  0.1565E+01  0.4635E+03
      6.505  0.8760E+01  0.4691E+03
      6.600  0.6835E-10  0.4734E+03
      6.695  0.4009E+01  0.4779E+03
      6.789  0.1145E+01  0.4809E+03
      6.884  0.1565E+01  0.4853E+03
      6.979  0.1358E+01  0.4885E+03
      7.073  0.4698E+01  0.4915E+03
      7.168  0.4681E+01  0.4973E+03
      7.263  0.4460E+01  0.5020E+03
      7.357  0.6630E+01  0.5054E+03
      7.452  0.2585E-02  0.5095E+03
      7.546  0.1565E+01  0.5119E+03
      7.641  0.0000E+00  0.5120E+03
      7.736  0.0000E+00  0.5120E+03
      7.830  0.0000E+00  0.5120E+03
      7.925  0.0000E+00  0.5120E+03
      8.020  0.0000E+00  0.5120E+03
      8.114  0.0000E+00  0.5120E+03
      8.209  0.0000E+00  0.5120E+03
      8.304  0.0000E+00  0.5120E+03
      8.398  0.0000E+00  0.5120E+03
      8.493  0.0000E+00  0.5120E+03
      8.587  0.0000E+00  0.5120E+03
      8.682  0.0000E+00  0.5120E+03
      8.777  0.0000E+00  0.5120E+03
      8.871  0.0000E+00  0.5120E+03
