  96  96   0   0
  0.2080188E+02  0.1257760E-08  0.1245754E-08  0.1274818E-08  0.5000000E-15
  1.000000000000000E-004
  CAR 
 MAPbI3-Cubic                            
     10.62482352    -19.49862283  301      1.51248100      1.00000000
    -19.499  0.0000E+00  0.0000E+00
    -19.398  0.0000E+00  0.0000E+00
    -19.298  0.0000E+00  0.0000E+00
    -19.197  0.0000E+00  0.0000E+00
    -19.097  0.0000E+00  0.0000E+00
    -18.997  0.0000E+00  0.0000E+00
    -18.896  0.0000E+00  0.0000E+00
    -18.796  0.0000E+00  0.0000E+00
    -18.695  0.0000E+00  0.0000E+00
    -18.595  0.0000E+00  0.0000E+00
    -18.495  0.0000E+00  0.0000E+00
    -18.394  0.0000E+00  0.0000E+00
    -18.294  0.0000E+00  0.0000E+00
    -18.193  0.0000E+00  0.0000E+00
    -18.093  0.0000E+00  0.1600E+02
    -17.992  0.0000E+00  0.1600E+02
    -17.892  0.0000E+00  0.1600E+02
    -17.792  0.0000E+00  0.1600E+02
    -17.691  0.0000E+00  0.1600E+02
    -17.591  0.0000E+00  0.1600E+02
    -17.490  0.0000E+00  0.1600E+02
    -17.390  0.0000E+00  0.1600E+02
    -17.290  0.0000E+00  0.1600E+02
    -17.189  0.0000E+00  0.1600E+02
    -17.089  0.0000E+00  0.1600E+02
    -16.988  0.0000E+00  0.1600E+02
    -16.888  0.0000E+00  0.1600E+02
    -16.788  0.0000E+00  0.1600E+02
    -16.687  0.0000E+00  0.1600E+02
    -16.587  0.0000E+00  0.1600E+02
    -16.486  0.0000E+00  0.1600E+02
    -16.386  0.0000E+00  0.4800E+02
    -16.285  0.0000E+00  0.4800E+02
    -16.185  0.0000E+00  0.4800E+02
    -16.085  0.0000E+00  0.4800E+02
    -15.984  0.0000E+00  0.4800E+02
    -15.884  0.0000E+00  0.4800E+02
    -15.783  0.0000E+00  0.4800E+02
    -15.683  0.0000E+00  0.4800E+02
    -15.583  0.0000E+00  0.4800E+02
    -15.482  0.0000E+00  0.4800E+02
    -15.382  0.0000E+00  0.4800E+02
    -15.281  0.0000E+00  0.4800E+02
    -15.181  0.0000E+00  0.4800E+02
    -15.081  0.0000E+00  0.4800E+02
    -14.980  0.0000E+00  0.4800E+02
    -14.880  0.0000E+00  0.4800E+02
    -14.779  0.0000E+00  0.4800E+02
    -14.679  0.0000E+00  0.4800E+02
    -14.578  0.0000E+00  0.4800E+02
    -14.478  0.0000E+00  0.4800E+02
    -14.378  0.0000E+00  0.4800E+02
    -14.277  0.0000E+00  0.4800E+02
    -14.177  0.0000E+00  0.4800E+02
    -14.076  0.0000E+00  0.4800E+02
    -13.976  0.0000E+00  0.4800E+02
    -13.876  0.2525E+01  0.8025E+02
    -13.775  0.0000E+00  0.9600E+02
    -13.675  0.0000E+00  0.9600E+02
    -13.574  0.0000E+00  0.9600E+02
    -13.474  0.0000E+00  0.9600E+02
    -13.374  0.0000E+00  0.9600E+02
    -13.273  0.0000E+00  0.9600E+02
    -13.173  0.0000E+00  0.9600E+02
    -13.072  0.0000E+00  0.9600E+02
    -12.972  0.0000E+00  0.9600E+02
    -12.871  0.0000E+00  0.9600E+02
    -12.771  0.0000E+00  0.9600E+02
    -12.671  0.0000E+00  0.9600E+02
    -12.570  0.0000E+00  0.9600E+02
    -12.470  0.0000E+00  0.9600E+02
    -12.369  0.0000E+00  0.9600E+02
    -12.269  0.0000E+00  0.9600E+02
    -12.169  0.0000E+00  0.9600E+02
    -12.068  0.0000E+00  0.9600E+02
    -11.968  0.0000E+00  0.9600E+02
    -11.867  0.0000E+00  0.9600E+02
    -11.767  0.0000E+00  0.9600E+02
    -11.667  0.0000E+00  0.9600E+02
    -11.566  0.0000E+00  0.9600E+02
    -11.466  0.0000E+00  0.9600E+02
    -11.365  0.0000E+00  0.9600E+02
    -11.265  0.0000E+00  0.1040E+03
    -11.164  0.0000E+00  0.1120E+03
    -11.064  0.0000E+00  0.1120E+03
    -10.964  0.0000E+00  0.1120E+03
    -10.863  0.0000E+00  0.1120E+03
    -10.763  0.0000E+00  0.1125E+03
    -10.662  0.7227E-01  0.1150E+03
    -10.562  0.7709E+01  0.1214E+03
    -10.462  0.0000E+00  0.1280E+03
    -10.361  0.2529E+01  0.1297E+03
    -10.261  0.2154E+00  0.1369E+03
    -10.160  0.1017E+02  0.1432E+03
    -10.060  0.1089E+02  0.1511E+03
     -9.960  0.5234E+01  0.1594E+03
     -9.859  0.0000E+00  0.1600E+03
     -9.759  0.0000E+00  0.1600E+03
     -9.658  0.0000E+00  0.1600E+03
     -9.558  0.0000E+00  0.1600E+03
     -9.457  0.0000E+00  0.1600E+03
     -9.357  0.0000E+00  0.1600E+03
     -9.257  0.0000E+00  0.1600E+03
     -9.156  0.0000E+00  0.1600E+03
     -9.056  0.0000E+00  0.1600E+03
     -8.955  0.0000E+00  0.1600E+03
     -8.855  0.0000E+00  0.1600E+03
     -8.755  0.0000E+00  0.1600E+03
     -8.654  0.0000E+00  0.1600E+03
     -8.554  0.0000E+00  0.1600E+03
     -8.453  0.0000E+00  0.1600E+03
     -8.353  0.0000E+00  0.1600E+03
     -8.253  0.0000E+00  0.1600E+03
     -8.152  0.0000E+00  0.1600E+03
     -8.052  0.0000E+00  0.1600E+03
     -7.951  0.0000E+00  0.1600E+03
     -7.851  0.0000E+00  0.1600E+03
     -7.750  0.0000E+00  0.1600E+03
     -7.650  0.1397E+02  0.1627E+03
     -7.550  0.5159E+01  0.1840E+03
     -7.449  0.0000E+00  0.1920E+03
     -7.349  0.0000E+00  0.1920E+03
     -7.248  0.0000E+00  0.1920E+03
     -7.148  0.0000E+00  0.1920E+03
     -7.048  0.0000E+00  0.1920E+03
     -6.947  0.0000E+00  0.1920E+03
     -6.847  0.0000E+00  0.1921E+03
     -6.746  0.0000E+00  0.1925E+03
     -6.646  0.0000E+00  0.1934E+03
     -6.546  0.7131E+00  0.1942E+03
     -6.445  0.2117E+01  0.1947E+03
     -6.345  0.1638E-15  0.1964E+03
     -6.244  0.0000E+00  0.1991E+03
     -6.144  0.1370E+01  0.2009E+03
     -6.043  0.7377E+00  0.2030E+03
     -5.943  0.1156E+01  0.2042E+03
     -5.843  0.2907E+00  0.2062E+03
     -5.742  0.2667E+01  0.2146E+03
     -5.642  0.1725E+02  0.2192E+03
     -5.541  0.0000E+00  0.2235E+03
     -5.441  0.0000E+00  0.2239E+03
     -5.341  0.7377E+00  0.2240E+03
     -5.240  0.0000E+00  0.2240E+03
     -5.140  0.0000E+00  0.2240E+03
     -5.039  0.0000E+00  0.2240E+03
     -4.939  0.0000E+00  0.2240E+03
     -4.839  0.0000E+00  0.2240E+03
     -4.738  0.0000E+00  0.2240E+03
     -4.638  0.0000E+00  0.2240E+03
     -4.537  0.0000E+00  0.2240E+03
     -4.437  0.0000E+00  0.2240E+03
     -4.336  0.0000E+00  0.2240E+03
     -4.236  0.0000E+00  0.2240E+03
     -4.136  0.0000E+00  0.2240E+03
     -4.035  0.0000E+00  0.2240E+03
     -3.935  0.0000E+00  0.2240E+03
     -3.834  0.0000E+00  0.2240E+03
     -3.734  0.0000E+00  0.2240E+03
     -3.634  0.0000E+00  0.2240E+03
     -3.533  0.3414E+02  0.2371E+03
     -3.433  0.0000E+00  0.2560E+03
     -3.332  0.0000E+00  0.2560E+03
     -3.232  0.0000E+00  0.2560E+03
     -3.132  0.0000E+00  0.2560E+03
     -3.031  0.0000E+00  0.2560E+03
     -2.931  0.0000E+00  0.2560E+03
     -2.830  0.0000E+00  0.2560E+03
     -2.730  0.0000E+00  0.2560E+03
     -2.629  0.0000E+00  0.2560E+03
     -2.529  0.0000E+00  0.2560E+03
     -2.429  0.0000E+00  0.2560E+03
     -2.328  0.0000E+00  0.2560E+03
     -2.228  0.0000E+00  0.2560E+03
     -2.127  0.2394E+01  0.2571E+03
     -2.027  0.7953E+00  0.2596E+03
     -1.927  0.3674E+01  0.2625E+03
     -1.826  0.3689E+01  0.2654E+03
     -1.726  0.4430E+01  0.2689E+03
     -1.625  0.1607E+01  0.2726E+03
     -1.525  0.1094E+01  0.2764E+03
     -1.425  0.7701E+00  0.2793E+03
     -1.324  0.0000E+00  0.2800E+03
     -1.224  0.7378E+00  0.2808E+03
     -1.123  0.4427E+01  0.2852E+03
     -1.023  0.2229E+01  0.2884E+03
     -0.922  0.4143E+01  0.2940E+03
     -0.822  0.2231E+01  0.2975E+03
     -0.722  0.2521E+00  0.3014E+03
     -0.621  0.5902E+01  0.3041E+03
     -0.521  0.2240E+01  0.3084E+03
     -0.420  0.4483E+01  0.3149E+03
     -0.320  0.4108E+01  0.3194E+03
     -0.220  0.3956E+01  0.3241E+03
     -0.119  0.6757E+01  0.3304E+03
     -0.019  0.7587E+01  0.3387E+03
      0.082  0.5741E+01  0.3465E+03
      0.182  0.3401E+01  0.3520E+03
      0.282  0.1426E+01  0.3567E+03
      0.383  0.1622E+01  0.3610E+03
      0.483  0.2213E+01  0.3670E+03
      0.584  0.7952E+01  0.3744E+03
      0.684  0.3875E+01  0.3812E+03
      0.784  0.5220E+01  0.3889E+03
      0.885  0.2951E+01  0.3942E+03
      0.985  0.3578E-02  0.3966E+03
      1.086  0.1562E+01  0.3982E+03
      1.186  0.0000E+00  0.3993E+03
      1.287  0.1475E+01  0.3998E+03
      1.387  0.0000E+00  0.3999E+03
      1.487  0.0000E+00  0.4000E+03
      1.588  0.0000E+00  0.4000E+03
      1.688  0.0000E+00  0.4000E+03
      1.789  0.0000E+00  0.4000E+03
      1.889  0.0000E+00  0.4000E+03
      1.989  0.0000E+00  0.4000E+03
      2.090  0.0000E+00  0.4000E+03
      2.190  0.0000E+00  0.4001E+03
      2.291  0.0000E+00  0.4001E+03
      2.391  0.2397E-03  0.4002E+03
      2.491  0.1475E+01  0.4004E+03
      2.592  0.0000E+00  0.4005E+03
      2.692  0.0000E+00  0.4010E+03
      2.793  0.0000E+00  0.4016E+03
      2.893  0.0000E+00  0.4021E+03
      2.994  0.1476E+01  0.4025E+03
      3.094  0.0000E+00  0.4034E+03
      3.194  0.0000E+00  0.4044E+03
      3.295  0.0000E+00  0.4050E+03
      3.395  0.1016E+00  0.4061E+03
      3.496  0.1001E+01  0.4077E+03
      3.596  0.4095E-16  0.4085E+03
      3.696  0.0000E+00  0.4093E+03
      3.797  0.8804E-11  0.4103E+03
      3.897  0.1834E+01  0.4117E+03
      3.998  0.1475E+01  0.4133E+03
      4.098  0.7377E+00  0.4140E+03
      4.198  0.1475E+01  0.4163E+03
      4.299  0.2960E+01  0.4180E+03
      4.399  0.9728E+00  0.4198E+03
      4.500  0.7377E+00  0.4210E+03
      4.600  0.1474E+01  0.4221E+03
      4.701  0.1478E+01  0.4230E+03
      4.801  0.1475E+01  0.4239E+03
      4.901  0.1475E+01  0.4247E+03
      5.002  0.8601E-07  0.4250E+03
      5.102  0.3688E+01  0.4261E+03
      5.203  0.2872E-10  0.4271E+03
      5.303  0.2321E+01  0.4283E+03
      5.403  0.2232E+01  0.4318E+03
      5.504  0.1475E+01  0.4344E+03
      5.604  0.1884E+01  0.4370E+03
      5.705  0.3684E+01  0.4393E+03
      5.805  0.3299E+01  0.4417E+03
      5.905  0.1664E+01  0.4441E+03
      6.006  0.1680E+01  0.4474E+03
      6.106  0.3167E+01  0.4506E+03
      6.207  0.4211E+01  0.4548E+03
      6.307  0.1350E+01  0.4590E+03
      6.408  0.8278E+00  0.4622E+03
      6.508  0.4049E+01  0.4672E+03
      6.608  0.3654E+01  0.4730E+03
      6.709  0.1497E+01  0.4776E+03
      6.809  0.1528E+01  0.4820E+03
      6.910  0.7237E+00  0.4864E+03
      7.010  0.1006E+01  0.4889E+03
      7.110  0.4243E+01  0.4931E+03
      7.211  0.1411E+01  0.4999E+03
      7.311  0.5280E+00  0.5038E+03
      7.412  0.3639E+01  0.5090E+03
      7.512  0.7407E+00  0.5130E+03
      7.612  0.4196E+01  0.5172E+03
      7.713  0.2892E+01  0.5225E+03
      7.813  0.2947E+01  0.5279E+03
      7.914  0.5370E+01  0.5332E+03
      8.014  0.1483E+01  0.5387E+03
      8.115  0.4425E+01  0.5450E+03
      8.215  0.4466E+01  0.5487E+03
      8.315  0.2195E+01  0.5544E+03
      8.416  0.4674E+01  0.5597E+03
      8.516  0.8770E+01  0.5661E+03
      8.617  0.3734E+01  0.5719E+03
      8.717  0.4419E+01  0.5777E+03
      8.817  0.3191E+01  0.5836E+03
      8.918  0.1953E+01  0.5903E+03
      9.018  0.2834E+01  0.5952E+03
      9.119  0.2002E+01  0.5981E+03
      9.219  0.3689E+00  0.5997E+03
      9.319  0.0000E+00  0.6000E+03
      9.420  0.0000E+00  0.6000E+03
      9.520  0.0000E+00  0.6000E+03
      9.621  0.0000E+00  0.6000E+03
      9.721  0.0000E+00  0.6000E+03
      9.822  0.0000E+00  0.6000E+03
      9.922  0.0000E+00  0.6000E+03
     10.022  0.0000E+00  0.6000E+03
     10.123  0.0000E+00  0.6000E+03
     10.223  0.0000E+00  0.6000E+03
     10.324  0.0000E+00  0.6000E+03
     10.424  0.0000E+00  0.6000E+03
     10.524  0.0000E+00  0.6000E+03
     10.625  0.0000E+00  0.6000E+03
