       N       E                     dE             d eps       ncg     rms          rms(c)
DAV:   1     0.421719124110E+04    0.42172E+04   -0.19280E+05 32544   0.146E+03
DAV:   2     0.841359190080E+03   -0.33758E+04   -0.31267E+04 35560   0.321E+02
DAV:   3     0.232277690595E+03   -0.60908E+03   -0.58893E+03 44008   0.156E+02
DAV:   4     0.186535036914E+03   -0.45743E+02   -0.44655E+02 44240   0.438E+01
DAV:   5     0.184404396332E+03   -0.21306E+01   -0.21224E+01 50144   0.984E+00    0.974E+01
DAV:   6     0.547830958888E+02   -0.12962E+03   -0.15057E+03 37216   0.507E+01    0.489E+01
DAV:   7    -0.938287492518E+02   -0.14861E+03   -0.16132E+02 39056   0.221E+01    0.284E+01
DAV:   8    -0.201012967105E+03   -0.10718E+03   -0.65200E+01 37720   0.130E+01    0.185E+01
DAV:   9    -0.331572243415E+03   -0.13056E+03   -0.11944E+02 36520   0.161E+01    0.926E+00
DAV:  10    -0.380740940689E+03   -0.49169E+02   -0.48661E+01 37408   0.105E+01    0.662E+00
DAV:  11    -0.410543371259E+03   -0.29802E+02   -0.41307E+01 37664   0.843E+00    0.375E+00
DAV:  12    -0.421108695806E+03   -0.10565E+02   -0.16389E+01 41448   0.538E+00    0.254E+00
DAV:  13    -0.422775406880E+03   -0.16667E+01   -0.24524E+00 39960   0.253E+00    0.206E+00
DAV:  14    -0.423384230453E+03   -0.60882E+00   -0.88400E-01 38856   0.135E+00    0.111E+00
DAV:  15    -0.423448006633E+03   -0.63776E-01   -0.17145E-01 42432   0.705E-01    0.637E-01
DAV:  16    -0.423455100517E+03   -0.70939E-02   -0.25024E-02 41920   0.300E-01    0.413E-01
DAV:  17    -0.423458560798E+03   -0.34603E-02   -0.90433E-03 39320   0.165E-01    0.218E-01
DAV:  18    -0.423460156361E+03   -0.15956E-02   -0.30059E-03 40024   0.940E-02    0.839E-02
DAV:  19    -0.423460592123E+03   -0.43576E-03   -0.69063E-04 39856   0.508E-02    0.448E-02
DAV:  20    -0.423460889158E+03   -0.29703E-03   -0.21784E-04 37320   0.290E-02    0.235E-02
DAV:  21    -0.423461016518E+03   -0.12736E-03   -0.12624E-04 39632   0.188E-02    0.153E-02
DAV:  22    -0.423461025635E+03   -0.91179E-05   -0.19772E-05 43944   0.880E-03    0.108E-02
DAV:  23    -0.423461028299E+03   -0.26634E-05   -0.69346E-06 40744   0.431E-03    0.414E-03
DAV:  24    -0.423461030408E+03   -0.21096E-05   -0.25592E-06 35328   0.296E-03    0.170E-03
DAV:  25    -0.423461030486E+03   -0.77751E-07   -0.65750E-07 41560   0.142E-03    0.137E-03
DAV:  26    -0.423461030485E+03    0.15425E-08   -0.11805E-07 43000   0.778E-04    0.967E-04
DAV:  27    -0.423461030398E+03    0.86766E-07   -0.43326E-08 34704   0.473E-04    0.368E-04
DAV:  28    -0.423461030319E+03    0.79108E-07   -0.21071E-08 32312   0.287E-04    0.288E-04
DAV:  29    -0.423461030315E+03    0.42019E-08   -0.30550E-09 29632   0.155E-04
   1 F= -.42346103E+03 E0= -.42346103E+03  d E =0.000000E+00  mag=     0.0000     0.0000     0.0000
