 vasp.5.4.1 24Jun15 (build Nov 25 2015 16:39:35) complex                        
  
 executed on         CrayXC-Intel date 2016.06.22  00:47:58
 running on  192 total cores
 distrk:  each k-point on  192 cores,    1 groups
 distr:  one band on NCORES_PER_BAND=  24 cores,    8 groups


--------------------------------------------------------------------------------------------------------


 INCAR:
 POTCAR:    PAW_PBE C 08Apr2002                   
 POTCAR:    PAW_PBE N 08Apr2002                   
 POTCAR:    PAW_PBE H 15Jun2001                   
 POTCAR:    PAW_PBE Pb_d 06Sep2000                
 POTCAR:    PAW_PBE I 08Apr2002                   
 POTCAR:    PAW_PBE C 08Apr2002                   
   VRHFIN =C: s2p2                                                              
   LEXCH  = PE                                                                  
   EATOM  =   147.1560 eV,   10.8157 Ry                                         
                                                                                
   TITEL  = PAW_PBE C 08Apr2002                                                 
   LULTRA =        F    use ultrasoft PP ?                                      
   IUNSCR =        1    unscreen: 0-lin 1-nonlin 2-no                           
   RPACOR =    1.200    partial core radius                                     
   POMASS =   12.011; ZVAL   =    4.000    mass and valenz                      
   RCORE  =    1.500    outmost cutoff radius                                   
   RWIGS  =    1.630; RWIGS  =    0.863    wigner-seitz radius (au A)           
   ENMAX  =  400.000; ENMIN  =  300.000 eV                                      
   ICORE  =        2    local potential                                         
   LCOR   =        T    correct aug charges                                     
   LPAW   =        T    paw PP                                                  
   EAUG   =  644.873                                                            
   DEXC   =    0.000                                                            
   RMAX   =    1.529    core radius for proj-oper                               
   RAUG   =    1.300    factor for augmentation sphere                          
   RDEP   =    1.501    radius for radial grids                                 
   RDEPT  =    1.300    core radius for aug-charge                              
                                                                                
   Atomic configuration                                                         
    4 entries                                                                   
     n  l   j            E        occ.                                          
     1  0  0.50      -273.3789   2.0000                                         
     2  0  0.50       -13.7508   2.0000                                         
     2  1  0.50        -5.2854   2.0000                                         
     3  2  1.50        -5.4423   0.0000                                         
   Description                                                                  
     l       E           TYP  RCUT    TYP  RCUT                                 
     0    -13.7508458     23  1.200                                             
     0     -8.2022199     23  1.200                                             
     1     -5.2854383     23  1.500                                             
     1     34.0145650     23  1.500                                             
     2     -5.4423304      7  1.500                                             
  local pseudopotential read in
  partial core-charges read in
  partial kinetic energy density read in
  atomic valenz-charges read in
  non local Contribution for L=           0  read in
    real space projection operators read in
  non local Contribution for L=           0  read in
    real space projection operators read in
  non local Contribution for L=           1  read in
    real space projection operators read in
  non local Contribution for L=           1  read in
    real space projection operators read in
    PAW grid and wavefunctions read in
 
   number of l-projection  operators is LMAX  =           4
   number of lm-projection operators is LMMAX =           8
 
 POTCAR:    PAW_PBE N 08Apr2002                   
   VRHFIN =N: s2p3                                                              
   LEXCH  = PE                                                                  
   EATOM  =   264.5486 eV,   19.4438 Ry                                         
                                                                                
   TITEL  = PAW_PBE N 08Apr2002                                                 
   LULTRA =        F    use ultrasoft PP ?                                      
   IUNSCR =        1    unscreen: 0-lin 1-nonlin 2-no                           
   RPACOR =    1.200    partial core radius                                     
   POMASS =   14.001; ZVAL   =    5.000    mass and valenz                      
   RCORE  =    1.500    outmost cutoff radius                                   
   RWIGS  =    1.400; RWIGS  =    0.741    wigner-seitz radius (au A)           
   ENMAX  =  400.000; ENMIN  =  300.000 eV                                      
   ICORE  =        2    local potential                                         
   LCOR   =        T    correct aug charges                                     
   LPAW   =        T    paw PP                                                  
   EAUG   =  627.112                                                            
   DEXC   =    0.000                                                            
   RMAX   =    1.529    core radius for proj-oper                               
   RAUG   =    1.300    factor for augmentation sphere                          
   RDEP   =    1.514    radius for radial grids                                 
   RDEPT  =    1.338    core radius for aug-charge                              
                                                                                
   Atomic configuration                                                         
    4 entries                                                                   
     n  l   j            E        occ.                                          
     1  0  0.50      -384.7179   2.0000                                         
     2  0  0.50       -18.5828   2.0000                                         
     2  1  0.50        -7.0898   3.0000                                         
     3  2  1.50        -6.8029   0.0000                                         
   Description                                                                  
     l       E           TYP  RCUT    TYP  RCUT                                 
     0    -18.5828119     23  1.200                                             
     0    -13.5018863     23  1.200                                             
     1     -7.0897853     23  1.500                                             
     1      9.5240782     23  1.500                                             
     2     -6.8029130      7  1.500                                             
  local pseudopotential read in
  partial core-charges read in
  partial kinetic energy density read in
  atomic valenz-charges read in
  non local Contribution for L=           0  read in
    real space projection operators read in
  non local Contribution for L=           0  read in
    real space projection operators read in
  non local Contribution for L=           1  read in
    real space projection operators read in
  non local Contribution for L=           1  read in
    real space projection operators read in
    PAW grid and wavefunctions read in
 
   number of l-projection  operators is LMAX  =           4
   number of lm-projection operators is LMMAX =           8
 
 POTCAR:    PAW_PBE H 15Jun2001                   
   VRHFIN =H: ultrasoft test                                                    
   LEXCH  = PE                                                                  
   EATOM  =    12.4884 eV,    0.9179 Ry                                         
                                                                                
   TITEL  = PAW_PBE H 15Jun2001                                                 
   LULTRA =        F    use ultrasoft PP ?                                      
   IUNSCR =        0    unscreen: 0-lin 1-nonlin 2-no                           
   RPACOR =    0.000    partial core radius                                     
   POMASS =    1.000; ZVAL   =    1.000    mass and valenz                      
   RCORE  =    1.100    outmost cutoff radius                                   
   RWIGS  =    0.700; RWIGS  =    0.370    wigner-seitz radius (au A)           
   ENMAX  =  250.000; ENMIN  =  200.000 eV                                      
   RCLOC  =    0.701    cutoff for local pot                                    
   LCOR   =        T    correct aug charges                                     
   LPAW   =        T    paw PP                                                  
   EAUG   =  400.000                                                            
   RMAX   =    1.123    core radius for proj-oper                               
   RAUG   =    1.200    factor for augmentation sphere                          
   RDEP   =    1.112    radius for radial grids                                 
   RDEPT  =    0.926    core radius for aug-charge                              
                                                                                
   Atomic configuration                                                         
    2 entries                                                                   
     n  l   j            E        occ.                                          
     1  0  0.50        -6.4927   1.0000                                         
     2  1  0.50        -3.4015   0.0000                                         
   Description                                                                  
     l       E           TYP  RCUT    TYP  RCUT                                 
     0     -6.4927494     23  1.100                                             
     0      6.8029130     23  1.100                                             
     1     -4.0817478     23  1.100                                             
  local pseudopotential read in
  atomic valenz-charges read in
  non local Contribution for L=           0  read in
    real space projection operators read in
  non local Contribution for L=           0  read in
    real space projection operators read in
  non local Contribution for L=           1  read in
    real space projection operators read in
    PAW grid and wavefunctions read in
 
   number of l-projection  operators is LMAX  =           3
   number of lm-projection operators is LMMAX =           5
 
 POTCAR:    PAW_PBE Pb_d 06Sep2000                
   VRHFIN =Pb:                                                                  
   LEXCH  = PE                                                                  
   EATOM  =  1661.6185 eV,  122.1255 Ry                                         
                                                                                
   TITEL  = PAW_PBE Pb_d 06Sep2000                                              
   LULTRA =        F    use ultrasoft PP ?                                      
   IUNSCR =        1    unscreen: 0-lin 1-nonlin 2-no                           
   RPACOR =    2.200    partial core radius                                     
   POMASS =  207.200; ZVAL   =   14.000    mass and valenz                      
   RCORE  =    2.500    outmost cutoff radius                                   
   RWIGS  =    3.260; RWIGS  =    1.725    wigner-seitz radius (au A)           
   ENMAX  =  237.835; ENMIN  =  178.376 eV                                      
   ICORE  =        3    local potential                                         
   LCOR   =        T    correct aug charges                                     
   LPAW   =        T    paw PP                                                  
   EAUG   =  391.914                                                            
   DEXC   =    0.000                                                            
   RMAX   =    2.565    core radius for proj-oper                               
   RAUG   =    1.300    factor for augmentation sphere                          
   RDEP   =    2.643    radius for radial grids                                 
   RDEPT  =    2.092    core radius for aug-charge                              
                                                                                
   Atomic configuration                                                         
   16 entries                                                                   
     n  l   j            E        occ.                                          
     1  0  0.50    -88091.8466   2.0000                                         
     2  0  0.50    -15753.4197   2.0000                                         
     2  1  1.50    -13508.1797   6.0000                                         
     3  0  0.50     -3781.7194   2.0000                                         
     3  1  1.50     -3138.2529   6.0000                                         
     3  2  2.50     -2483.2977  10.0000                                         
     4  0  0.50      -856.2895   2.0000                                         
     4  1  1.50      -645.4942   6.0000                                         
     4  2  2.50      -401.8768  10.0000                                         
     4  3  3.50      -132.9059  14.0000                                         
     5  0  0.50      -144.0950   2.0000                                         
     5  1  1.50       -85.7879   6.0000                                         
     5  2  2.50       -21.1769  10.0000                                         
     6  0  0.50       -12.0372   2.0000                                         
     6  1  1.50        -3.4971   2.0000                                         
     5  3  2.50        -2.7212   0.0000                                         
   Description                                                                  
     l       E           TYP  RCUT    TYP  RCUT                                 
     2    -21.1768523     23  2.500                                             
     2      1.3605826     23  2.500                                             
     0    -12.0371562     23  2.500                                             
     0     13.6058260     23  2.500                                             
     1     -3.4971339     23  2.500                                             
     1     13.6058260     23  2.500                                             
     3     -1.3605826      7  2.500                                             
  local pseudopotential read in
  partial core-charges read in
  partial kinetic energy density read in
  atomic valenz-charges read in
  non local Contribution for L=           2  read in
    real space projection operators read in
  non local Contribution for L=           2  read in
    real space projection operators read in
  non local Contribution for L=           0  read in
    real space projection operators read in
  non local Contribution for L=           0  read in
    real space projection operators read in
  non local Contribution for L=           1  read in
    real space projection operators read in
  non local Contribution for L=           1  read in
    real space projection operators read in
    PAW grid and wavefunctions read in
 
   number of l-projection  operators is LMAX  =           6
   number of lm-projection operators is LMMAX =          18
 
 POTCAR:    PAW_PBE I 08Apr2002                   
   VRHFIN =I : s2p5                                                             
   LEXCH  = PE                                                                  
   EATOM  =   315.8678 eV,   23.2156 Ry                                         
                                                                                
   TITEL  = PAW_PBE I 08Apr2002                                                 
   LULTRA =        F    use ultrasoft PP ?                                      
   IUNSCR =        1    unscreen: 0-lin 1-nonlin 2-no                           
   RPACOR =    2.200    partial core radius                                     
   POMASS =  126.904; ZVAL   =    7.000    mass and valenz                      
   RCORE  =    2.300    outmost cutoff radius                                   
   RWIGS  =    2.810; RWIGS  =    1.487    wigner-seitz radius (au A)           
   ENMAX  =  175.647; ENMIN  =  131.735 eV                                      
   ICORE  =        3    local potential                                         
   LCOR   =        T    correct aug charges                                     
   LPAW   =        T    paw PP                                                  
   EAUG   =  370.139                                                            
   DEXC   =    0.000                                                            
   RMAX   =    2.359    core radius for proj-oper                               
   RAUG   =    1.300    factor for augmentation sphere                          
   RDEP   =    2.392    radius for radial grids                                 
   RDEPT  =    2.170    core radius for aug-charge                              
                                                                                
   Atomic configuration                                                         
   13 entries                                                                   
     n  l   j            E        occ.                                          
     1  0  0.50    -32976.3739   2.0000                                         
     2  0  0.50     -5094.5933   2.0000                                         
     2  1  1.50     -4572.0131   6.0000                                         
     3  0  0.50     -1028.2813   2.0000                                         
     3  1  1.50      -859.0250   6.0000                                         
     3  2  2.50      -605.7620  10.0000                                         
     4  0  0.50      -180.5540   2.0000                                         
     4  1  1.50      -127.5306   6.0000                                         
     4  2  2.50       -50.2720  10.0000                                         
     5  0  0.50       -17.4058   2.0000                                         
     5  1  0.50        -7.0851   5.0000                                         
     5  2  1.50        -7.0750   0.0000                                         
     4  3  2.50        -7.0750   0.0000                                         
   Description                                                                  
     l       E           TYP  RCUT    TYP  RCUT                                 
     0    -17.4058016     23  2.300                                             
     0    -18.7663842     23  2.300                                             
     1     -7.0850686     23  2.300                                             
     1     -4.2150896     23  2.300                                             
     2     -7.0750295     23  2.300                                             
     3     -1.3605826     23  2.300                                             
  local pseudopotential read in
  partial core-charges read in
  partial kinetic energy density read in
  atomic valenz-charges read in
  non local Contribution for L=           0  read in
    real space projection operators read in
  non local Contribution for L=           0  read in
    real space projection operators read in
  non local Contribution for L=           1  read in
    real space projection operators read in
  non local Contribution for L=           1  read in
    real space projection operators read in
  non local Contribution for L=           2  read in
    real space projection operators read in
    PAW grid and wavefunctions read in
 
   number of l-projection  operators is LMAX  =           5
   number of lm-projection operators is LMMAX =          13
 

 ----------------------------------------------------------------------------- 
|                                                                             |
|  ADVICE TO THIS USER RUNNING 'VASP/VAMP'   (HEAR YOUR MASTER'S VOICE ...):  |
|                                                                             |
|      You have a (more or less) 'large supercell' and for larger cells       |
|      it might be more efficient to use real space projection opertators     |
|      So try LREAL= Auto  in the INCAR   file.                               |
|      Mind: At the moment your POTCAR file does not contain real space       |
|       projectors, and has to be modified,  BUT if you                       |
|      want to do an extremely  accurate calculation you might also keep the  |
|      reciprocal projection scheme          (i.e. LREAL=.FALSE.)             |
|                                                                             |
 ----------------------------------------------------------------------------- 


 ----------------------------------------------------------------------------- 
|                                                                             |
|  ADVICE TO THIS USER RUNNING 'VASP/VAMP'   (HEAR YOUR MASTER'S VOICE ...):  |
|                                                                             |
|      You enforced a specific xc-type in the INCAR file,                     |
|      a different type was found on the POTCAR file                          |
|          I HOPE YOU KNOW, WHAT YOU ARE  DOING                               |
|                                                                             |
 ----------------------------------------------------------------------------- 

  PAW_PBE C 08Apr2002                   :
 energy of atom  1       EATOM= -147.1560
 kinetic energy error for atom=    0.0032 (will be added to EATOM!!)
  PAW_PBE N 08Apr2002                   :
 energy of atom  2       EATOM= -264.5486
 kinetic energy error for atom=    0.0061 (will be added to EATOM!!)
  PAW_PBE H 15Jun2001                   :
 energy of atom  3       EATOM=  -12.4884
 kinetic energy error for atom=    0.0002 (will be added to EATOM!!)
  PAW_PBE Pb_d 06Sep2000                :
 energy of atom  4       EATOM=-1661.6185
 kinetic energy error for atom=    0.0012 (will be added to EATOM!!)
  PAW_PBE I 08Apr2002                   :
 energy of atom  5       EATOM= -315.8678
 kinetic energy error for atom=    0.0003 (will be added to EATOM!!)
 
 
 POSCAR: C N H Pb I                              
  positions in direct lattice
  No initial velocities read in
 exchange correlation table for  LEXCH =       14
   RHO(1)=    0.500       N(1)  =     2000
   RHO(2)=  100.500       N(2)  =     4000
 


--------------------------------------------------------------------------------------------------------


 ion  position               nearest neighbor table
   1  0.198  0.250  0.229-  25 1.10  33 1.10  17 1.11   9 1.50
   2  0.696  0.250  0.229-  26 1.10  34 1.10  18 1.11  10 1.50
   3  0.196  0.750  0.229-  27 1.10  35 1.10  19 1.11  11 1.50
   4  0.698  0.750  0.229-  28 1.10  36 1.10  20 1.11  12 1.50
   5  0.196  0.250  0.729-  29 1.10  37 1.10  21 1.11  13 1.50
   6  0.698  0.250  0.729-  30 1.10  38 1.10  22 1.11  14 1.50
   7  0.198  0.750  0.729-  31 1.10  39 1.10  23 1.11  15 1.50
   8  0.696  0.750  0.729-  32 1.10  40 1.10  24 1.11  16 1.50
   9  0.312  0.250  0.258-  41 1.05  49 1.05  57 1.06   1 1.50
  10  0.797  0.250  0.290-  58 1.05  42 1.05  50 1.05   2 1.50
  11  0.297  0.750  0.290-  59 1.05  43 1.05  51 1.05   3 1.50
  12  0.812  0.750  0.258-  44 1.05  52 1.05  60 1.06   4 1.50
  13  0.297  0.250  0.790-  61 1.05  45 1.05  53 1.05   5 1.50
  14  0.812  0.250  0.758-  46 1.05  54 1.05  62 1.06   6 1.50
  15  0.312  0.750  0.758-  47 1.05  55 1.05  63 1.06   7 1.50
  16  0.797  0.750  0.790-  64 1.05  48 1.05  56 1.05   8 1.50
  17  0.193  0.250  0.142-   1 1.11
  18  0.717  0.250  0.144-   2 1.11
  19  0.217  0.750  0.144-   3 1.11
  20  0.693  0.750  0.142-   4 1.11
  21  0.217  0.250  0.644-   5 1.11
  22  0.693  0.250  0.642-   6 1.11
  23  0.193  0.750  0.642-   7 1.11
  24  0.717  0.750  0.644-   8 1.11
  25  0.159  0.322  0.261-   1 1.10
  26  0.650  0.323  0.250-   2 1.10
  27  0.150  0.823  0.250-   3 1.10
  28  0.659  0.822  0.261-   4 1.10
  29  0.150  0.323  0.750-   5 1.10
  30  0.659  0.322  0.761-   6 1.10
  31  0.159  0.822  0.761-   7 1.10
  32  0.650  0.823  0.750-   8 1.10
  33  0.159  0.177  0.261-   1 1.10
  34  0.650  0.177  0.250-   2 1.10
  35  0.150  0.677  0.250-   3 1.10
  36  0.659  0.677  0.261-   4 1.10
  37  0.150  0.177  0.750-   5 1.10
  38  0.659  0.177  0.761-   6 1.10
  39  0.159  0.677  0.761-   7 1.10
  40  0.650  0.677  0.750-   8 1.10
  41  0.353  0.318  0.229-   9 1.05
  42  0.843  0.318  0.273-  10 1.05
  43  0.343  0.818  0.273-  11 1.05
  44  0.853  0.818  0.229-  12 1.05
  45  0.343  0.318  0.773-  13 1.05
  46  0.853  0.318  0.729-  14 1.05
  47  0.353  0.818  0.729-  15 1.05
  48  0.843  0.818  0.773-  16 1.05
  49  0.353  0.182  0.229-   9 1.05
  50  0.843  0.182  0.273-  10 1.05
  51  0.343  0.682  0.273-  11 1.05
  52  0.853  0.682  0.229-  12 1.05
  53  0.343  0.182  0.773-  13 1.05
  54  0.853  0.182  0.729-  14 1.05
  55  0.353  0.682  0.729-  15 1.05
  56  0.843  0.682  0.773-  16 1.05
  57  0.324  0.250  0.340-   9 1.06
  58  0.782  0.250  0.371-  10 1.05
  59  0.282  0.750  0.371-  11 1.05
  60  0.824  0.750  0.340-  12 1.06
  61  0.282  0.250  0.871-  13 1.05
  62  0.824  0.250  0.840-  14 1.06
  63  0.324  0.750  0.840-  15 1.06
  64  0.782  0.750  0.871-  16 1.05
  65  0.472  0.498  0.489-  90 3.11  87 3.15  77 3.17  85 3.18  73 3.22  89 3.29
  66  0.972  0.502  0.489-  89 3.11  86 3.16  78 3.17  88 3.18  74 3.22  90 3.29
  67  0.472  0.002  0.489-  92 3.11  87 3.16  79 3.17  85 3.18  75 3.22  91 3.29
  68  0.972  0.998  0.489-  91 3.11  86 3.15  80 3.17  88 3.18  76 3.22  92 3.29
  69  0.472  0.502  0.989-  94 3.11  81 3.16  73 3.17  83 3.18  77 3.22  93 3.29
  70  0.972  0.498  0.989-  93 3.11  84 3.15  74 3.17  82 3.18  78 3.22  94 3.29
  71  0.472  0.998  0.989-  96 3.11  81 3.15  75 3.17  83 3.18  79 3.22  95 3.29
  72  0.972  0.002  0.989-  95 3.11  84 3.16  76 3.17  82 3.18  80 3.22  96 3.29
  73  0.455  0.504  0.238-  69 3.17  65 3.22
  74  0.955  0.496  0.238-  70 3.17  66 3.22
  75  0.455  0.996  0.238-  71 3.17  67 3.22
  76  0.955  0.004  0.238-  72 3.17  68 3.22
  77  0.455  0.496  0.738-  65 3.17  69 3.22
  78  0.955  0.504  0.738-  66 3.17  70 3.22
  79  0.455  0.004  0.738-  67 3.17  71 3.22
  80  0.955  0.996  0.738-  68 3.17  72 3.22
  81  0.482  0.250  0.010-  71 3.15  69 3.16
  82  0.917  0.250  0.013-  72 3.18  70 3.18
  83  0.417  0.750  0.013-  69 3.18  71 3.18
  84  0.982  0.750  0.010-  70 3.15  72 3.16
  85  0.417  0.250  0.513-  67 3.18  65 3.18
  86  0.982  0.250  0.510-  68 3.15  66 3.16
  87  0.482  0.750  0.510-  65 3.15  67 3.16
  88  0.917  0.750  0.513-  66 3.18  68 3.18
  89  0.216  0.537  0.461-  66 3.11  65 3.29
  90  0.716  0.463  0.461-  65 3.11  66 3.29
  91  0.216  0.963  0.461-  68 3.11  67 3.29
  92  0.716  0.037  0.461-  67 3.11  68 3.29
  93  0.216  0.463  0.961-  70 3.11  69 3.29
  94  0.716  0.537  0.961-  69 3.11  70 3.29
  95  0.216  0.037  0.961-  72 3.11  71 3.29
  96  0.716  0.963  0.961-  71 3.11  72 3.29
 
  LATTYP: Found a triclinic cell.
 ALAT       =    17.8238589327
 B/A-ratio  =     0.6989248630
 C/A-ratio  =     1.0156975818
 COS(alpha) =     0.0001355172
 COS(beta)  =     0.5146378593
 COS(gamma) =     0.6988877578
  
  Lattice vectors:
  
 A1 = (  -0.1406063366, -12.4576271275, -12.7466742118)
 A2 = (  -0.0011956322, -12.4575380825,   0.0007464135)
 A3 = ( -12.7162481321,  -0.0020049566, -12.8856194186)


Analysis of symmetry for initial positions (statically):
=====================================================================
 Subroutine PRICEL returns following result:
 
  LATTYP: Found a triclinic cell.
 ALAT       =     8.8524544993
 B/A-ratio  =     1.4072411401
 C/A-ratio  =     1.0225215175
 COS(alpha) =     0.0001355172
 COS(beta)  =     0.5046167836
 COS(gamma) =     0.7037964938
  
  Lattice vectors:
  
 A1 = (   6.2890165300,   6.2297269971,   0.0687261899)
 A2 = (   0.0011956322,  12.4575380825,  -0.0007464135)
 A3 = (   6.3581240661,   0.0010024783,   6.4428097093)
 
   4 primitive cells build up your supercell.
 

 Routine SETGRP: Setting up the symmetry group for a 
 triclinic supercell.


 Subroutine GETGRP returns: Found  1 space group operations
 (whereof  1 operations were pure point group operations)
 out of a pool of  2 trial point group operations.


The static configuration has the point symmetry C_1 .


Analysis of symmetry for dynamics (positions and initial velocities):
=====================================================================
 Subroutine PRICEL returns following result:
 
  LATTYP: Found a triclinic cell.
 ALAT       =     8.8524544993
 B/A-ratio  =     1.4072411401
 C/A-ratio  =     1.0225215175
 COS(alpha) =     0.0001355172
 COS(beta)  =     0.5046167836
 COS(gamma) =     0.7037964938
  
  Lattice vectors:
  
 A1 = (   6.2890165300,   6.2297269971,   0.0687261899)
 A2 = (   0.0011956322,  12.4575380825,  -0.0007464135)
 A3 = (   6.3581240661,   0.0010024783,   6.4428097093)
 
   4 primitive cells build up your supercell.
 

 Routine SETGRP: Setting up the symmetry group for a 
 triclinic supercell.


 Subroutine GETGRP returns: Found  1 space group operations
 (whereof  1 operations were pure point group operations)
 out of a pool of  2 trial point group operations.


The dynamic configuration has the point symmetry C_1 .


Analysis of structural, dynamic, and magnetic symmetry:
=====================================================================
 Subroutine PRICEL returns following result:
 
  LATTYP: Found a triclinic cell.
 ALAT       =     8.8524544993
 B/A-ratio  =     1.4072411401
 C/A-ratio  =     1.0225215175
 COS(alpha) =     0.0001355172
 COS(beta)  =     0.5046167836
 COS(gamma) =     0.7037964938
  
  Lattice vectors:
  
 A1 = (   6.2890165300,   6.2297269971,   0.0687261899)
 A2 = (   0.0011956322,  12.4575380825,  -0.0007464135)
 A3 = (   6.3581240661,   0.0010024783,   6.4428097093)
 
   4 primitive cells build up your supercell.
 

 Routine SETGRP: Setting up the symmetry group for a 
 triclinic supercell.


 Subroutine GETGRP returns: Found  1 space group operations
 (whereof  1 operations were pure point group operations)
 out of a pool of  2 trial point group operations.


The (compounded) configuration has the point symmetry C_1 .


 Subroutine INISYM returns: Found  1 space group operations
 (whereof  1 operations are pure point group operations),
 and found     4 'primitive' translations

 
 
 KPOINTS: Automatic 3x3x3                         

Automatic generation of k-mesh.
Space group operators:
 irot       det(A)        alpha          n_x          n_y          n_z        tau_x        tau_y        tau_z
    1     1.000000     0.000000     1.000000     0.000000     0.000000     0.000000     0.000000     0.000000
 
 Subroutine IBZKPT returns following result:
 ===========================================
 
 Found     27 irreducible k-points:
 
 Following reciprocal coordinates:
            Coordinates               Weight
  0.000000  0.000000  0.000000      1.000000
  0.333333 -0.000000 -0.000000      1.000000
 -0.333333  0.000000  0.000000      1.000000
  0.000000  0.333333 -0.000000      1.000000
  0.333333  0.333333  0.000000      1.000000
 -0.333333  0.333333  0.000000      1.000000
 -0.000000 -0.333333  0.000000      1.000000
  0.333333 -0.333333 -0.000000      1.000000
 -0.333333 -0.333333 -0.000000      1.000000
  0.000000  0.000000  0.333333      1.000000
  0.333333  0.000000  0.333333      1.000000
 -0.333333  0.000000  0.333333      1.000000
  0.000000  0.333333  0.333333      1.000000
  0.333333  0.333333  0.333333      1.000000
 -0.333333  0.333333  0.333333      1.000000
  0.000000 -0.333333  0.333333      1.000000
  0.333333 -0.333333  0.333333      1.000000
 -0.333333 -0.333333  0.333333      1.000000
  0.000000  0.000000 -0.333333      1.000000
  0.333333 -0.000000 -0.333333      1.000000
 -0.333333 -0.000000 -0.333333      1.000000
 -0.000000  0.333333 -0.333333      1.000000
  0.333333  0.333333 -0.333333      1.000000
 -0.333333  0.333333 -0.333333      1.000000
 -0.000000 -0.333333 -0.333333      1.000000
  0.333333 -0.333333 -0.333333      1.000000
 -0.333333 -0.333333 -0.333333      1.000000
 
 Following cartesian coordinates:
            Coordinates               Weight
  0.000000  0.000000  0.000000      1.000000
  0.026507 -0.000003 -0.000290      1.000000
 -0.026507  0.000003  0.000290      1.000000
 -0.000004  0.026758 -0.000000      1.000000
  0.026503  0.026755 -0.000290      1.000000
 -0.026511  0.026760  0.000290      1.000000
  0.000004 -0.026758  0.000000      1.000000
  0.026511 -0.026760 -0.000290      1.000000
 -0.026503 -0.026755  0.000290      1.000000
 -0.000287  0.000002  0.026152      1.000000
  0.026220 -0.000001  0.025862      1.000000
 -0.026794  0.000004  0.026442      1.000000
 -0.000291  0.026759  0.026152      1.000000
  0.026215  0.026757  0.025862      1.000000
 -0.026798  0.026762  0.026442      1.000000
 -0.000283 -0.026756  0.026152      1.000000
  0.026224 -0.026759  0.025862      1.000000
 -0.026790 -0.026753  0.026442      1.000000
  0.000287 -0.000002 -0.026152      1.000000
  0.026794 -0.000004 -0.026442      1.000000
 -0.026220  0.000001 -0.025862      1.000000
  0.000283  0.026756 -0.026152      1.000000
  0.026790  0.026753 -0.026442      1.000000
 -0.026224  0.026759 -0.025862      1.000000
  0.000291 -0.026759 -0.026152      1.000000
  0.026798 -0.026762 -0.026442      1.000000
 -0.026215 -0.026757 -0.025862      1.000000
 


--------------------------------------------------------------------------------------------------------




 Dimension of arrays:
   k-points           NKPTS =     27   k-points in BZ     NKDIM =     27   number of bands    NBANDS=    600
   number of dos      NEDOS =    301   number of ions     NIONS =     96
   non local maximal  LDIM  =      6   non local SUM 2l+1 LMDIM =     18
   total plane-waves  NPLWV = ******
   max r-space proj   IRMAX =      1   max aug-charges    IRDMAX= 314103
   dimension x,y,z NGX =   112 NGY =  108 NGZ =  112
   dimension x,y,z NGXF=   224 NGYF=  216 NGZF=  224
   support grid    NGXF=   448 NGYF=  432 NGZF=  448
   ions per type =               8   8  48   8  24
 NGX,Y,Z   is equivalent  to a cutoff of  14.80, 14.41, 14.61 a.u.
 NGXF,Y,Z  is equivalent  to a cutoff of  29.61, 28.83, 29.21 a.u.


 I would recommend the setting:
   dimension x,y,z NGX =   109 NGY =  107 NGZ =  110
 SYSTEM =  MAPbI3-Cubic                            
 POSCAR =  C N H Pb I                              

 Startparameter for this run:
   NWRITE =      2    write-flag & timer
   PREC   = accura    normal or accurate (medium, high low for compatibility)
   ISTART =      0    job   : 0-new  1-cont  2-samecut
   ICHARG =      2    charge: 1-file 2-atom 10-const
   ISPIN  =      1    spin polarized calculation?
   LNONCOLLINEAR =      T non collinear calculations
   LSORBIT =      T    spin-orbit coupling
   INIWAV =      1    electr: 0-lowe 1-rand  2-diag
   LASPH  =      F    aspherical Exc in radial PAW
   METAGGA=      F    non-selfconsistent MetaGGA calc.

 Electronic Relaxation 1
   ENCUT  =  700.0 eV  51.45 Ry    7.17 a.u.  27.13 26.87 27.50*2*pi/ulx,y,z
   ENINI  =  700.0     initial cutoff
   ENAUG  =  644.9 eV  augmentation charge cutoff
   NELM   =     60;   NELMIN=  2; NELMDL= -5     # of ELM steps 
   EDIFF  = 0.1E-07   stopping-criterion for ELM
   LREAL  =      F    real-space projection
   NLSPLINE    = F    spline interpolate recip. space projectors
   LCOMPAT=      F    compatible to vasp.4.4
   GGA_COMPAT  = T    GGA compatible to vasp.4.4-vasp.4.6
   LMAXPAW     = -100 max onsite density
   LMAXMIX     =    2 max onsite mixed and CHGCAR
   VOSKOWN=      0    Vosko Wilk Nusair interpolation
   ROPT   =    0.00000   0.00000   0.00000   0.00000
   ROPT   =    0.00000
 Ionic relaxation
   EDIFFG = 0.1E-06   stopping-criterion for IOM
   NSW    =      0    number of steps for IOM
   NBLOCK =      1;   KBLOCK =      1    inner block; outer block 
   IBRION =     -1    ionic relax: 0-MD 1-quasi-New 2-CG
   NFREE  =      0    steps in history (QN), initial steepest desc. (CG)
   ISIF   =      2    stress and relaxation
   IWAVPR =     10    prediction:  0-non 1-charg 2-wave 3-comb
   ISYM   =      2    0-nonsym 1-usesym 2-fastsym
   LCORR  =      T    Harris-Foulkes like correction to forces

   POTIM  = 0.5000    time-step for ionic-motion
   TEIN   =    0.0    initial temperature
   TEBEG  =    0.0;   TEEND  =   0.0 temperature during run
   SMASS  =  -3.00    Nose mass-parameter (am)
   estimated Nose-frequenzy (Omega)   =  0.10E-29 period in steps =****** mass=  -0.362E-26a.u.
   SCALEE = 1.0000    scale energy and forces
   NPACO  =    256;   APACO  = 16.0  distance and # of slots for P.C.
   PSTRESS=    0.0 pullay stress

  Mass of Ions in am
   POMASS =  12.01 14.00  1.00207.20126.90
  Ionic Valenz
   ZVAL   =   4.00  5.00  1.00 14.00  7.00
  Atomic Wigner-Seitz radii
   RWIGS  =  -1.00 -1.00 -1.00 -1.00 -1.00
  virtual crystal weights 
   VCA    =   1.00  1.00  1.00  1.00  1.00
   NELECT =     400.0000    total number of electrons
   NUPDOWN=      -1.0000    fix difference up-down

 DOS related values:
   EMIN   =  10.00;   EMAX   =-10.00  energy-range for DOS
   EFERMI =   0.00
   ISMEAR =     0;   SIGMA  =   0.00  broadening in eV -4-tet -1-fermi 0-gaus

 Electronic relaxation 2 (details)
   IALGO  =     38    algorithm
   LDIAG  =      T    sub-space diagonalisation (order eigenvalues)
   LSUBROT=      F    optimize rotation matrix (better conditioning)
   TURBO    =      0    0=normal 1=particle mesh
   IRESTART =      0    0=no restart 2=restart with 2 vectors
   NREBOOT  =      0    no. of reboots
   NMIN     =      0    reboot dimension
   EREF     =   0.00    reference energy to select bands
   IMIX   =      4    mixing-type and parameters
     AMIX     =   0.40;   BMIX     =  1.00
     AMIX_MAG =   1.60;   BMIX_MAG =  1.00
     AMIN     =   0.10
     WC   =   100.;   INIMIX=   1;  MIXPRE=   1;  MAXMIX= -45

 Intra band minimization:
   WEIMIN = 0.0000     energy-eigenvalue tresh-hold
   EBREAK =  0.42E-11  absolut break condition
   DEPER  =   0.30     relativ break condition  

   TIME   =   0.40     timestep for ELM

  volume/ion in A,a.u.               =      20.80       140.38
  Fermi-wavevector in a.u.,A,eV,Ry     =   0.957863  1.810099 12.483376  0.917502
  Thomas-Fermi vector in A             =   2.086919
 
 Write flags
   LWAVE  =      F    write WAVECAR
   LCHARG =      F    write CHGCAR
   LVTOT  =      F    write LOCPOT, total local potential
   LVHAR  =      F    write LOCPOT, Hartree potential only
   LELF   =      F    write electronic localiz. function (ELF)
   LORBIT =      0    0 simple, 1 ext, 2 COOP (PROOUT)


 Dipole corrections
   LMONO  =      F    monopole corrections only (constant potential shift)
   LDIPOL =      F    correct potential (dipole corrections)
   IDIPOL =      0    1-x, 2-y, 3-z, 4-all directions 
   EPSILON=  1.0000000 bulk dielectric constant

 Core level calculations are selected ICORELEVEL =  1
 Exchange correlation treatment:
   GGA     =    PS    GGA type
   LEXCH   =    14    internal setting for exchange type
   VOSKOWN=      0    Vosko Wilk Nusair interpolation
   LHFCALC =     F    Hartree Fock is set to
   LHFONE  =     F    Hartree Fock one center treatment
   AEXX    =    0.0000 exact exchange contribution

 Linear response parameters
   LEPSILON=     F    determine dielectric tensor
   LRPA    =     F    only Hartree local field effects (RPA)
   LNABLA  =     F    use nabla operator in PAW spheres
   LVEL    =     F    velocity operator in full k-point grid
   LINTERFAST=   F  fast interpolation
   KINTER  =     0    interpolate to denser k-point grid
   CSHIFT  =0.1000    complex shift for real part using Kramers Kronig
   OMEGAMAX=  -1.0    maximum frequency
   DEG_THRESHOLD= 0.2000000E-02 threshold for treating states as degnerate
   RTIME   =    0.100 relaxation time in fs

 Orbital magnetization related:
   ORBITALMAG=     F  switch on orbital magnetization
   LCHIMAG   =     F  perturbation theory with respect to B field
   DQ        =  0.001000  dq finite difference perturbation B field



--------------------------------------------------------------------------------------------------------


 Static calculation
 charge density and potential will be updated during run
 non collinear spin polarized calculation
 Variant of blocked Davidson
 Davidson routine will perform the subspace rotation
 perform sub-space diagonalisation
    after iterative eigenvector-optimisation
 modified Broyden-mixing scheme, WC =      100.0
 initial mixing is a Kerker type mixing with AMIX =  0.4000 and BMIX =      1.0000
 Hartree-type preconditioning will be used
 using additional bands          400
 reciprocal scheme for non local part
 use partial core corrections
 calculate Harris-corrections to forces 
   (improved forces if not selfconsistent)
 use gradient corrections 
 use of overlap-Matrix (Vanderbilt PP)
 Gauss-broadening in eV      SIGMA  =   0.00


--------------------------------------------------------------------------------------------------------


  energy-cutoff  :      700.00
  volume of cell :     1996.98
      direct lattice vectors                 reciprocal lattice vectors
    12.576837428  0.001915912  0.138198793     0.079520802 -0.000007684 -0.000869670
     0.001195632 12.457538083 -0.000746413    -0.000012224  0.080272684 -0.000000427
     0.139410704  0.000089045 12.747420625    -0.000862111  0.000004784  0.078456671

  length of vectors
    12.577596840 12.457538162 12.748182927     0.079525558  0.080272685  0.078461408


 
 k-points in units of 2pi/SCALE and weight: Automatic 3x3x3                         
   0.00000000  0.00000000  0.00000000       0.037
   0.02650693 -0.00000256 -0.00028989       0.037
  -0.02650693  0.00000256  0.00028989       0.037
  -0.00000407  0.02675756 -0.00000014       0.037
   0.02650286  0.02675500 -0.00029003       0.037
  -0.02651101  0.02676012  0.00028975       0.037
   0.00000407 -0.02675756  0.00000014       0.037
   0.02651101 -0.02676012 -0.00028975       0.037
  -0.02650286 -0.02675500  0.00029003       0.037
  -0.00028737  0.00000159  0.02615222       0.037
   0.02621956 -0.00000097  0.02586233       0.037
  -0.02679430  0.00000416  0.02644211       0.037
  -0.00029144  0.02675916  0.02615208       0.037
   0.02621549  0.02675659  0.02586219       0.037
  -0.02679838  0.02676172  0.02644197       0.037
  -0.00028330 -0.02675597  0.02615237       0.037
   0.02622364 -0.02675853  0.02586248       0.037
  -0.02679023 -0.02675341  0.02644226       0.037
   0.00028737 -0.00000159 -0.02615222       0.037
   0.02679430 -0.00000416 -0.02644211       0.037
  -0.02621956  0.00000097 -0.02586233       0.037
   0.00028330  0.02675597 -0.02615237       0.037
   0.02679023  0.02675341 -0.02644226       0.037
  -0.02622364  0.02675853 -0.02586248       0.037
   0.00029144 -0.02675916 -0.02615208       0.037
   0.02679838 -0.02676172 -0.02644197       0.037
  -0.02621549 -0.02675659 -0.02586219       0.037
 
 k-points in reciprocal lattice and weights: Automatic 3x3x3                         
   0.00000000  0.00000000  0.00000000       0.037
   0.33333333 -0.00000000 -0.00000000       0.037
  -0.33333333  0.00000000  0.00000000       0.037
   0.00000000  0.33333333 -0.00000000       0.037
   0.33333333  0.33333333  0.00000000       0.037
  -0.33333333  0.33333333  0.00000000       0.037
  -0.00000000 -0.33333333  0.00000000       0.037
   0.33333333 -0.33333333 -0.00000000       0.037
  -0.33333333 -0.33333333 -0.00000000       0.037
   0.00000000  0.00000000  0.33333333       0.037
   0.33333333  0.00000000  0.33333333       0.037
  -0.33333333  0.00000000  0.33333333       0.037
   0.00000000  0.33333333  0.33333333       0.037
   0.33333333  0.33333333  0.33333333       0.037
  -0.33333333  0.33333333  0.33333333       0.037
   0.00000000 -0.33333333  0.33333333       0.037
   0.33333333 -0.33333333  0.33333333       0.037
  -0.33333333 -0.33333333  0.33333333       0.037
   0.00000000  0.00000000 -0.33333333       0.037
   0.33333333 -0.00000000 -0.33333333       0.037
  -0.33333333 -0.00000000 -0.33333333       0.037
  -0.00000000  0.33333333 -0.33333333       0.037
   0.33333333  0.33333333 -0.33333333       0.037
  -0.33333333  0.33333333 -0.33333333       0.037
  -0.00000000 -0.33333333 -0.33333333       0.037
   0.33333333 -0.33333333 -0.33333333       0.037
  -0.33333333 -0.33333333 -0.33333333       0.037
 
 position of ions in fractional coordinates (direct lattice) 
   0.19784643  0.24984114  0.22853012
   0.69614183  0.24997541  0.22930059
   0.19614183  0.74997541  0.22930059
   0.69784643  0.74984114  0.22853012
   0.19614183  0.24997541  0.72930059
   0.69784643  0.24984114  0.72853012
   0.19784643  0.74984114  0.72853012
   0.69614183  0.74997541  0.72930059
   0.31241773  0.24996052  0.25769553
   0.79665671  0.25004676  0.29007306
   0.29665671  0.75004676  0.29007306
   0.81241773  0.74996052  0.25769553
   0.29665671  0.25004676  0.79007306
   0.81241773  0.24996052  0.75769553
   0.31241773  0.74996052  0.75769553
   0.79665671  0.75004676  0.79007306
   0.19284997  0.24975430  0.14157378
   0.71730036  0.24988789  0.14420347
   0.21730036  0.74988789  0.14420347
   0.69284997  0.74975430  0.14157378
   0.21730036  0.24988789  0.64420347
   0.69284997  0.24975430  0.64157378
   0.19284997  0.74975430  0.64157378
   0.71730036  0.74988789  0.64420347
   0.15879645  0.32218847  0.26107727
   0.64987917  0.32251591  0.24995337
   0.14987917  0.82251591  0.24995337
   0.65879645  0.82218847  0.26107727
   0.14987917  0.32251591  0.74995337
   0.65879645  0.32218847  0.76107727
   0.15879645  0.82218847  0.76107727
   0.64987917  0.82251591  0.74995337
   0.15895806  0.17748289  0.26119919
   0.64992760  0.17746926  0.25010222
   0.14992760  0.67746926  0.25010222
   0.65895806  0.67748289  0.26119919
   0.14992760  0.17746926  0.75010222
   0.65895806  0.17748289  0.76119919
   0.15895806  0.67748289  0.76119919
   0.64992760  0.67746926  0.75010222
   0.35289554  0.31774710  0.22865679
   0.84337361  0.31800146  0.27285619
   0.34337361  0.81800146  0.27285619
   0.85289554  0.81774710  0.22865679
   0.34337361  0.31800146  0.77285619
   0.85289554  0.31774710  0.72865679
   0.35289554  0.81774710  0.72865679
   0.84337361  0.81800146  0.77285619
   0.35303369  0.18219310  0.22873202
   0.84337691  0.18201667  0.27304978
   0.34337691  0.68201667  0.27304978
   0.85303369  0.68219310  0.22873202
   0.34337691  0.18201667  0.77304978
   0.85303369  0.18219310  0.72873202
   0.35303369  0.68219310  0.72873202
   0.84337691  0.68201667  0.77304978
   0.32449454  0.25000474  0.33991303
   0.78184561  0.25018230  0.37130546
   0.28184561  0.75018230  0.37130546
   0.82449454  0.75000474  0.33991303
   0.28184561  0.25018230  0.87130546
   0.82449454  0.25000474  0.83991303
   0.32449454  0.75000474  0.83991303
   0.78184561  0.75018230  0.87130546
   0.47243769  0.49788389  0.48880585
   0.97244587  0.50209570  0.48881705
   0.47244587  0.00209570  0.48881705
   0.97243769  0.99788389  0.48880585
   0.47244587  0.50209570  0.98881705
   0.97243769  0.49788389  0.98880585
   0.47243769  0.99788389  0.98880585
   0.97244587  0.00209570  0.98881705
   0.45469451  0.50435038  0.23757523
   0.95479284  0.49563172  0.23757025
   0.45479284  0.99563172  0.23757025
   0.95469451  0.00435038  0.23757523
   0.45479284  0.49563172  0.73757025
   0.95469451  0.50435038  0.73757523
   0.45469451  0.00435038  0.73757523
   0.95479284  0.99563172  0.73757025
   0.48195803  0.24997125  0.01038818
   0.91731285  0.24998677  0.01327626
   0.41731285  0.74998677  0.01327626
   0.98195803  0.74997125  0.01038818
   0.41731285  0.24998677  0.51327626
   0.98195803  0.24997125  0.51038818
   0.48195803  0.74997125  0.51038818
   0.91731285  0.74998677  0.51327626
   0.21616343  0.53707487  0.46127841
   0.71617945  0.46292000  0.46120099
   0.21617945  0.96292000  0.46120099
   0.71616343  0.03707487  0.46127841
   0.21617945  0.46292000  0.96120099
   0.71616343  0.53707487  0.96127841
   0.21616343  0.03707487  0.96127841
   0.71617945  0.96292000  0.96120099
 
 position of ions in cartesian coordinates  (Angst):
   2.52044070  3.11280498  2.94032526
   8.78752847  3.11543230  3.01901039
   2.49970757  9.34324339  2.94953779
   8.80945723  9.34253198  3.00905145
   2.56881510  3.11451887  9.32362131
   8.87856477  3.11380746  9.38313497
   2.59074387  9.34161854  9.31366236
   8.85783163  9.34424586  9.39234750
   3.96545140  3.11451417  3.32794253
  10.06016013  3.11651925  3.80759367
   3.77233923  9.34433033  3.73812106
  10.25446793  9.34424116  3.39666872
   3.84144677  3.11560581 10.11220458
  10.32357546  3.11551664  9.77075224
   4.03575457  9.34332773  9.70127963
  10.13046330  9.34533281 10.18093077
   2.44547828  3.11170583  1.83116579
   9.04177231  3.11437502  1.93716578
   2.75395141  9.34218611  1.86769318
   8.73449481  9.34143283  1.89989198
   2.82305894  3.11346159  8.24177670
   8.80360235  3.11270831  8.27397550
   2.51578145  9.34051940  8.20450290
   9.11207547  9.34318859  8.31050289
   2.03393929  4.01400257  3.34976672
   8.20865640  4.01902156  3.27583256
   1.92083550 10.24683265  3.20635996
   8.32295582 10.24372957  3.41849291
   1.98994304  4.01810813  9.58044348
   8.39206336  4.01500505  9.79257642
   2.10424246 10.24281614  9.72310382
   8.27895957 10.24783513  9.64916967
   2.03581590  2.21132768  3.35145128
   8.20911292  2.21209749  3.27784499
   1.92129202  8.43990857  3.20837239
   8.32483243  8.44105468  3.42017746
   1.99039955  2.21118405  9.58245591
   8.39393997  2.21233016  9.79426098
   2.10611907  8.44014125  9.72478838
   8.27941608  8.44091105  9.65118210
   4.47056696  3.95904309  2.96331687
  10.64539212  3.96315548  3.59452848
   4.35757122 10.19096657  3.52505587
  10.75958349 10.18877009  3.03204306
   4.42667875  3.96224205  9.89913939
  10.82869103  3.96004557  9.40612658
   4.54087013 10.18785665  9.33665398
  10.71569528 10.19196905  9.96786558
   4.47215286  2.27037426  2.96439606
  10.64529798  2.26911978  3.59709825
   4.35747708  8.49693086  3.52762565
  10.76116939  8.50010126  3.03312225
   4.42658461  2.26820635  9.90170917
  10.83027693  2.27137674  9.40720577
   4.54245603  8.49918782  9.33773317
  10.71560114  8.49793334  9.97043536
   4.12880149  3.11509556  4.37767256
   9.88520818  3.11818657  4.84105020
   3.59738728  9.34599765  4.77157760
  10.41781802  9.34482255  4.44639875
   3.66649482  3.11727313 11.14566112
  10.48692555  3.11609804 10.82048227
   4.19910465  9.34390912 10.75100967
   9.95551135  9.34700013 11.21438731
   6.01051203  6.20335625  6.29593241
  12.29904021  6.25678289  6.36517259
   6.01002368  0.02705589  6.29644640
  12.29952856 12.43308325  6.36465860
   6.08032685  6.25586946 12.66978351
  12.36863610  6.20435873 12.73874212
   6.08081520 12.43216982 12.66926952
  12.36814774  0.02805837 12.73925611
   5.75234244  6.28385640  3.09093321
  12.04198678  6.17620145  3.15998919
   5.75416588 12.40401253  3.09051658
  12.04016334  0.05604531  3.16040581
   5.82327342  6.17528801  9.46460010
  12.11046650  6.28485888  9.53374292
   5.82144997  0.05513188  9.46501673
  12.11228995 12.40501501  9.53332629
   6.06325485  3.11495064  0.19884188
  11.53904436  3.11597844  0.29582301
   5.25122346  9.34378952  0.22635040
  12.35227138  9.34467763  0.26756807
   5.32033100  3.11506501  6.60043392
  12.42137891  3.11595311  6.64165159
   6.13355801  9.34376420  6.57217898
  11.60934753  9.34479200  6.66916011
   2.78360159  6.69108588  5.90958259
   9.07212233  5.76825676  5.97775264
   2.78430143 11.99606784  5.90828004
   9.07142248  0.46327480  5.97905519
   2.85340897  5.76734332 12.28236356
   9.14172565  6.69208836 12.35239230
   2.85270912  0.46236136 12.28366611
   9.14242550 11.99707032 12.35108975
 
 Euler angles ALPHA=     0.0000000  BETA=     0.0000000

 transformation matrix from SAXIS to cartesian coordinates
 ---------------------------------------------------------
     1.0000000 m_x     0.0000000 m_y     0.0000000 m_z
     0.0000000 m_x     1.0000000 m_y     0.0000000 m_z
     0.0000000 m_x     0.0000000 m_y     1.0000000 m_z

 transformation matrix from cartesian coordinates to SAXIS
 ---------------------------------------------------------
     1.0000000 m_x     0.0000000 m_y     0.0000000 m_z
     0.0000000 m_x     1.0000000 m_y     0.0000000 m_z
     0.0000000 m_x     0.0000000 m_y     1.0000000 m_z




--------------------------------------------------------------------------------------------------------


 k-point  1 :   0.0000 0.0000 0.0000  plane waves:  168014
 k-point  2 :   0.3333-0.0000-0.0000  plane waves:  168006
 k-point  3 :  -0.3333 0.0000 0.0000  plane waves:  168006
 k-point  4 :   0.0000 0.3333-0.0000  plane waves:  167990
 k-point  5 :   0.3333 0.3333 0.0000  plane waves:  168036
 k-point  6 :  -0.3333 0.3333 0.0000  plane waves:  168038
 k-point  7 :  -0.0000-0.3333 0.0000  plane waves:  167990
 k-point  8 :   0.3333-0.3333-0.0000  plane waves:  168038
 k-point  9 :  -0.3333-0.3333-0.0000  plane waves:  168036
 k-point 10 :   0.0000 0.0000 0.3333  plane waves:  167920
 k-point 11 :   0.3333 0.0000 0.3333  plane waves:  167874
 k-point 12 :  -0.3333 0.0000 0.3333  plane waves:  167964
 k-point 13 :   0.0000 0.3333 0.3333  plane waves:  167968
 k-point 14 :   0.3333 0.3333 0.3333  plane waves:  168024
 k-point 15 :  -0.3333 0.3333 0.3333  plane waves:  167940
 k-point 16 :   0.0000-0.3333 0.3333  plane waves:  167954
 k-point 17 :   0.3333-0.3333 0.3333  plane waves:  168026
 k-point 18 :  -0.3333-0.3333 0.3333  plane waves:  167946
 k-point 19 :   0.0000 0.0000-0.3333  plane waves:  167920
 k-point 20 :   0.3333-0.0000-0.3333  plane waves:  167964
 k-point 21 :  -0.3333-0.0000-0.3333  plane waves:  167874
 k-point 22 :  -0.0000 0.3333-0.3333  plane waves:  167954
 k-point 23 :   0.3333 0.3333-0.3333  plane waves:  167946
 k-point 24 :  -0.3333 0.3333-0.3333  plane waves:  168026
 k-point 25 :  -0.0000-0.3333-0.3333  plane waves:  167968
 k-point 26 :   0.3333-0.3333-0.3333  plane waves:  167940
 k-point 27 :  -0.3333-0.3333-0.3333  plane waves:  168024

 maximum and minimum number of plane-waves per node :      7122     6820

 maximum number of plane-waves:    168038
 maximum index in each direction: 
   IXMAX=   27   IYMAX=   27   IZMAX=   27
   IXMIN=  -27   IYMIN=  -27   IZMIN=  -27

 NGX is ok and might be reduce to 110
 WARNING: aliasing errors must be expected set NGY to 110 to avoid them
 NGZ is ok and might be reduce to 110
 aliasing errors are usually negligible using standard VASP settings
 and one can safely disregard these warnings

 parallel 3D FFT for wavefunctions:
    minimum data exchange during FFTs selected (reduces bandwidth)
 parallel 3D FFT for charge:
    minimum data exchange during FFTs selected (reduces bandwidth)


 total amount of memory used by VASP on root node   392927. kBytes
========================================================================

   base      :      30000. kBytes
   nonl-proj :      73667. kBytes
   fftplans  :      22714. kBytes
   grid      :      35610. kBytes
   one-center:        248. kBytes
   wavefun   :     230688. kBytes
 
     INWAV:  cpu time    0.0000: real time    0.0000
 Broyden mixing: mesh for mixing (old mesh)
   NGX = 55   NGY = 53   NGZ = 55
  (NGX  =224   NGY  =216   NGZ  =224)
  gives a total of 160325 points

 initial charge density was supplied:
 charge density of overlapping atoms calculated
 number of electron     400.0000000 magnetization      96.0000000     96.0000000     96.0000000
 keeping initial charge density in first step


--------------------------------------------------------------------------------------------------------


 Maximum index for augmentation-charges         5319 (set IRDMAX)


--------------------------------------------------------------------------------------------------------


 First call to EWALD:  gamma=   0.141
 Maximum number of real-space cells 3x 3x 3
 Maximum number of reciprocal cells 3x 3x 3

 FEWALD executed in parallel
    FEWALD:  cpu time    0.0080: real time    0.0075


----------------------------------------- Iteration    1(   1)  ---------------------------------------


    POTLOK:  cpu time    0.6400: real time    0.6435
    SETDIJ:  cpu time    2.1761: real time    2.1773
     EDDAV:  cpu time  241.8791: real time  242.0348
       DOS:  cpu time    0.0040: real time    0.0075
    --------------------------------------------
      LOOP:  cpu time  244.7033: real time  245.0585

 eigenvalue-minimisations  : 32544
 total energy-change (2. order) : 0.4217191E+04  (-0.1927996E+05)
 number of electron     400.0000000 magnetization      96.0000000     96.0000000     96.0000000
 augmentation part      400.0000000 magnetization      96.0000000     96.0000000     96.0000000

 Free energy of the ion-electron system (eV)
  ---------------------------------------------------
  alpha Z        PSCENC =       370.05370877
  Ewald energy   TEWEN  =    -15577.12721789
  -Hartree energ DENC   =     -8085.19646063
  -exchange      EXHF   =         0.00000000
  -V(xc)+E(xc)   XCENC  =       671.55178608
  PAW double counting   =     20172.90621935   -19413.33347658
  entropy T*S    EENTRO =        -0.00001478
  eigenvalues    EBANDS =      1329.33001649
  atomic energy  EATOM  =     24749.00668030
  Solvation  Ediel_sol  =         0.00000000
  ---------------------------------------------------
  free energy    TOTEN  =      4217.19124110 eV

  energy without entropy =     4217.19125588  energy(sigma->0) =     4217.19124849


--------------------------------------------------------------------------------------------------------




----------------------------------------- Iteration    1(   2)  ---------------------------------------


     EDDAV:  cpu time  256.8040: real time  256.9703
       DOS:  cpu time    0.0080: real time    0.0078
    --------------------------------------------
      LOOP:  cpu time  256.8160: real time  257.0003

 eigenvalue-minimisations  : 35560
 total energy-change (2. order) :-0.3375832E+04  (-0.3126656E+04)
 number of electron     400.0000000 magnetization      96.0000000     96.0000000     96.0000000
 augmentation part      400.0000000 magnetization      96.0000000     96.0000000     96.0000000

 Free energy of the ion-electron system (eV)
  ---------------------------------------------------
  alpha Z        PSCENC =       370.05370877
  Ewald energy   TEWEN  =    -15577.12721789
  -Hartree energ DENC   =     -8085.19646063
  -exchange      EXHF   =         0.00000000
  -V(xc)+E(xc)   XCENC  =       671.55178608
  PAW double counting   =     20172.90621935   -19413.33347658
  entropy T*S    EENTRO =        -0.00001545
  eigenvalues    EBANDS =     -2046.50203386
  atomic energy  EATOM  =     24749.00668030
  Solvation  Ediel_sol  =         0.00000000
  ---------------------------------------------------
  free energy    TOTEN  =       841.35919008 eV

  energy without entropy =      841.35920553  energy(sigma->0) =      841.35919780


--------------------------------------------------------------------------------------------------------




----------------------------------------- Iteration    1(   3)  ---------------------------------------


     EDDAV:  cpu time  303.5070: real time  303.7037
       DOS:  cpu time    0.0080: real time    0.0069
    --------------------------------------------
      LOOP:  cpu time  303.5190: real time  303.7690

 eigenvalue-minimisations  : 44008
 total energy-change (2. order) :-0.6090815E+03  (-0.5889312E+03)
 number of electron     400.0000000 magnetization      96.0000000     96.0000000     96.0000000
 augmentation part      400.0000000 magnetization      96.0000000     96.0000000     96.0000000

 Free energy of the ion-electron system (eV)
  ---------------------------------------------------
  alpha Z        PSCENC =       370.05370877
  Ewald energy   TEWEN  =    -15577.12721789
  -Hartree energ DENC   =     -8085.19646063
  -exchange      EXHF   =         0.00000000
  -V(xc)+E(xc)   XCENC  =       671.55178608
  PAW double counting   =     20172.90621935   -19413.33347658
  entropy T*S    EENTRO =        -0.00002419
  eigenvalues    EBANDS =     -2655.58352460
  atomic energy  EATOM  =     24749.00668030
  Solvation  Ediel_sol  =         0.00000000
  ---------------------------------------------------
  free energy    TOTEN  =       232.27769059 eV

  energy without entropy =      232.27771479  energy(sigma->0) =      232.27770269


--------------------------------------------------------------------------------------------------------




----------------------------------------- Iteration    1(   4)  ---------------------------------------


     EDDAV:  cpu time  305.1911: real time  305.3862
       DOS:  cpu time    0.0080: real time    0.0077
    --------------------------------------------
      LOOP:  cpu time  305.1991: real time  305.4226

 eigenvalue-minimisations  : 44240
 total energy-change (2. order) :-0.4574265E+02  (-0.4465521E+02)
 number of electron     400.0000000 magnetization      96.0000000     96.0000000     96.0000000
 augmentation part      400.0000000 magnetization      96.0000000     96.0000000     96.0000000

 Free energy of the ion-electron system (eV)
  ---------------------------------------------------
  alpha Z        PSCENC =       370.05370877
  Ewald energy   TEWEN  =    -15577.12721789
  -Hartree energ DENC   =     -8085.19646063
  -exchange      EXHF   =         0.00000000
  -V(xc)+E(xc)   XCENC  =       671.55178608
  PAW double counting   =     20172.90621935   -19413.33347658
  entropy T*S    EENTRO =        -0.00006447
  eigenvalues    EBANDS =     -2701.32613800
  atomic energy  EATOM  =     24749.00668030
  Solvation  Ediel_sol  =         0.00000000
  ---------------------------------------------------
  free energy    TOTEN  =       186.53503691 eV

  energy without entropy =      186.53510139  energy(sigma->0) =      186.53506915


--------------------------------------------------------------------------------------------------------




----------------------------------------- Iteration    1(   5)  ---------------------------------------


     EDDAV:  cpu time  336.0330: real time  336.2543
       DOS:  cpu time    0.0080: real time    0.0067
    CHARGE:  cpu time   11.6167: real time   11.6248
    MIXING:  cpu time    0.0160: real time    0.0159
    --------------------------------------------
      LOOP:  cpu time  347.6777: real time  347.9121

 eigenvalue-minimisations  : 50144
 total energy-change (2. order) :-0.2130641E+01  (-0.2122372E+01)
 number of electron     400.0000000 magnetization      67.2309529     67.2401930     67.2449924
 augmentation part        6.8925835 magnetization      63.1942786     63.1697593     63.1582001

 Broyden mixing:
  rms(total) = 0.97354E+01    rms(broyden)= 0.97352E+01
  rms(prec ) = 0.10228E+02
  weight for this iteration     100.00

 Free energy of the ion-electron system (eV)
  ---------------------------------------------------
  alpha Z        PSCENC =       370.05370877
  Ewald energy   TEWEN  =    -15577.12721789
  -Hartree energ DENC   =     -8085.19646063
  -exchange      EXHF   =         0.00000000
  -V(xc)+E(xc)   XCENC  =       671.55178608
  PAW double counting   =     20172.90621935   -19413.33347658
  entropy T*S    EENTRO =        -0.00006440
  eigenvalues    EBANDS =     -2703.45677866
  atomic energy  EATOM  =     24749.00668030
  Solvation  Ediel_sol  =         0.00000000
  ---------------------------------------------------
  free energy    TOTEN  =       184.40439633 eV

  energy without entropy =      184.40446073  energy(sigma->0) =      184.40442853


--------------------------------------------------------------------------------------------------------




----------------------------------------- Iteration    1(   6)  ---------------------------------------


    POTLOK:  cpu time    0.6000: real time    0.5999
    SETDIJ:  cpu time    2.1881: real time    2.1907
     EDDAV:  cpu time  265.6926: real time  265.8668
       DOS:  cpu time    0.0040: real time    0.0071
    CHARGE:  cpu time   11.8967: real time   11.9040
    MIXING:  cpu time    0.0160: real time    0.0159
    --------------------------------------------
      LOOP:  cpu time  280.4015: real time  294.8970

 eigenvalue-minimisations  : 37216
 total energy-change (2. order) :-0.1296213E+03  (-0.1505684E+03)
 number of electron     400.0000000 magnetization      50.4236306     50.4287183     50.4326949
 augmentation part        6.0066714 magnetization      51.3083215     51.3200469     51.3214487

 Broyden mixing:
  rms(total) = 0.48860E+01    rms(broyden)= 0.48859E+01
  rms(prec ) = 0.50726E+01
  weight for this iteration     100.00

 eigenvalues of (default mixing * dielectric matrix)
  average eigenvalue GAMMA=   0.7560
  0.7560

 Free energy of the ion-electron system (eV)
  ---------------------------------------------------
  alpha Z        PSCENC =       370.05370877
  Ewald energy   TEWEN  =    -15577.12721789
  -Hartree energ DENC   =     -8435.60801546
  -exchange      EXHF   =         0.00000000
  -V(xc)+E(xc)   XCENC  =       687.19887367
  PAW double counting   =     24137.87194544   -23400.98361964
  entropy T*S    EENTRO =        -0.00002012
  eigenvalues    EBANDS =     -2475.62923918
  atomic energy  EATOM  =     24749.00668030
  Solvation  Ediel_sol  =         0.00000000
  ---------------------------------------------------
  free energy    TOTEN  =        54.78309589 eV

  energy without entropy =       54.78311600  energy(sigma->0) =       54.78310595


--------------------------------------------------------------------------------------------------------




----------------------------------------- Iteration    1(   7)  ---------------------------------------


    POTLOK:  cpu time    0.7400: real time    0.7419
    SETDIJ:  cpu time    2.2081: real time    2.2104
     EDDAV:  cpu time  276.7733: real time  276.9527
       DOS:  cpu time    0.0080: real time    0.0092
    CHARGE:  cpu time   11.8447: real time   11.8490
    MIXING:  cpu time    0.0120: real time    0.0151
    --------------------------------------------
      LOOP:  cpu time  291.5942: real time  291.8059

 eigenvalue-minimisations  : 39056
 total energy-change (2. order) :-0.1486118E+03  (-0.1613195E+02)
 number of electron     400.0000000 magnetization      34.6025768     34.6053126     34.6088206
 augmentation part        5.5949778 magnetization      35.6922777     35.6998518     35.6989783

 Broyden mixing:
  rms(total) = 0.28433E+01    rms(broyden)= 0.28433E+01
  rms(prec ) = 0.30002E+01
  weight for this iteration     100.00

 eigenvalues of (default mixing * dielectric matrix)
  average eigenvalue GAMMA=   0.8363
  0.8363  0.8363

 Free energy of the ion-electron system (eV)
  ---------------------------------------------------
  alpha Z        PSCENC =       370.05370877
  Ewald energy   TEWEN  =    -15577.12721789
  -Hartree energ DENC   =     -8484.17948539
  -exchange      EXHF   =         0.00000000
  -V(xc)+E(xc)   XCENC  =       590.96118643
  PAW double counting   =     26546.96107332   -25809.92613422
  entropy T*S    EENTRO =        -0.00002638
  eigenvalues    EBANDS =     -2479.57853419
  atomic energy  EATOM  =     24749.00668030
  Solvation  Ediel_sol  =         0.00000000
  ---------------------------------------------------
  free energy    TOTEN  =       -93.82874925 eV

  energy without entropy =      -93.82872287  energy(sigma->0) =      -93.82873606


--------------------------------------------------------------------------------------------------------




----------------------------------------- Iteration    1(   8)  ---------------------------------------


    POTLOK:  cpu time    0.6000: real time    0.5997
    SETDIJ:  cpu time    2.1281: real time    2.1317
     EDDAV:  cpu time  269.9529: real time  270.1313
       DOS:  cpu time    0.0040: real time    0.0043
    CHARGE:  cpu time   11.9607: real time   11.9702
    MIXING:  cpu time    0.0120: real time    0.0155
    --------------------------------------------
      LOOP:  cpu time  284.6658: real time  284.9127

 eigenvalue-minimisations  : 37720
 total energy-change (2. order) :-0.1071842E+03  (-0.6520045E+01)
 number of electron     400.0000000 magnetization      16.2536462     16.2487286     16.2526433
 augmentation part        6.6453806 magnetization      17.4578571     17.4668405     17.4679833

 Broyden mixing:
  rms(total) = 0.18497E+01    rms(broyden)= 0.18497E+01
  rms(prec ) = 0.19065E+01
  weight for this iteration     100.00

 eigenvalues of (default mixing * dielectric matrix)
  average eigenvalue GAMMA=   0.9984
  1.3833  0.9825  0.6295

 Free energy of the ion-electron system (eV)
  ---------------------------------------------------
  alpha Z        PSCENC =       370.05370877
  Ewald energy   TEWEN  =    -15577.12721789
  -Hartree energ DENC   =     -8517.15049966
  -exchange      EXHF   =         0.00000000
  -V(xc)+E(xc)   XCENC  =       529.18415601
  PAW double counting   =     28461.08076872   -27725.76703067
  entropy T*S    EENTRO =        -0.00000000
  eigenvalues    EBANDS =     -2490.29353268
  atomic energy  EATOM  =     24749.00668030
  Solvation  Ediel_sol  =         0.00000000
  ---------------------------------------------------
  free energy    TOTEN  =      -201.01296710 eV

  energy without entropy =     -201.01296710  energy(sigma->0) =     -201.01296710


--------------------------------------------------------------------------------------------------------




----------------------------------------- Iteration    1(   9)  ---------------------------------------


    POTLOK:  cpu time    0.6000: real time    0.5998
    SETDIJ:  cpu time    2.1361: real time    2.1376
     EDDAV:  cpu time  260.4123: real time  260.5845
       DOS:  cpu time    0.0040: real time    0.0037
    CHARGE:  cpu time   11.8327: real time   11.8412
    MIXING:  cpu time    0.0160: real time    0.0156
    --------------------------------------------
      LOOP:  cpu time  275.0052: real time  275.2005

 eigenvalue-minimisations  : 36520
 total energy-change (2. order) :-0.1305593E+03  (-0.1194409E+02)
 number of electron     400.0000000 magnetization      10.4136019     10.4061292     10.4093830
 augmentation part        7.8933091 magnetization      11.2447083     11.2552783     11.2551031

 Broyden mixing:
  rms(total) = 0.92563E+00    rms(broyden)= 0.92562E+00
  rms(prec ) = 0.97777E+00
  weight for this iteration     100.00

 eigenvalues of (default mixing * dielectric matrix)
  average eigenvalue GAMMA=   1.0789
  1.8181  1.1098  0.6938  0.6938

 Free energy of the ion-electron system (eV)
  ---------------------------------------------------
  alpha Z        PSCENC =       370.05370877
  Ewald energy   TEWEN  =    -15577.12721789
  -Hartree energ DENC   =     -8547.04248838
  -exchange      EXHF   =         0.00000000
  -V(xc)+E(xc)   XCENC  =       464.10866488
  PAW double counting   =     30439.99373091   -29705.46098043
  entropy T*S    EENTRO =         0.00000000
  eigenvalues    EBANDS =     -2525.10434157
  atomic energy  EATOM  =     24749.00668030
  Solvation  Ediel_sol  =         0.00000000
  ---------------------------------------------------
  free energy    TOTEN  =      -331.57224342 eV

  energy without entropy =     -331.57224342  energy(sigma->0) =     -331.57224342


--------------------------------------------------------------------------------------------------------




----------------------------------------- Iteration    1(  10)  ---------------------------------------


    POTLOK:  cpu time    0.6000: real time    0.6033
    SETDIJ:  cpu time    2.1481: real time    2.1467
     EDDAV:  cpu time  263.8285: real time  264.0034
       DOS:  cpu time    0.0040: real time    0.0046
    CHARGE:  cpu time   11.8327: real time   11.8400
    MIXING:  cpu time    0.0160: real time    0.0161
    --------------------------------------------
      LOOP:  cpu time  278.4374: real time  279.4308

 eigenvalue-minimisations  : 37408
 total energy-change (2. order) :-0.4916870E+02  (-0.4866103E+01)
 number of electron     400.0000000 magnetization       6.0583503      6.0519581      6.0539585
 augmentation part        8.1929928 magnetization       6.5929901      6.5920755      6.5950739

 Broyden mixing:
  rms(total) = 0.66177E+00    rms(broyden)= 0.66176E+00
  rms(prec ) = 0.73334E+00
  weight for this iteration     100.00

 eigenvalues of (default mixing * dielectric matrix)
  average eigenvalue GAMMA=   1.1415
  1.7146  1.7146  0.8323  0.8323  0.6139

 Free energy of the ion-electron system (eV)
  ---------------------------------------------------
  alpha Z        PSCENC =       370.05370877
  Ewald energy   TEWEN  =    -15577.12721789
  -Hartree energ DENC   =     -8534.43647846
  -exchange      EXHF   =         0.00000000
  -V(xc)+E(xc)   XCENC  =       442.20743425
  PAW double counting   =     30813.17888374   -30077.12890113
  entropy T*S    EENTRO =         0.00000000
  eigenvalues    EBANDS =     -2566.49505027
  atomic energy  EATOM  =     24749.00668030
  Solvation  Ediel_sol  =         0.00000000
  ---------------------------------------------------
  free energy    TOTEN  =      -380.74094069 eV

  energy without entropy =     -380.74094069  energy(sigma->0) =     -380.74094069


--------------------------------------------------------------------------------------------------------




----------------------------------------- Iteration    1(  11)  ---------------------------------------


    POTLOK:  cpu time    0.6000: real time    0.5984
    SETDIJ:  cpu time    2.1321: real time    2.1320
     EDDAV:  cpu time  264.5965: real time  264.7717
       DOS:  cpu time    0.0040: real time    0.0037
    CHARGE:  cpu time   11.8127: real time   11.8208
    MIXING:  cpu time    0.0160: real time    0.0164
    --------------------------------------------
      LOOP:  cpu time  279.1614: real time  279.3557

 eigenvalue-minimisations  : 37664
 total energy-change (2. order) :-0.2980243E+02  (-0.4130749E+01)
 number of electron     400.0000000 magnetization       3.1384465      3.1340964      3.1354565
 augmentation part        8.0726242 magnetization       3.3574250      3.3552438      3.3553543

 Broyden mixing:
  rms(total) = 0.37539E+00    rms(broyden)= 0.37539E+00
  rms(prec ) = 0.42965E+00
  weight for this iteration     100.00

 eigenvalues of (default mixing * dielectric matrix)
  average eigenvalue GAMMA=   1.2102
  2.0746  2.0746  0.9369  0.9369  0.6611  0.5768

 Free energy of the ion-electron system (eV)
  ---------------------------------------------------
  alpha Z        PSCENC =       370.05370877
  Ewald energy   TEWEN  =    -15577.12721789
  -Hartree energ DENC   =     -8482.78403521
  -exchange      EXHF   =         0.00000000
  -V(xc)+E(xc)   XCENC  =       427.40785459
  PAW double counting   =     30798.86876450   -30059.49779669
  entropy T*S    EENTRO =         0.00000000
  eigenvalues    EBANDS =     -2636.47132964
  atomic energy  EATOM  =     24749.00668030
  Solvation  Ediel_sol  =         0.00000000
  ---------------------------------------------------
  free energy    TOTEN  =      -410.54337126 eV

  energy without entropy =     -410.54337126  energy(sigma->0) =     -410.54337126


--------------------------------------------------------------------------------------------------------




----------------------------------------- Iteration    1(  12)  ---------------------------------------


    POTLOK:  cpu time    0.6000: real time    0.6007
    SETDIJ:  cpu time    2.1281: real time    2.1288
     EDDAV:  cpu time  284.6498: real time  284.8354
       DOS:  cpu time    0.0040: real time    0.0034
    CHARGE:  cpu time   11.7847: real time   11.7919
    MIXING:  cpu time    0.0160: real time    0.0173
    --------------------------------------------
      LOOP:  cpu time  299.1867: real time  299.5913

 eigenvalue-minimisations  : 41448
 total energy-change (2. order) :-0.1056532E+02  (-0.1638854E+01)
 number of electron     400.0000000 magnetization       2.5192894      2.5158630      2.5170419
 augmentation part        7.8891195 magnetization       2.5833686      2.5798802      2.5806507

 Broyden mixing:
  rms(total) = 0.25398E+00    rms(broyden)= 0.25398E+00
  rms(prec ) = 0.29624E+00
  weight for this iteration     100.00

 eigenvalues of (default mixing * dielectric matrix)
  average eigenvalue GAMMA=   1.1614
  2.0952  2.0952  0.9881  0.9881  0.6823  0.6823  0.5985

 Free energy of the ion-electron system (eV)
  ---------------------------------------------------
  alpha Z        PSCENC =       370.05370877
  Ewald energy   TEWEN  =    -15577.12721789
  -Hartree energ DENC   =     -8438.54333392
  -exchange      EXHF   =         0.00000000
  -V(xc)+E(xc)   XCENC  =       421.41666186
  PAW double counting   =     30637.98034101   -29896.09409139
  entropy T*S    EENTRO =         0.00000000
  eigenvalues    EBANDS =     -2687.80144454
  atomic energy  EATOM  =     24749.00668030
  Solvation  Ediel_sol  =         0.00000000
  ---------------------------------------------------
  free energy    TOTEN  =      -421.10869581 eV

  energy without entropy =     -421.10869581  energy(sigma->0) =     -421.10869581


--------------------------------------------------------------------------------------------------------




----------------------------------------- Iteration    1(  13)  ---------------------------------------


    POTLOK:  cpu time    0.6000: real time    0.5983
    SETDIJ:  cpu time    2.1841: real time    2.1866
     EDDAV:  cpu time  276.9613: real time  277.1413
       DOS:  cpu time    0.0040: real time    0.0048
    CHARGE:  cpu time   11.7607: real time   11.7659
    MIXING:  cpu time    0.0160: real time    0.0168
    --------------------------------------------
      LOOP:  cpu time  291.5262: real time  291.7350

 eigenvalue-minimisations  : 39960
 total energy-change (2. order) :-0.1666711E+01  (-0.2452363E+00)
 number of electron     400.0000000 magnetization       1.6318838      1.6300795      1.6308501
 augmentation part        7.8915026 magnetization       1.6806691      1.6802468      1.6801535

 Broyden mixing:
  rms(total) = 0.20637E+00    rms(broyden)= 0.20637E+00
  rms(prec ) = 0.24472E+00
  weight for this iteration     100.00

 eigenvalues of (default mixing * dielectric matrix)
  average eigenvalue GAMMA=   1.1921
  2.2095  2.2095  1.0993  1.0993  0.8608  0.8608  0.6217  0.5757

 Free energy of the ion-electron system (eV)
  ---------------------------------------------------
  alpha Z        PSCENC =       370.05370877
  Ewald energy   TEWEN  =    -15577.12721789
  -Hartree energ DENC   =     -8425.01966940
[...]
     0.0000000     0.0000000     0.0000000     0.0000000     0.0000000     0.0000000     0.0000000
     0.0000000     0.0000000     0.0000000     0.0000000     0.0000000     0.0000000     0.0000000
     0.0000000     0.0000000     0.0000000     0.0000000     0.0000000     0.0000000     0.0000000
     0.0000000     0.0000000     0.0000000     0.0000000     0.0000000     0.0000000     0.0000000

 Ion:   82  E_soc:     -0.2789718
 l=   1
     0.0000000    -0.0477310    -0.0485261
    -0.0477310     0.0000000    -0.0432445
    -0.0485261    -0.0432445     0.0000000
 l=   2
     0.0000000    -0.0000078     0.0000000    -0.0000024     0.0000198
    -0.0000078     0.0000000     0.0000044    -0.0000024     0.0000096
     0.0000000     0.0000044     0.0000000    -0.0000034     0.0000000
    -0.0000024    -0.0000024    -0.0000034     0.0000000    -0.0000021
     0.0000198     0.0000096     0.0000000    -0.0000021     0.0000000
 l=   3
     0.0000000     0.0000000     0.0000000     0.0000000     0.0000000     0.0000000     0.0000000
     0.0000000     0.0000000     0.0000000     0.0000000     0.0000000     0.0000000     0.0000000
     0.0000000     0.0000000     0.0000000     0.0000000     0.0000000     0.0000000     0.0000000
     0.0000000     0.0000000     0.0000000     0.0000000     0.0000000     0.0000000     0.0000000
     0.0000000     0.0000000     0.0000000     0.0000000     0.0000000     0.0000000     0.0000000
     0.0000000     0.0000000     0.0000000     0.0000000     0.0000000     0.0000000     0.0000000
     0.0000000     0.0000000     0.0000000     0.0000000     0.0000000     0.0000000     0.0000000

 Ion:   83  E_soc:     -0.2789718
 l=   1
     0.0000000    -0.0477310    -0.0485261
    -0.0477310     0.0000000    -0.0432445
    -0.0485261    -0.0432445     0.0000000
 l=   2
     0.0000000    -0.0000078     0.0000000    -0.0000024     0.0000198
    -0.0000078     0.0000000     0.0000044    -0.0000024     0.0000096
     0.0000000     0.0000044     0.0000000    -0.0000034     0.0000000
    -0.0000024    -0.0000024    -0.0000034     0.0000000    -0.0000021
     0.0000198     0.0000096     0.0000000    -0.0000021     0.0000000
 l=   3
     0.0000000     0.0000000     0.0000000     0.0000000     0.0000000     0.0000000     0.0000000
     0.0000000     0.0000000     0.0000000     0.0000000     0.0000000     0.0000000     0.0000000
     0.0000000     0.0000000     0.0000000     0.0000000     0.0000000     0.0000000     0.0000000
     0.0000000     0.0000000     0.0000000     0.0000000     0.0000000     0.0000000     0.0000000
     0.0000000     0.0000000     0.0000000     0.0000000     0.0000000     0.0000000     0.0000000
     0.0000000     0.0000000     0.0000000     0.0000000     0.0000000     0.0000000     0.0000000
     0.0000000     0.0000000     0.0000000     0.0000000     0.0000000     0.0000000     0.0000000

 Ion:   84  E_soc:     -0.2815778
 l=   1
     0.0000000    -0.0488762    -0.0490152
    -0.0488762     0.0000000    -0.0429210
    -0.0490152    -0.0429210     0.0000000
 l=   2
     0.0000000    -0.0000097     0.0000000    -0.0000024     0.0000222
    -0.0000097     0.0000000     0.0000057    -0.0000021     0.0000137
     0.0000000     0.0000057     0.0000000    -0.0000030     0.0000000
    -0.0000024    -0.0000021    -0.0000030     0.0000000    -0.0000009
     0.0000222     0.0000137     0.0000000    -0.0000009     0.0000000
 l=   3
     0.0000000     0.0000000     0.0000000     0.0000000     0.0000000     0.0000000     0.0000000
     0.0000000     0.0000000     0.0000000     0.0000000     0.0000000     0.0000000     0.0000000
     0.0000000     0.0000000     0.0000000     0.0000000     0.0000000     0.0000000     0.0000000
     0.0000000     0.0000000     0.0000000     0.0000000     0.0000000     0.0000000     0.0000000
     0.0000000     0.0000000     0.0000000     0.0000000     0.0000000     0.0000000     0.0000000
     0.0000000     0.0000000     0.0000000     0.0000000     0.0000000     0.0000000     0.0000000
     0.0000000     0.0000000     0.0000000     0.0000000     0.0000000     0.0000000     0.0000000

 Ion:   85  E_soc:     -0.2789718
 l=   1
     0.0000000    -0.0477310    -0.0485261
    -0.0477310     0.0000000    -0.0432445
    -0.0485261    -0.0432445     0.0000000
 l=   2
     0.0000000    -0.0000078     0.0000000    -0.0000024     0.0000198
    -0.0000078     0.0000000     0.0000044    -0.0000024     0.0000096
     0.0000000     0.0000044     0.0000000    -0.0000034     0.0000000
    -0.0000024    -0.0000024    -0.0000034     0.0000000    -0.0000021
     0.0000198     0.0000096     0.0000000    -0.0000021     0.0000000
 l=   3
     0.0000000     0.0000000     0.0000000     0.0000000     0.0000000     0.0000000     0.0000000
     0.0000000     0.0000000     0.0000000     0.0000000     0.0000000     0.0000000     0.0000000
     0.0000000     0.0000000     0.0000000     0.0000000     0.0000000     0.0000000     0.0000000
     0.0000000     0.0000000     0.0000000     0.0000000     0.0000000     0.0000000     0.0000000
     0.0000000     0.0000000     0.0000000     0.0000000     0.0000000     0.0000000     0.0000000
     0.0000000     0.0000000     0.0000000     0.0000000     0.0000000     0.0000000     0.0000000
     0.0000000     0.0000000     0.0000000     0.0000000     0.0000000     0.0000000     0.0000000

 Ion:   86  E_soc:     -0.2815778
 l=   1
     0.0000000    -0.0488762    -0.0490152
    -0.0488762     0.0000000    -0.0429210
    -0.0490152    -0.0429210     0.0000000
 l=   2
     0.0000000    -0.0000097     0.0000000    -0.0000024     0.0000222
    -0.0000097     0.0000000     0.0000057    -0.0000021     0.0000137
     0.0000000     0.0000057     0.0000000    -0.0000030     0.0000000
    -0.0000024    -0.0000021    -0.0000030     0.0000000    -0.0000009
     0.0000222     0.0000137     0.0000000    -0.0000009     0.0000000
 l=   3
     0.0000000     0.0000000     0.0000000     0.0000000     0.0000000     0.0000000     0.0000000
     0.0000000     0.0000000     0.0000000     0.0000000     0.0000000     0.0000000     0.0000000
     0.0000000     0.0000000     0.0000000     0.0000000     0.0000000     0.0000000     0.0000000
     0.0000000     0.0000000     0.0000000     0.0000000     0.0000000     0.0000000     0.0000000
     0.0000000     0.0000000     0.0000000     0.0000000     0.0000000     0.0000000     0.0000000
     0.0000000     0.0000000     0.0000000     0.0000000     0.0000000     0.0000000     0.0000000
     0.0000000     0.0000000     0.0000000     0.0000000     0.0000000     0.0000000     0.0000000

 Ion:   87  E_soc:     -0.2815778
 l=   1
     0.0000000    -0.0488762    -0.0490152
    -0.0488762     0.0000000    -0.0429210
    -0.0490152    -0.0429210     0.0000000
 l=   2
     0.0000000    -0.0000097     0.0000000    -0.0000024     0.0000222
    -0.0000097     0.0000000     0.0000057    -0.0000021     0.0000137
     0.0000000     0.0000057     0.0000000    -0.0000030     0.0000000
    -0.0000024    -0.0000021    -0.0000030     0.0000000    -0.0000009
     0.0000222     0.0000137     0.0000000    -0.0000009     0.0000000
 l=   3
     0.0000000     0.0000000     0.0000000     0.0000000     0.0000000     0.0000000     0.0000000
     0.0000000     0.0000000     0.0000000     0.0000000     0.0000000     0.0000000     0.0000000
     0.0000000     0.0000000     0.0000000     0.0000000     0.0000000     0.0000000     0.0000000
     0.0000000     0.0000000     0.0000000     0.0000000     0.0000000     0.0000000     0.0000000
     0.0000000     0.0000000     0.0000000     0.0000000     0.0000000     0.0000000     0.0000000
     0.0000000     0.0000000     0.0000000     0.0000000     0.0000000     0.0000000     0.0000000
     0.0000000     0.0000000     0.0000000     0.0000000     0.0000000     0.0000000     0.0000000

 Ion:   88  E_soc:     -0.2789718
 l=   1
     0.0000000    -0.0477310    -0.0485261
    -0.0477310     0.0000000    -0.0432445
    -0.0485261    -0.0432445     0.0000000
 l=   2
     0.0000000    -0.0000078     0.0000000    -0.0000024     0.0000198
    -0.0000078     0.0000000     0.0000044    -0.0000024     0.0000096
     0.0000000     0.0000044     0.0000000    -0.0000034     0.0000000
    -0.0000024    -0.0000024    -0.0000034     0.0000000    -0.0000021
     0.0000198     0.0000096     0.0000000    -0.0000021     0.0000000
 l=   3
     0.0000000     0.0000000     0.0000000     0.0000000     0.0000000     0.0000000     0.0000000
     0.0000000     0.0000000     0.0000000     0.0000000     0.0000000     0.0000000     0.0000000
     0.0000000     0.0000000     0.0000000     0.0000000     0.0000000     0.0000000     0.0000000
     0.0000000     0.0000000     0.0000000     0.0000000     0.0000000     0.0000000     0.0000000
     0.0000000     0.0000000     0.0000000     0.0000000     0.0000000     0.0000000     0.0000000
     0.0000000     0.0000000     0.0000000     0.0000000     0.0000000     0.0000000     0.0000000
     0.0000000     0.0000000     0.0000000     0.0000000     0.0000000     0.0000000     0.0000000

 Ion:   89  E_soc:     -0.2849460
 l=   1
     0.0000000    -0.0430981    -0.0492958
    -0.0430981     0.0000000    -0.0500964
    -0.0492958    -0.0500964     0.0000000
 l=   2
     0.0000000    -0.0000019     0.0000000    -0.0000070     0.0000171
    -0.0000019     0.0000000    -0.0000023    -0.0000023    -0.0000016
     0.0000000    -0.0000023     0.0000000     0.0000043     0.0000000
    -0.0000070    -0.0000023     0.0000043     0.0000000     0.0000110
     0.0000171    -0.0000016     0.0000000     0.0000110     0.0000000
 l=   3
     0.0000000     0.0000000     0.0000000     0.0000000     0.0000000     0.0000000     0.0000000
     0.0000000     0.0000000     0.0000000     0.0000000     0.0000000     0.0000000     0.0000000
     0.0000000     0.0000000     0.0000000     0.0000000     0.0000000     0.0000000     0.0000000
     0.0000000     0.0000000     0.0000000     0.0000000     0.0000000     0.0000000     0.0000000
     0.0000000     0.0000000     0.0000000     0.0000000     0.0000000     0.0000000     0.0000000
     0.0000000     0.0000000     0.0000000     0.0000000     0.0000000     0.0000000     0.0000000
     0.0000000     0.0000000     0.0000000     0.0000000     0.0000000     0.0000000     0.0000000

 Ion:   90  E_soc:     -0.2849231
 l=   1
     0.0000000    -0.0430977    -0.0492889
    -0.0430977     0.0000000    -0.0500922
    -0.0492889    -0.0500922     0.0000000
 l=   2
     0.0000000    -0.0000019     0.0000000    -0.0000070     0.0000171
    -0.0000019     0.0000000    -0.0000023    -0.0000023    -0.0000016
     0.0000000    -0.0000023     0.0000000     0.0000043     0.0000000
    -0.0000070    -0.0000023     0.0000043     0.0000000     0.0000110
     0.0000171    -0.0000016     0.0000000     0.0000110     0.0000000
 l=   3
     0.0000000     0.0000000     0.0000000     0.0000000     0.0000000     0.0000000     0.0000000
     0.0000000     0.0000000     0.0000000     0.0000000     0.0000000     0.0000000     0.0000000
     0.0000000     0.0000000     0.0000000     0.0000000     0.0000000     0.0000000     0.0000000
     0.0000000     0.0000000     0.0000000     0.0000000     0.0000000     0.0000000     0.0000000
     0.0000000     0.0000000     0.0000000     0.0000000     0.0000000     0.0000000     0.0000000
     0.0000000     0.0000000     0.0000000     0.0000000     0.0000000     0.0000000     0.0000000
     0.0000000     0.0000000     0.0000000     0.0000000     0.0000000     0.0000000     0.0000000

 Ion:   91  E_soc:     -0.2849231
 l=   1
     0.0000000    -0.0430977    -0.0492889
    -0.0430977     0.0000000    -0.0500922
    -0.0492889    -0.0500922     0.0000000
 l=   2
     0.0000000    -0.0000019     0.0000000    -0.0000070     0.0000171
    -0.0000019     0.0000000    -0.0000023    -0.0000023    -0.0000016
     0.0000000    -0.0000023     0.0000000     0.0000043     0.0000000
    -0.0000070    -0.0000023     0.0000043     0.0000000     0.0000110
     0.0000171    -0.0000016     0.0000000     0.0000110     0.0000000
 l=   3
     0.0000000     0.0000000     0.0000000     0.0000000     0.0000000     0.0000000     0.0000000
     0.0000000     0.0000000     0.0000000     0.0000000     0.0000000     0.0000000     0.0000000
     0.0000000     0.0000000     0.0000000     0.0000000     0.0000000     0.0000000     0.0000000
     0.0000000     0.0000000     0.0000000     0.0000000     0.0000000     0.0000000     0.0000000
     0.0000000     0.0000000     0.0000000     0.0000000     0.0000000     0.0000000     0.0000000
     0.0000000     0.0000000     0.0000000     0.0000000     0.0000000     0.0000000     0.0000000
     0.0000000     0.0000000     0.0000000     0.0000000     0.0000000     0.0000000     0.0000000

 Ion:   92  E_soc:     -0.2849460
 l=   1
     0.0000000    -0.0430981    -0.0492958
    -0.0430981     0.0000000    -0.0500964
    -0.0492958    -0.0500964     0.0000000
 l=   2
     0.0000000    -0.0000019     0.0000000    -0.0000070     0.0000171
    -0.0000019     0.0000000    -0.0000023    -0.0000023    -0.0000016
     0.0000000    -0.0000023     0.0000000     0.0000043     0.0000000
    -0.0000070    -0.0000023     0.0000043     0.0000000     0.0000110
     0.0000171    -0.0000016     0.0000000     0.0000110     0.0000000
 l=   3
     0.0000000     0.0000000     0.0000000     0.0000000     0.0000000     0.0000000     0.0000000
     0.0000000     0.0000000     0.0000000     0.0000000     0.0000000     0.0000000     0.0000000
     0.0000000     0.0000000     0.0000000     0.0000000     0.0000000     0.0000000     0.0000000
     0.0000000     0.0000000     0.0000000     0.0000000     0.0000000     0.0000000     0.0000000
     0.0000000     0.0000000     0.0000000     0.0000000     0.0000000     0.0000000     0.0000000
     0.0000000     0.0000000     0.0000000     0.0000000     0.0000000     0.0000000     0.0000000
     0.0000000     0.0000000     0.0000000     0.0000000     0.0000000     0.0000000     0.0000000

 Ion:   93  E_soc:     -0.2849231
 l=   1
     0.0000000    -0.0430977    -0.0492889
    -0.0430977     0.0000000    -0.0500922
    -0.0492889    -0.0500922     0.0000000
 l=   2
     0.0000000    -0.0000019     0.0000000    -0.0000070     0.0000171
    -0.0000019     0.0000000    -0.0000023    -0.0000023    -0.0000016
     0.0000000    -0.0000023     0.0000000     0.0000043     0.0000000
    -0.0000070    -0.0000023     0.0000043     0.0000000     0.0000110
     0.0000171    -0.0000016     0.0000000     0.0000110     0.0000000
 l=   3
     0.0000000     0.0000000     0.0000000     0.0000000     0.0000000     0.0000000     0.0000000
     0.0000000     0.0000000     0.0000000     0.0000000     0.0000000     0.0000000     0.0000000
     0.0000000     0.0000000     0.0000000     0.0000000     0.0000000     0.0000000     0.0000000
     0.0000000     0.0000000     0.0000000     0.0000000     0.0000000     0.0000000     0.0000000
     0.0000000     0.0000000     0.0000000     0.0000000     0.0000000     0.0000000     0.0000000
     0.0000000     0.0000000     0.0000000     0.0000000     0.0000000     0.0000000     0.0000000
     0.0000000     0.0000000     0.0000000     0.0000000     0.0000000     0.0000000     0.0000000

 Ion:   94  E_soc:     -0.2849460
 l=   1
     0.0000000    -0.0430981    -0.0492958
    -0.0430981     0.0000000    -0.0500964
    -0.0492958    -0.0500964     0.0000000
 l=   2
     0.0000000    -0.0000019     0.0000000    -0.0000070     0.0000171
    -0.0000019     0.0000000    -0.0000023    -0.0000023    -0.0000016
     0.0000000    -0.0000023     0.0000000     0.0000043     0.0000000
    -0.0000070    -0.0000023     0.0000043     0.0000000     0.0000110
     0.0000171    -0.0000016     0.0000000     0.0000110     0.0000000
 l=   3
     0.0000000     0.0000000     0.0000000     0.0000000     0.0000000     0.0000000     0.0000000
     0.0000000     0.0000000     0.0000000     0.0000000     0.0000000     0.0000000     0.0000000
     0.0000000     0.0000000     0.0000000     0.0000000     0.0000000     0.0000000     0.0000000
     0.0000000     0.0000000     0.0000000     0.0000000     0.0000000     0.0000000     0.0000000
     0.0000000     0.0000000     0.0000000     0.0000000     0.0000000     0.0000000     0.0000000
     0.0000000     0.0000000     0.0000000     0.0000000     0.0000000     0.0000000     0.0000000
     0.0000000     0.0000000     0.0000000     0.0000000     0.0000000     0.0000000     0.0000000

 Ion:   95  E_soc:     -0.2849460
 l=   1
     0.0000000    -0.0430981    -0.0492958
    -0.0430981     0.0000000    -0.0500964
    -0.0492958    -0.0500964     0.0000000
 l=   2
     0.0000000    -0.0000019     0.0000000    -0.0000070     0.0000171
    -0.0000019     0.0000000    -0.0000023    -0.0000023    -0.0000016
     0.0000000    -0.0000023     0.0000000     0.0000043     0.0000000
    -0.0000070    -0.0000023     0.0000043     0.0000000     0.0000110
     0.0000171    -0.0000016     0.0000000     0.0000110     0.0000000
 l=   3
     0.0000000     0.0000000     0.0000000     0.0000000     0.0000000     0.0000000     0.0000000
     0.0000000     0.0000000     0.0000000     0.0000000     0.0000000     0.0000000     0.0000000
     0.0000000     0.0000000     0.0000000     0.0000000     0.0000000     0.0000000     0.0000000
     0.0000000     0.0000000     0.0000000     0.0000000     0.0000000     0.0000000     0.0000000
     0.0000000     0.0000000     0.0000000     0.0000000     0.0000000     0.0000000     0.0000000
     0.0000000     0.0000000     0.0000000     0.0000000     0.0000000     0.0000000     0.0000000
     0.0000000     0.0000000     0.0000000     0.0000000     0.0000000     0.0000000     0.0000000

 Ion:   96  E_soc:     -0.2849231
 l=   1
     0.0000000    -0.0430977    -0.0492889
    -0.0430977     0.0000000    -0.0500922
    -0.0492889    -0.0500922     0.0000000
 l=   2
     0.0000000    -0.0000019     0.0000000    -0.0000070     0.0000171
    -0.0000019     0.0000000    -0.0000023    -0.0000023    -0.0000016
     0.0000000    -0.0000023     0.0000000     0.0000043     0.0000000
    -0.0000070    -0.0000023     0.0000043     0.0000000     0.0000110
     0.0000171    -0.0000016     0.0000000     0.0000110     0.0000000
 l=   3
     0.0000000     0.0000000     0.0000000     0.0000000     0.0000000     0.0000000     0.0000000
     0.0000000     0.0000000     0.0000000     0.0000000     0.0000000     0.0000000     0.0000000
     0.0000000     0.0000000     0.0000000     0.0000000     0.0000000     0.0000000     0.0000000
     0.0000000     0.0000000     0.0000000     0.0000000     0.0000000     0.0000000     0.0000000
     0.0000000     0.0000000     0.0000000     0.0000000     0.0000000     0.0000000     0.0000000
     0.0000000     0.0000000     0.0000000     0.0000000     0.0000000     0.0000000     0.0000000
     0.0000000     0.0000000     0.0000000     0.0000000     0.0000000     0.0000000     0.0000000

 total amount of memory used by VASP on root node   392927. kBytes
========================================================================

   base      :      30000. kBytes
   nonl-proj :      73667. kBytes
   fftplans  :      22714. kBytes
   grid      :      35610. kBytes
   one-center:        248. kBytes
   wavefun   :     230688. kBytes
 
  
  
 General timing and accounting informations for this job:
 ========================================================
  
                  Total CPU time used (sec):     8772.788
                            User time (sec):     8758.779
                          System time (sec):       14.009
                         Elapsed time (sec):     8801.025
  
                   Maximum memory used (kb):      412400.
                   Average memory used (kb):           0.
  
                          Minor page faults:       594186
                          Major page faults:            0
                 Voluntary context switches:        15169
