    2    2    1    1
  0.3405476E+02  0.4583961E-09  0.4583961E-09  0.4583961E-09  0.5000000E-15
  1.000000000000000E-004
  CAR 
 Name                                    
     18    145     16
 
  0.0000000E+00  0.0000000E+00  0.0000000E+00  0.4629630E-02
    1       -9.084329   1.000000
    2       -6.141543   1.000000
    3       -6.141543   1.000000
    4       -6.141543   1.000000
    5       -5.876183   1.000000
    6       -5.876183   1.000000
    7        2.150357   1.000000
    8        2.150357   1.000000
    9        2.150357   1.000000
   10        2.698339   0.000000
   11        6.650316   0.000000
   12        6.650316   0.000000
   13        6.650316   0.000000
   14        9.363596   0.000000
   15       11.483516   0.000000
   16       11.483518   0.000000
 
  0.1666667E+00  0.0000000E+00  0.0000000E+00  0.3703704E-01
    1       -8.983103   1.000000
    2       -6.122702   1.000000
    3       -6.122702   1.000000
    4       -6.060167   1.000000
    5       -5.877505   1.000000
    6       -5.877505   1.000000
    7        0.344703   1.000000
    8        1.918371   1.000000
    9        1.918371   1.000000
   10        3.848986   0.000000
   11        6.739382   0.000000
   12        6.989825   0.000000
   13        6.989825   0.000000
   14       10.373717   0.000000
   15       10.553022   0.000000
   16       10.553022   0.000000
 
  0.3333333E+00  0.0000000E+00  0.0000000E+00  0.3703704E-01
    1       -8.780070   1.000000
    2       -6.090225   1.000000
    3       -6.090225   1.000000
    4       -5.873791   1.000000
    5       -5.873791   1.000000
    6       -5.783877   1.000000
    7       -1.499419   1.000000
    8        1.532161   1.000000
    9        1.532161   1.000000
   10        3.916076   0.000000
   11        7.277293   0.000000
   12        7.277293   0.000000
   13        8.236393   0.000000
   14       10.009451   0.000000
   15       10.951765   0.000000
   16       10.951765   0.000000
 
  0.5000000E+00  0.0000000E+00  0.0000000E+00  0.1851852E-01
    1       -8.680269   1.000000
    2       -6.077563   1.000000
    3       -6.077563   1.000000
    4       -5.867725   1.000000
    5       -5.867725   1.000000
    6       -5.534250   1.000000
    7       -2.344972   1.000000
    8        1.364953   1.000000
    9        1.364953   1.000000
   10        3.805993   0.000000
   11        7.243834   0.000000
   12        7.243834   0.000000
   13        9.008274   0.000000
   14       10.588504   0.000000
   15       12.361867   0.000000
   16       12.361867   0.000000
 
  0.1666667E+00  0.1666667E+00  0.0000000E+00  0.2777778E-01
    1       -8.949699   1.000000
    2       -6.103682   1.000000
    3       -6.103682   1.000000
    4       -6.061344   1.000000
    5       -5.884922   1.000000
    6       -5.868528   1.000000
    7        0.333206   1.000000
    8        1.534371   1.000000
    9        1.534371   1.000000
   10        4.512152   0.000000
   11        5.721880   0.000000
   12        7.601017   0.000000
   13        7.601017   0.000000
   14        9.213794   0.000000
   15       11.141368   0.000000
   16       11.721300   0.000000
 
  0.3333333E+00  0.1666667E+00  0.0000000E+00  0.1111111E+00
    1       -8.781653   1.000000
    2       -6.078522   1.000000
    3       -6.066966   1.000000
    4       -5.929822   1.000000
    5       -5.862849   1.000000
    6       -5.807721   1.000000
    7       -1.045261   1.000000
    8        0.999307   1.000000
    9        1.121451   1.000000
   10        4.888080   0.000000
   11        6.061503   0.000000
   12        7.742109   0.000000
   13        8.168330   0.000000
   14        9.912058   0.000000
   15       11.752874   0.000000
   16       11.844014   0.000000
 
  0.5000000E+00  0.1666667E+00  0.0000000E+00  0.1111111E+00
    1       -8.650164   1.000000
    2       -6.063630   1.000000
    3       -6.051195   1.000000
    4       -5.893554   1.000000
    5       -5.864693   1.000000
    6       -5.510118   1.000000
    7       -2.132973   1.000000
    8        0.464075   1.000000
    9        1.039260   1.000000
   10        4.794670   0.000000
   11        6.729430   0.000000
   12        7.993417   0.000000
   13        8.585608   0.000000
   14       10.795259   0.000000
   15       12.002616   0.000000
   16       12.453760   0.000000
 
 -0.3333333E+00  0.1666667E+00  0.0000000E+00  0.1111111E+00
    1       -8.682550   1.000000
    2       -6.065293   1.000000
    3       -6.064788   1.000000
    4       -5.880269   1.000000
    5       -5.879526   1.000000
    6       -5.593778   1.000000
    7       -1.867797   1.000000
    8        0.328691   1.000000
    9        1.340430   1.000000
   10        4.847726   0.000000
   11        6.973318   0.000000
   12        7.687835   0.000000
   13        8.348682   0.000000
   14       10.545021   0.000000
   15       11.155208   0.000000
   16       12.357801   0.000000
 
 -0.1666667E+00  0.1666667E+00  0.0000000E+00  0.5555556E-01
    1       -8.848240   1.000000
    2       -6.101113   1.000000
    3       -6.087000   1.000000
    4       -5.932957   1.000000
    5       -5.886323   1.000000
    6       -5.854503   1.000000
    7       -0.637689   1.000000
    8        0.872623   1.000000
    9        1.796433   1.000000
   10        4.679588   0.000000
   11        6.711363   0.000000
   12        7.219551   0.000000
   13        7.525949   0.000000
   14        9.800276   0.000000
   15       10.992696   0.000000
   16       11.740349   0.000000
 
  0.3333333E+00  0.3333333E+00  0.0000000E+00  0.2777778E-01
    1       -8.683814   1.000000
    2       -6.021410   1.000000
    3       -6.021410   1.000000
    4       -5.970076   1.000000
    5       -5.853216   1.000000
    6       -5.694666   1.000000
    7       -1.397132   1.000000
    8        0.631868   1.000000
    9        0.631868   1.000000
   10        4.749081   0.000000
   11        5.160794   0.000000
   12        9.338054   0.000000
   13        9.538476   0.000000
   14        9.538476   0.000000
   15       12.377988   0.000000
   16       13.927860   0.000000
 
  0.5000000E+00  0.3333333E+00  0.0000000E+00  0.1111111E+00
    1       -8.588486   1.000000
    2       -6.020092   1.000000
    3       -5.999929   1.000000
    4       -5.944392   1.000000
    5       -5.854401   1.000000
    6       -5.445138   1.000000
    7       -2.020577   1.000000
    8       -0.041961   1.000000
    9        0.497694   1.000000
   10        4.838235   0.000000
   11        5.734898   0.000000
   12        8.987380   0.000000
   13        9.738099   0.000000
   14       11.069048   0.000000
   15       12.755653   0.000000
   16       13.491033   0.000000
 
 -0.3333333E+00  0.3333333E+00  0.0000000E+00  0.5555556E-01
    1       -8.588867   1.000000
    2       -6.039953   1.000000
    3       -6.019226   1.000000
    4       -5.905248   1.000000
    5       -5.871939   1.000000
    6       -5.382980   1.000000
    7       -2.057151   1.000000
    8       -0.505456   1.000000
    9        0.810121   1.000000
   10        5.064751   0.000000
   11        7.149349   0.000000
   12        8.893381   0.000000
   13        8.995536   0.000000
   14        9.483280   0.000000
   15       11.071448   0.000000
   16       14.179740   0.000000
 
  0.5000000E+00  0.5000000E+00  0.0000000E+00  0.1388889E-01
    1       -8.556972   1.000000
    2       -5.983877   1.000000
    3       -5.976493   1.000000
    4       -5.976493   1.000000
    5       -5.845527   1.000000
    6       -5.398725   1.000000
    7       -2.226455   1.000000
    8        0.262320   1.000000
    9        0.262320   1.000000
   10        4.592154   0.000000
   11        4.701616   0.000000
   12       10.781934   0.000000
   13       11.128637   0.000000
   14       11.128637   0.000000
   15       12.928301   0.000000
   16       13.595339   0.000000
 
  0.5000000E+00  0.3333333E+00  0.1666667E+00  0.1111111E+00
    1       -8.651583   1.000000
    2       -6.045512   1.000000
    3       -6.037517   1.000000
    4       -5.919324   1.000000
    5       -5.863942   1.000000
    6       -5.570279   1.000000
    7       -1.703828   1.000000
    8        0.041780   1.000000
    9        0.810983   1.000000
   10        5.607959   0.000000
   11        6.153370   0.000000
   12        7.324263   0.000000
   13        9.433348   0.000000
   14       10.225340   0.000000
   15       12.293957   0.000000
   16       13.459333   0.000000
 
 -0.3333333E+00  0.3333333E+00  0.1666667E+00  0.1111111E+00
    1       -8.588863   1.000000
    2       -6.037894   1.000000
    3       -6.022627   1.000000
    4       -5.902229   1.000000
    5       -5.873728   1.000000
    6       -5.382189   1.000000
    7       -2.093749   1.000000
    8       -0.278108   1.000000
    9        0.524649   1.000000
   10        5.741466   0.000000
   11        6.645486   0.000000
   12        7.777981   0.000000
   13        9.298864   0.000000
   14        9.980178   0.000000
   15       12.496358   0.000000
   16       13.253948   0.000000
 
 -0.3333333E+00  0.5000000E+00  0.1666667E+00  0.5555556E-01
    1       -8.558247   1.000000
    2       -6.008742   1.000000
    3       -6.008740   1.000000
    4       -5.926044   1.000000
    5       -5.863750   1.000000
    6       -5.334888   1.000000
    7       -2.138690   1.000000
    8       -0.095962   1.000000
    9       -0.007266   1.000000
   10        5.757855   0.000000
   11        5.793872   0.000000
   12        8.699873   0.000000
   13        8.980490   0.000000
   14       11.573634   0.000000
   15       13.115377   0.000000
   16       13.368539   0.000000
 
  0.0000000E+00  0.0000000E+00  0.0000000E+00  0.0000000E+00
    1       -9.084329   1.000000
    2       -6.141543   1.000000
    3       -6.141543   1.000000
    4       -6.141543   1.000000
    5       -5.876183   1.000000
    6       -5.876183   1.000000
    7        2.150357   1.000000
    8        2.150357   1.000000
    9        2.150357   1.000000
   10        2.698339   0.000000
   11        6.650316   0.000000
   12        6.650316   0.000000
   13        6.650316   0.000000
   14        9.363596   0.000000
   15       11.483517   0.000000
   16       11.483551   0.000000
 
  0.1612903E-01  0.0000000E+00  0.1612903E-01  0.0000000E+00
    1       -9.082962   1.000000
    2       -6.141162   1.000000
    3       -6.141162   1.000000
    4       -6.140822   1.000000
    5       -5.876319   1.000000
    6       -5.876105   1.000000
    7        2.079493   1.000000
    8        2.142972   1.000000
    9        2.142972   1.000000
   10        2.770197   0.000000
   11        6.635145   0.000000
   12        6.660815   0.000000
   13        6.660815   0.000000
   14        9.385913   0.000000
   15       11.383099   0.000000
   16       11.485767   0.000000
 
  0.3225807E-01  0.0000000E+00  0.3225807E-01  0.0000000E+00
    1       -9.078842   1.000000
    2       -6.140025   1.000000
    3       -6.140025   1.000000
    4       -6.138656   1.000000
    5       -5.876721   1.000000
    6       -5.875868   1.000000
    7        1.924789   1.000000
    8        2.121073   1.000000
    9        2.121073   1.000000
   10        2.927795   0.000000
   11        6.591189   0.000000
   12        6.692073   0.000000
   13        6.692073   0.000000
   14        9.451097   0.000000
   15       11.170168   0.000000
   16       11.492522   0.000000
 
  0.4838710E-01  0.0000000E+00  0.4838710E-01  0.0000000E+00
    1       -9.072014   1.000000
    2       -6.138144   1.000000
    3       -6.138144   1.000000
    4       -6.135029   1.000000
    5       -5.877381   1.000000
    6       -5.875481   1.000000
    7        1.742463   1.000000
    8        2.085381   1.000000
    9        2.085381   1.000000
   10        3.114620   0.000000
   11        6.522540   0.000000
   12        6.743359   0.000000
   13        6.743359   0.000000
   14        9.554202   0.000000
   15       10.924592   0.000000
   16       11.503760   0.000000
 
  0.6451613E-01  0.0000000E+00  0.6451613E-01  0.0000000E+00
    1       -9.062546   1.000000
    2       -6.135534   1.000000
    3       -6.135534   1.000000
    4       -6.129908   1.000000
    5       -5.878276   1.000000
    6       -5.874941   1.000000
    7        1.551005   1.000000
    8        2.037006   1.000000
    9        2.037006   1.000000
   10        3.311666   0.000000
   11        6.434586   0.000000
   12        6.813567   0.000000
   13        6.813567   0.000000
   14        9.687324   0.000000
   15       10.674691   0.000000
   16       11.519492   0.000000
 
  0.8064516E-01  0.0000000E+00  0.8064516E-01  0.0000000E+00
    1       -9.050534   1.000000
    2       -6.132211   1.000000
    3       -6.132211   1.000000
    4       -6.123265   1.000000
    5       -5.879366   1.000000
    6       -5.874258   1.000000
    7        1.356570   1.000000
    8        1.977358   1.000000
    9        1.977358   1.000000
   10        3.512015   0.000000
   11        6.332799   0.000000
   12        6.901306   0.000000
   13        6.901306   0.000000
   14        9.835276   0.000000
   15       10.440534   0.000000
   16       11.539679   0.000000
 
  0.9677421E-01  0.0000000E+00  0.9677421E-01  0.0000000E+00
    1       -9.036119   1.000000
    2       -6.128199   1.000000
    3       -6.128199   1.000000
    4       -6.115062   1.000000
    5       -5.880594   1.000000
    6       -5.873438   1.000000
    7        1.161663   1.000000
    8        1.908011   1.000000
    9        1.908011   1.000000
   10        3.712106   0.000000
   11        6.222040   0.000000
   12        7.005026   0.000000
   13        7.005026   0.000000
   14        9.934469   0.000000
   15       10.286655   0.000000
   16       11.564292   0.000000
 
  0.1129032E+00  0.0000000E+00  0.1129032E+00  0.0000000E+00
    1       -9.019433   1.000000
    2       -6.123532   1.000000
    3       -6.123532   1.000000
    4       -6.105270   1.000000
    5       -5.881891   1.000000
    6       -5.872491   1.000000
    7        0.967523   1.000000
    8        1.830595   1.000000
    9        1.830595   1.000000
   10        3.909328   0.000000
   11        6.106323   0.000000
   12        7.123110   0.000000
   13        7.123110   0.000000
   14        9.831755   0.000000
   15       10.366280   0.000000
   16       11.593316   0.000000
 
  0.1290323E+00  0.0000000E+00  0.1290323E+00  0.0000000E+00
    1       -9.000634   1.000000
    2       -6.118235   1.000000
    3       -6.118235   1.000000
    4       -6.093875   1.000000
    5       -5.883147   1.000000
    6       -5.871424   1.000000
    7        0.774841   1.000000
    8        1.746727   1.000000
    9        1.746727   1.000000
   10        4.101228   0.000000
   11        5.988865   0.000000
   12        7.253992   0.000000
   13        7.253992   0.000000
   14        9.639106   0.000000
   15       10.567640   0.000000
   16       11.626709   0.000000
 
  0.1451613E+00  0.0000000E+00  0.1451613E+00  0.0000000E+00
    1       -8.979921   1.000000
    2       -6.112351   1.000000
    3       -6.112351   1.000000
    4       -6.080906   1.000000
    5       -5.884212   1.000000
    6       -5.870246   1.000000
    7        0.584065   1.000000
    8        1.657945   1.000000
    9        1.657945   1.000000
   10        4.285094   0.000000
   11        5.872258   0.000000
   12        7.396177   0.000000
   13        7.396177   0.000000
   14        9.445430   0.000000
   15       10.802443   0.000000
   16       11.664411   0.000000
 
  0.1612903E+00  0.0000000E+00  0.1612903E+00  0.0000000E+00
    1       -8.957505   1.000000
    2       -6.105931   1.000000
    3       -6.105931   1.000000
    4       -6.066456   1.000000
    5       -5.884857   1.000000
    6       -5.868971   1.000000
    7        0.395518   1.000000
    8        1.565675   1.000000
    9        1.565675   1.000000
   10        4.457741   0.000000
   11        5.758701   0.000000
   12        7.548313   0.000000
   13        7.548313   0.000000
   14        9.268042   0.000000
   15       11.054513   0.000000
   16       11.706382   0.000000
 
  0.1774194E+00  0.0000000E+00  0.1774194E+00  0.0000000E+00
    1       -8.933655   1.000000
    2       -6.099031   1.000000
    3       -6.099031   1.000000
    4       -6.050749   1.000000
    5       -5.884727   1.000000
    6       -5.867616   1.000000
    7        0.209447   1.000000
    8        1.471211   1.000000
    9        1.471211   1.000000
   10        4.615302   0.000000
   11        5.650256   0.000000
   12        7.709159   0.000000
   13        7.709159   0.000000
   14        9.113772   0.000000
   15       11.318566   0.000000
   16       11.752512   0.000000
 
  0.1935484E+00  0.0000000E+00  0.1935484E+00  0.0000000E+00
    1       -8.908612   1.000000
    2       -6.091708   1.000000
    3       -6.091708   1.000000
    4       -6.034207   1.000000
    5       -5.883262   1.000000
    6       -5.866192   1.000000
    7        0.026120   1.000000
    8        1.375722   1.000000
    9        1.375722   1.000000
   10        4.753019   0.000000
   11        5.549265   0.000000
   12        7.877631   0.000000
   13        7.877631   0.000000
   14        8.987445   0.000000
   15       11.591653   0.000000
   16       11.802718   0.000000
 
  0.2096774E+00  0.0000000E+00  0.2096774E+00  0.0000000E+00
    1       -8.882639   1.000000
    2       -6.084027   1.000000
    3       -6.084027   1.000000
    4       -6.017570   1.000000
    5       -5.879618   1.000000
    6       -5.864716   1.000000
    7       -0.154201   1.000000
    8        1.280249   1.000000
    9        1.280249   1.000000
   10        4.864876   0.000000
   11        5.458992   0.000000
   12        8.052766   0.000000
   13        8.052766   0.000000
   14        8.893162   0.000000
   15       11.856861   0.000000
   16       11.871448   0.000000
 
  0.2258065E+00  0.0000000E+00  0.2258065E+00  0.0000000E+00
    1       -8.856023   1.000000
    2       -6.076059   1.000000
    3       -6.076059   1.000000
    4       -6.001979   1.000000
    5       -5.872564   1.000000
    6       -5.863202   1.000000
    7       -0.331236   1.000000
    8        1.185718   1.000000
    9        1.185718   1.000000
   10        4.943082   0.000000
   11        5.384595   0.000000
   12        8.233711   0.000000
   13        8.233711   0.000000
   14        8.834313   0.000000
   15       11.914803   0.000000
   16       12.155741   0.000000
 
  0.2419355E+00  0.0000000E+00  0.2419355E+00  0.0000000E+00
    1       -8.829055   1.000000
    2       -6.067872   1.000000
    3       -6.067872   1.000000
    4       -5.988823   1.000000
    5       -5.861660   1.000000
    6       -5.860651   1.000000
    7       -0.504657   1.000000
    8        1.092954   1.000000
    9        1.092954   1.000000
   10        4.979171   0.000000
   11        5.332665   0.000000
   12        8.419731   0.000000
   13        8.419731   0.000000
   14        8.813182   0.000000
   15       11.976355   0.000000
   16       12.442159   0.000000
 
  0.2580645E+00  0.0000000E+00  0.2580645E+00  0.0000000E+00
    1       -8.802051   1.000000
    2       -6.059547   1.000000
    3       -6.059547   1.000000
    4       -5.979160   1.000000
    5       -5.860109   1.000000
    6       -5.842807   1.000000
    7       -0.674113   1.000000
    8        1.002679   1.000000
    9        1.002679   1.000000
   10        4.971974   0.000000
   11        5.303833   0.000000
   12        8.610141   0.000000
   13        8.610141   0.000000
   14        8.830414   0.000000
   15       12.041264   0.000000
   16       12.727881   0.000000
 
  0.2741936E+00  0.0000000E+00  0.2741936E+00  0.0000000E+00
    1       -8.775301   1.000000
    2       -6.051164   1.000000
    3       -6.051164   1.000000
    4       -5.973119   1.000000
    5       -5.858565   1.000000
    6       -5.818940   1.000000
    7       -0.839149   1.000000
    8        0.915559   1.000000
    9        0.915559   1.000000
   10        4.934939   0.000000
   11        5.285784   0.000000
   12        8.804323   0.000000
   13        8.804323   0.000000
   14        8.884710   0.000000
   15       12.109251   0.000000
   16       13.009533   0.000000
 
  0.2903226E+00  0.0000000E+00  0.2903226E+00  0.0000000E+00
    1       -8.749077   1.000000
    2       -6.042815   1.000000
    3       -6.042815   1.000000
    4       -5.970034   1.000000
    5       -5.857042   1.000000
    6       -5.789834   1.000000
    7       -0.999241   1.000000
    8        0.832174   1.000000
    9        0.832174   1.000000
   10        4.884812   0.000000
   11        5.264517   0.000000
   12        8.972967   0.000000
   13        9.001671   0.000000
   14        9.001671   0.000000
   15       12.179950   0.000000
   16       13.282895   0.000000
 
  0.3064516E+00  0.0000000E+00  0.3064516E+00  0.0000000E+00
    1       -8.723659   1.000000
    2       -6.034590   1.000000
    3       -6.034590   1.000000
    4       -5.969026   1.000000
    5       -5.855559   1.000000
    6       -5.756571   1.000000
    7       -1.153791   1.000000
    8        0.753047   1.000000
    9        0.753047   1.000000
   10        4.831778   0.000000
   11        5.233708   0.000000
   12        9.090696   0.000000
   13        9.201571   0.000000
   14        9.201571   0.000000
   15       12.252922   0.000000
   16       13.542756   0.000000
 
  0.3225806E+00  0.0000000E+00  0.3225806E+00  0.0000000E+00
    1       -8.699319   1.000000
    2       -6.026582   1.000000
    3       -6.026582   1.000000
    4       -5.969365   1.000000
    5       -5.854130   1.000000
    6       -5.720187   1.000000
    7       -1.302105   1.000000
    8        0.678641   1.000000
    9        0.678641   1.000000
   10        4.780754   0.000000
   11        5.192788   0.000000
   12        9.232655   0.000000
   13        9.403326   0.000000
   14        9.403326   0.000000
   15       12.327592   0.000000
   16       13.782726   0.000000
 
  0.3387097E+00  0.0000000E+00  0.3387097E+00  0.0000000E+00
    1       -8.676309   1.000000
    2       -6.018883   1.000000
    3       -6.018883   1.000000
    4       -5.970534   1.000000
    5       -5.852772   1.000000
    6       -5.681627   1.000000
    7       -1.443396   1.000000
    8        0.609374   1.000000
    9        0.609374   1.000000
   10        4.734109   0.000000
   11        5.143671   0.000000
   12        9.393374   0.000000
   13        9.606142   0.000000
   14        9.606142   0.000000
   15       12.403283   0.000000
   16       13.994976   0.000000
 
  0.3548387E+00  0.0000000E+00  0.3548387E+00  0.0000000E+00
    1       -8.654866   1.000000
    2       -6.011577   1.000000
    3       -6.011577   1.000000
    4       -5.972179   1.000000
    5       -5.851496   1.000000
    6       -5.641798   1.000000
    7       -1.576751   1.000000
    8        0.545617   1.000000
    9        0.545617   1.000000
   10        4.693055   0.000000
   11        5.089012   0.000000
   12        9.567442   0.000000
   13        9.809023   0.000000
   14        9.809023   0.000000
   15       12.479151   0.000000
   16       14.169920   0.000000
 
  0.3709677E+00  0.0000000E+00  0.3709677E+00  0.0000000E+00
    1       -8.635173   1.000000
    2       -6.004755   1.000000
    3       -6.004755   1.000000
    4       -5.974049   1.000000
    5       -5.850317   1.000000
    6       -5.601634   1.000000
    7       -1.701134   1.000000
    8        0.487701   1.000000
    9        0.487701   1.000000
   10        4.658238   0.000000
   11        5.031443   0.000000
   12        9.749589   0.000000
   13       10.010664   0.000000
   14       10.010664   0.000000
   15       12.554145   0.000000
   16       14.296678   0.000000
 
  0.3870968E+00  0.0000000E+00  0.3870968E+00  0.0000000E+00
    1       -8.617407   1.000000
    2       -5.998507   1.000000
    3       -5.998507   1.000000
    4       -5.975982   1.000000
    5       -5.849244   1.000000
    6       -5.562140   1.000000
    7       -1.815402   1.000000
    8        0.435919   1.000000
    9        0.435919   1.000000
   10        4.630003   0.000000
   11        4.973294   0.000000
   12        9.934580   0.000000
   13       10.209297   0.000000
   14       10.209297   0.000000
   15       12.627008   0.000000
   16       14.365980   0.000000
 
  0.4032258E+00  0.0000000E+00  0.4032258E+00  0.0000000E+00
    1       -8.601719   1.000000
    2       -5.992912   1.000000
    3       -5.992912   1.000000
    4       -5.977852   1.000000
    5       -5.848291   1.000000
    6       -5.524405   1.000000
    7       -1.918313   1.000000
    8        0.390525   1.000000
    9        0.390525   1.000000
   10        4.608491   0.000000
   11        4.916539   0.000000
   12       10.116981   0.000000
   13       10.402440   0.000000
   14       10.402440   0.000000
   15       12.696220   0.000000
   16       14.380491   0.000000
 
  0.4193549E+00  0.0000000E+00  0.4193549E+00  0.0000000E+00
    1       -8.588241   1.000000
    2       -5.988045   1.000000
    3       -5.988045   1.000000
    4       -5.979566   1.000000
    5       -5.847467   1.000000
    6       -5.489594   1.000000
    7       -2.008561   1.000000
    8        0.351743   1.000000
    9        0.351743   1.000000
   10        4.593676   0.000000
   11        4.862842   0.000000
   12       10.290900   0.000000
   13       10.586564   0.000000
   14       10.586564   0.000000
   15       12.760033   0.000000
   16       14.244769   0.000000
 
  0.4354839E+00  0.0000000E+00  0.4354839E+00  0.0000000E+00
    1       -8.577098   1.000000
    2       -5.983972   1.000000
    3       -5.983972   1.000000
    4       -5.981061   1.000000
    5       -5.846779   1.000000
    6       -5.458910   1.000000
    7       -2.084816   1.000000
    8        0.319758   1.000000
    9        0.319758   1.000000
   10        4.585341   0.000000
   11        4.813673   0.000000
   12       10.449715   0.000000
   13       10.756630   0.000000
   14       10.756630   0.000000
   15       12.816463   0.000000
   16       14.035390   0.000000
 
  0.4516129E+00  0.0000000E+00  0.4516129E+00  0.0000000E+00
    1       -8.568351   1.000000
    2       -5.982271   1.000000
    3       -5.980744   1.000000
    4       -5.980744   1.000000
    5       -5.846238   1.000000
    6       -5.433526   1.000000
    7       -2.145773   1.000000
    8        0.294718   1.000000
    9        0.294718   1.000000
   10        4.582929   0.000000
   11        4.770498   0.000000
   12       10.585931   0.000000
   13       10.905563   0.000000
   14       10.905563   0.000000
   15       12.863393   0.000000
   16       13.856650   0.000000
 
  0.4677419E+00  0.0000000E+00  0.4677419E+00  0.0000000E+00
    1       -8.562052   1.000000
    2       -5.983158   1.000000
    3       -5.978396   1.000000
    4       -5.978396   1.000000
    5       -5.845845   1.000000
    6       -5.414509   1.000000
    7       -2.190264   1.000000
    8        0.276748   1.000000
    9        0.276748   1.000000
   10        4.585242   0.000000
   11        4.735184   0.000000
   12       10.691524   0.000000
   13       11.024099   0.000000
   14       11.024099   0.000000
   15       12.898767   0.000000
   16       13.716862   0.000000
 
  0.4838710E+00  0.0000000E+00  0.4838710E+00  0.0000000E+00
    1       -8.558249   1.000000
    2       -5.983698   1.000000
    3       -5.976971   1.000000
    4       -5.976971   1.000000
    5       -5.845607   1.000000
    6       -5.402721   1.000000
    7       -2.217358   1.000000
    8        0.265931   1.000000
    9        0.265931   1.000000
   10        4.589741   0.000000
   11        4.710715   0.000000
   12       10.758787   0.000000
   13       11.101553   0.000000
   14       11.101553   0.000000
   15       12.920807   0.000000
   16       13.626655   0.000000
 
  0.5000000E+00  0.0000000E+00  0.5000000E+00  0.0000000E+00
    1       -8.556972   1.000000
    2       -5.983877   1.000000
    3       -5.976493   1.000000
    4       -5.976493   1.000000
    5       -5.845527   1.000000
    6       -5.398725   1.000000
    7       -2.226455   1.000000
    8        0.262320   1.000000
    9        0.262320   1.000000
   10        4.592154   0.000000
   11        4.701616   0.000000
   12       10.781934   0.000000
   13       11.128637   0.000000
   14       11.128637   0.000000
   15       12.928298   0.000000
   16       13.595288   0.000000
 
  0.4937500E+00  0.1875000E-01  0.5125000E+00  0.0000000E+00
    1       -8.557187   1.000000
    2       -5.986157   1.000000
    3       -5.977218   1.000000
    4       -5.973880   1.000000
    5       -5.845784   1.000000
    6       -5.398099   1.000000
    7       -2.223629   1.000000
    8        0.255782   1.000000
    9        0.257426   1.000000
   10        4.609228   0.000000
   11        4.719510   0.000000
   12       10.717000   0.000000
   13       11.065936   0.000000
   14       11.161162   0.000000
   15       12.935773   0.000000
   16       13.562582   0.000000
 
  0.4875000E+00  0.3750000E-01  0.5250000E+00  0.0000000E+00
    1       -8.557815   1.000000
    2       -5.990008   1.000000
    3       -5.979339   1.000000
    4       -5.969037   1.000000
    5       -5.846547   1.000000
    6       -5.396271   1.000000
    7       -2.215331   1.000000
    8        0.236344   1.000000
    9        0.243595   1.000000
   10        4.660262   0.000000
   11        4.772305   0.000000
   12       10.553837   0.000000
   13       10.903588   0.000000
   14       11.220460   0.000000
   15       12.957266   0.000000
   16       13.498308   0.000000
 
  0.4812500E+00  0.5625000E-01  0.5375000E+00  0.0000000E+00
    1       -8.558827   1.000000
    2       -5.993892   1.000000
    3       -5.982706   1.000000
    4       -5.963517   1.000000
    5       -5.847794   1.000000