 vasp.5.4.1 24Jun15 (build Nov 25 2015 16:01:35) complex                        
  
 executed on         CrayXC-Intel date 2016.05.26  09:49:09
 running on   96 total cores
 distrk:  each k-point on   24 cores,    4 groups
 distr:  one band on NCORES_PER_BAND=   6 cores,    4 groups


--------------------------------------------------------------------------------------------------------


 INCAR:
 POTCAR:   PAW Cd 03Mar1998                       
 POTCAR:   PAW Te 03Oct2001                       

 ----------------------------------------------------------------------------- 
|                                                                             |
|           W    W    AA    RRRRR   N    N  II  N    N   GGGG   !!!           |
|           W    W   A  A   R    R  NN   N  II  NN   N  G    G  !!!           |
|           W    W  A    A  R    R  N N  N  II  N N  N  G       !!!           |
|           W WW W  AAAAAA  RRRRR   N  N N  II  N  N N  G  GGG   !            |
|           WW  WW  A    A  R   R   N   NN  II  N   NN  G    G                |
|           W    W  A    A  R    R  N    N  II  N    N   GGGG   !!!           |
|                                                                             |
|      You have enabled k-point parallelism (KPAR>1).                         |
|      This developmental code was originally  written by Paul Kent at ORNL,  |
|      and carefully double checked in Vienna.                                |
|      GW as well as linear response parallelism added by Martijn Marsman     |
|      and Georg Kresse.                                                      |
|      Carefully verify results versus KPAR=1.                                |
|      Report problems to Paul Kent and Vienna.                               |
|                                                                             |
 ----------------------------------------------------------------------------- 

 POTCAR:   PAW Cd 03Mar1998                       
   VRHFIN =Cd : s2 d10                                                          
   LEXCH  = CA                                                                  
   EATOM  =  1296.0499 eV,   95.2570 Ry                                         
                                                                                
   TITEL  = PAW Cd 03Mar1998                                                    
   LULTRA =        F    use ultrasoft PP ?                                      
   IUNSCR =        1    unscreen: 0-lin 1-nonlin 2-no                           
   RPACOR =    2.000    partial core radius                                     
   POMASS =  112.411; ZVAL   =   12.000    mass and valenz                      
   RCORE  =    2.300    outmost cutoff radius                                   
   RWIGS  =    2.980; RWIGS  =    1.577    wigner-seitz radius (au A)           
   ENMAX  =  274.265; ENMIN  =  205.699 eV                                      
   RCLOC  =    2.054    cutoff for local pot                                    
   LCOR   =        T    correct aug charges                                     
   LPAW   =        T    paw PP                                                  
   EAUG   =  456.106                                                            
   DEXC   =    -.017                                                            
   RMAX   =    2.784    core radius for proj-oper                               
   RAUG   =    1.300    factor for augmentation sphere                          
   RDEP   =    2.450    core radius for depl-charge                             
   QCUT   =   -4.490; QGAM   =    8.980    optimization parameters              
                                                                                
   Description                                                                  
     l     E      TYP  RCUT    TYP  RCUT                                        
     2   .000     23  2.300                                                     
     2   .000     23  2.300                                                     
     0   .000     23  2.300                                                     
     0   .000     23  2.300                                                     
     1  -.200     23  2.300                                                     
     1   .000     23  2.300                                                     
     3   .000      7   .000                                                     
  local pseudopotential read in
  partial core-charges read in
  atomic valenz-charges read in
  non local Contribution for L=           2  read in
    real space projection operators read in
  non local Contribution for L=           2  read in
    real space projection operators read in
  non local Contribution for L=           0  read in
    real space projection operators read in
  non local Contribution for L=           0  read in
    real space projection operators read in
  non local Contribution for L=           1  read in
    real space projection operators read in
  non local Contribution for L=           1  read in
    real space projection operators read in
    PAW grid and wavefunctions read in
 
   number of l-projection  operators is LMAX  =           6
   number of lm-projection operators is LMMAX =          18
 
 POTCAR:   PAW Te 03Oct2001                       
   VRHFIN =Te: s2p4                                                             
   LEXCH  = CA                                                                  
   EATOM  =   225.3402 eV,   16.5620 Ry                                         
                                                                                
   TITEL  = PAW Te 03Oct2001                                                    
   LULTRA =        F    use ultrasoft PP ?                                      
   IUNSCR =        1    unscreen: 0-lin 1-nonlin 2-no                           
   RPACOR =    2.200    partial core radius                                     
   POMASS =  127.600; ZVAL   =    6.000    mass and valenz                      
   RCORE  =    2.300    outmost cutoff radius                                   
   RWIGS  =    2.900; RWIGS  =    1.535    wigner-seitz radius (au A)           
   ENMAX  =  175.144; ENMIN  =  131.358 eV                                      
   ICORE  =        3    local potential                                         
   LCOR   =        T    correct aug charges                                     
   LPAW   =        T    paw PP                                                  
   EAUG   =  368.792                                                            
   DEXC   =    -.131                                                            
   RMAX   =    3.484    core radius for proj-oper                               
   RAUG   =    1.300    factor for augmentation sphere                          
   RDEP   =    2.397    radius for radial grids                                 
   QCUT   =   -3.588; QGAM   =    7.176    optimization parameters              
                                                                                
   Description                                                                  
     l     E      TYP  RCUT    TYP  RCUT                                        
     0   .000     23  2.300                                                     
     0   .000     23  2.300                                                     
     1   .000     23  2.300                                                     
     1   .000     23  2.300                                                     
     2   .000     23  2.300                                                     
     3  -.100     23  2.300                                                     
  local pseudopotential read in
  partial core-charges read in
  atomic valenz-charges read in
  non local Contribution for L=           0  read in
    real space projection operators read in
  non local Contribution for L=           0  read in
    real space projection operators read in
  non local Contribution for L=           1  read in
    real space projection operators read in
  non local Contribution for L=           1  read in
    real space projection operators read in
  non local Contribution for L=           2  read in
    real space projection operators read in
    PAW grid and wavefunctions read in
 
   number of l-projection  operators is LMAX  =           5
   number of lm-projection operators is LMMAX =          13
 
 PAW Cd 03Mar1998                       :
 energy of atom  1       EATOM=-1296.0499
 kinetic energy error for atom=    0.0063 (will be added to EATOM!!)
 PAW Te 03Oct2001                       :
 energy of atom  2       EATOM= -225.3402
 kinetic energy error for atom=    0.0007 (will be added to EATOM!!)
 
 
 POSCAR: CdTe (ICSD, 295K, Rabadanov 2001)       
  positions in direct lattice
  velocities in cartesian coordinates
 exchange correlation table for  LEXCH =        2
   RHO(1)=    0.500       N(1)  =     2000
   RHO(2)=  100.500       N(2)  =     4000
 


--------------------------------------------------------------------------------------------------------


 ion  position               nearest neighbor table
   1  0.000  0.000  0.000-   2 2.81   2 2.81   2 2.81   2 2.81
   2  0.250  0.250  0.250-   1 2.81   1 2.81   1 2.81   1 2.81
 
  LATTYP: Found a face centered cubic cell.
 ALAT       =     6.4827000000
  
  Lattice vectors:
  
 A1 = (   3.2413500000,   3.2413500000,   0.0000000000)
 A2 = (   3.2413500000,   0.0000000000,  -3.2413500000)
 A3 = (   0.0000000000,   3.2413500000,  -3.2413500000)


Analysis of symmetry for initial positions (statically):
=====================================================================
 Subroutine PRICEL returns:
 Original cell was already a primitive cell.
 

 Routine SETGRP: Setting up the symmetry group for a 
 face centered cubic supercell.


 Subroutine GETGRP returns: Found 24 space group operations
 (whereof 24 operations were pure point group operations)
 out of a pool of 48 trial point group operations.


The static configuration has the point symmetry T_d .


Analysis of symmetry for dynamics (positions and initial velocities):
=====================================================================
 Subroutine PRICEL returns:
 Original cell was already a primitive cell.
 

 Routine SETGRP: Setting up the symmetry group for a 
 face centered cubic supercell.


 Subroutine GETGRP returns: Found 24 space group operations
 (whereof 24 operations were pure point group operations)
 out of a pool of 48 trial point group operations.


The dynamic configuration has the point symmetry T_d .


 Subroutine INISYM returns: Found 24 space group operations
 (whereof 24 operations are pure point group operations),
 and found     1 'primitive' translations

 
 
 KPOINTS: Automatically generated mesh SCF: 16 ste
  k-points in reciprocal lattice
Space group operators:
 irot       det(A)        alpha          n_x          n_y          n_z        tau_x        tau_y        tau_z
    1     1.000000     0.000000     1.000000     0.000000     0.000000     0.000000     0.000000     0.000000
    2     1.000000   120.000000    -0.577350    -0.577350     0.577350     0.000000     0.000000     0.000000
    3     1.000000   120.000000     0.577350     0.577350    -0.577350     0.000000     0.000000     0.000000
    4    -1.000000    90.000000    -1.000000     0.000000     0.000000     0.000000     0.000000     0.000000
    5    -1.000000   180.000000     0.707107     0.707107     0.000000     0.000000     0.000000     0.000000
    6    -1.000000    90.000000     0.000000     1.000000     0.000000     0.000000     0.000000     0.000000
    7     1.000000   180.000000     1.000000     0.000000     0.000000     0.000000     0.000000     0.000000
    8     1.000000   120.000000     0.577350     0.577350     0.577350     0.000000     0.000000     0.000000
    9     1.000000   120.000000    -0.577350     0.577350     0.577350     0.000000     0.000000     0.000000
   10    -1.000000    90.000000     1.000000     0.000000     0.000000     0.000000     0.000000     0.000000
   11    -1.000000    90.000000     0.000000     0.000000     1.000000     0.000000     0.000000     0.000000
   12    -1.000000   180.000000     0.707107     0.000000    -0.707107     0.000000     0.000000     0.000000
   13     1.000000   120.000000     0.577350    -0.577350    -0.577350     0.000000     0.000000     0.000000
   14     1.000000   120.000000     0.577350    -0.577350     0.577350     0.000000     0.000000     0.000000
   15     1.000000   180.000000     0.000000     0.000000     1.000000     0.000000     0.000000     0.000000
   16    -1.000000    90.000000     0.000000    -1.000000     0.000000     0.000000     0.000000     0.000000
   17    -1.000000   180.000000     0.000000    -0.707107     0.707107     0.000000     0.000000     0.000000
   18    -1.000000    90.000000     0.000000     0.000000    -1.000000     0.000000     0.000000     0.000000
   19     1.000000   120.000000    -0.577350    -0.577350    -0.577350     0.000000     0.000000     0.000000
   20     1.000000   180.000000     0.000000     1.000000     0.000000     0.000000     0.000000     0.000000
   21     1.000000   120.000000    -0.577350     0.577350    -0.577350     0.000000     0.000000     0.000000
   22    -1.000000   180.000000     0.707107    -0.707107     0.000000     0.000000     0.000000     0.000000
   23    -1.000000   180.000000     0.000000     0.707107     0.707107     0.000000     0.000000     0.000000
   24    -1.000000   180.000000     0.707107     0.000000     0.707107     0.000000     0.000000     0.000000


--------------------------------------------------------------------------------------------------------




 Dimension of arrays:
   k-points           NKPTS =    145   k-points in BZ     NKDIM =    145   number of bands    NBANDS=     16
   number of dos      NEDOS =    301   number of ions     NIONS =      2
   non local maximal  LDIM  =      6   non local SUM 2l+1 LMDIM =     18
   total plane-waves  NPLWV =  46656
   max r-space proj   IRMAX =      1   max aug-charges    IRDMAX=  40037
   dimension x,y,z NGX =    36 NGY =   36 NGZ =   36
   dimension x,y,z NGXF=    72 NGYF=   72 NGZF=   72
   support grid    NGXF=    72 NGYF=   72 NGZF=   72
   ions per type =               1   1
 NGX,Y,Z   is equivalent  to a cutoff of  13.06, 13.06, 13.06 a.u.
 NGXF,Y,Z  is equivalent  to a cutoff of  26.11, 26.11, 26.11 a.u.


 I would recommend the setting:
   dimension x,y,z NGX =    33 NGY =   33 NGZ =   33
 SYSTEM =  Name                                    
 POSCAR =  CdTe (ICSD, 295K, Rabadanov 2001)       

 Startparameter for this run:
   NWRITE =      2    write-flag & timer
   PREC   = accura    normal or accurate (medium, high low for compatibility)
   ISTART =      0    job   : 0-new  1-cont  2-samecut
   ICHARG =     11    charge: 1-file 2-atom 10-const
   ISPIN  =      1    spin polarized calculation?
   LNONCOLLINEAR =      F non collinear calculations
   LSORBIT =      F    spin-orbit coupling
   INIWAV =      1    electr: 0-lowe 1-rand  2-diag
   LASPH  =      F    aspherical Exc in radial PAW
   METAGGA=      F    non-selfconsistent MetaGGA calc.

 Electronic Relaxation 1
   ENCUT  =  500.0 eV  36.75 Ry    6.06 a.u.   8.36  8.36  8.36*2*pi/ulx,y,z
   ENINI  =  500.0     initial cutoff
   ENAUG  =  456.1 eV  augmentation charge cutoff
   NELM   =     60;   NELMIN=  2; NELMDL=  0     # of ELM steps 
   EDIFF  = 0.1E-05   stopping-criterion for ELM
   LREAL  =      F    real-space projection
   NLSPLINE    = F    spline interpolate recip. space projectors
   LCOMPAT=      F    compatible to vasp.4.4
   GGA_COMPAT  = T    GGA compatible to vasp.4.4-vasp.4.6
   LMAXPAW     = -100 max onsite density
   LMAXMIX     =    2 max onsite mixed and CHGCAR
   VOSKOWN=      0    Vosko Wilk Nusair interpolation
   ROPT   =    0.00000   0.00000
 Ionic relaxation
   EDIFFG = -.5E-02   stopping-criterion for IOM
   NSW    =      1    number of steps for IOM
   NBLOCK =      1;   KBLOCK =      1    inner block; outer block 
   IBRION =      2    ionic relax: 0-MD 1-quasi-New 2-CG
   NFREE  =      1    steps in history (QN), initial steepest desc. (CG)
   ISIF   =      3    stress and relaxation
   IWAVPR =     11    prediction:  0-non 1-charg 2-wave 3-comb
   ISYM   =      2    0-nonsym 1-usesym 2-fastsym
   LCORR  =      T    Harris-Foulkes like correction to forces

   POTIM  = 0.5000    time-step for ionic-motion
   TEIN   =    0.0    initial temperature
   TEBEG  =    0.0;   TEEND  =   0.0 temperature during run
   SMASS  =  -3.00    Nose mass-parameter (am)
   estimated Nose-frequenzy (Omega)   =  0.10E-29 period in steps =****** mass=  -0.480E-27a.u.
   SCALEE = 1.0000    scale energy and forces
   NPACO  =    256;   APACO  = 16.0  distance and # of slots for P.C.
   PSTRESS=    0.0 pullay stress

  Mass of Ions in am
   POMASS = 112.41127.60
  Ionic Valenz
   ZVAL   =  12.00  6.00
  Atomic Wigner-Seitz radii
   RWIGS  =  -1.00 -1.00
  virtual crystal weights 
   VCA    =   1.00  1.00
   NELECT =      18.0000    total number of electrons
   NUPDOWN=      -1.0000    fix difference up-down

 DOS related values:
   EMIN   =  10.00;   EMAX   =-10.00  energy-range for DOS
   EFERMI =   0.00
   ISMEAR =     0;   SIGMA  =   0.01  broadening in eV -4-tet -1-fermi 0-gaus

 Electronic relaxation 2 (details)
   IALGO  =     38    algorithm
   LDIAG  =      T    sub-space diagonalisation (order eigenvalues)
   LSUBROT=      F    optimize rotation matrix (better conditioning)
   TURBO    =      0    0=normal 1=particle mesh
   IRESTART =      0    0=no restart 2=restart with 2 vectors
   NREBOOT  =      0    no. of reboots
   NMIN     =      0    reboot dimension
   EREF     =   0.00    reference energy to select bands
   IMIX   =      4    mixing-type and parameters
     AMIX     =   0.40;   BMIX     =  1.00
     AMIX_MAG =   1.60;   BMIX_MAG =  1.00
     AMIN     =   0.01
     WC   =   100.;   INIMIX=   1;  MIXPRE=   1;  MAXMIX= -45

 Intra band minimization:
   WEIMIN = 0.0010     energy-eigenvalue tresh-hold
   EBREAK =  0.16E-07  absolut break condition
   DEPER  =   0.30     relativ break condition  

   TIME   =   0.40     timestep for ELM

  volume/ion in A,a.u.               =      34.05       229.81
  Fermi-wavevector in a.u.,A,eV,Ry     =   1.050581  1.985311 15.017042  1.103721
  Thomas-Fermi vector in A             =   2.185590
 
 Write flags
   LWAVE  =      T    write WAVECAR
   LCHARG =      T    write CHGCAR
   LVTOT  =      F    write LOCPOT, total local potential
   LVHAR  =      F    write LOCPOT, Hartree potential only
   LELF   =      F    write electronic localiz. function (ELF)
   LORBIT =     10    0 simple, 1 ext, 2 COOP (PROOUT)


 Dipole corrections
   LMONO  =      F    monopole corrections only (constant potential shift)
   LDIPOL =      F    correct potential (dipole corrections)
   IDIPOL =      0    1-x, 2-y, 3-z, 4-all directions 
   EPSILON=  1.0000000 bulk dielectric constant

 Core level calculations are selected ICORELEVEL =  1
 Exchange correlation treatment:
   GGA     =    --    GGA type
   LEXCH   =     2    internal setting for exchange type
   VOSKOWN=      0    Vosko Wilk Nusair interpolation
   LHFCALC =     F    Hartree Fock is set to
   LHFONE  =     F    Hartree Fock one center treatment
   AEXX    =    0.0000 exact exchange contribution

 Linear response parameters
   LEPSILON=     F    determine dielectric tensor
   LRPA    =     F    only Hartree local field effects (RPA)
   LNABLA  =     F    use nabla operator in PAW spheres
   LVEL    =     F    velocity operator in full k-point grid
   LINTERFAST=   F  fast interpolation
   KINTER  =     0    interpolate to denser k-point grid
   CSHIFT  =0.1000    complex shift for real part using Kramers Kronig
   OMEGAMAX=  -1.0    maximum frequency
   DEG_THRESHOLD= 0.2000000E-02 threshold for treating states as degnerate
   RTIME   =    0.100 relaxation time in fs

 Orbital magnetization related:
   ORBITALMAG=     F  switch on orbital magnetization
   LCHIMAG   =     F  perturbation theory with respect to B field
   DQ        =  0.001000  dq finite difference perturbation B field



--------------------------------------------------------------------------------------------------------


 conjugate gradient relaxation of ions
 charge density and potential remain constant during run
 non-spin polarized calculation
 Variant of blocked Davidson
 Davidson routine will perform the subspace rotation
 perform sub-space diagonalisation
    after iterative eigenvector-optimisation
 no mixing
 using additional bands            7
 reciprocal scheme for non local part
 use partial core corrections
 calculate Harris-corrections to forces 
   (improved forces if not selfconsistent)
 use of overlap-Matrix (Vanderbilt PP)
 Gauss-broadening in eV      SIGMA  =   0.01


--------------------------------------------------------------------------------------------------------


  energy-cutoff  :      500.00
  volume of cell :       68.11
      direct lattice vectors                 reciprocal lattice vectors
     3.241350000  3.241350000  0.000000000     0.154256714  0.154256714  0.154256714
     3.241350000  0.000000000 -3.241350000     0.154256714 -0.154256714 -0.154256714
     0.000000000  3.241350000 -3.241350000    -0.154256714  0.154256714 -0.154256714

  length of vectors
     4.583961130  4.583961130  4.583961130     0.267180466  0.267180466  0.267180466


 
 k-points in units of 2pi/SCALE and weight: Automatically generated mesh SCF: 16 ste
   0.00000000  0.00000000  0.00000000       0.005
   0.16666667  0.16666667  0.16666667       0.037
   0.33333333  0.33333333  0.33333333       0.037
   0.50000000  0.50000000  0.50000000       0.019
   0.33333333  0.00000000  0.00000000       0.028
   0.50000000  0.16666667  0.16666667       0.111
   0.66666667  0.33333333  0.33333333       0.111
  -0.16666667 -0.50000000 -0.50000000       0.111
   0.00000000 -0.33333333 -0.33333333       0.056
   0.66666667  0.00000000  0.00000000       0.028
   0.83333333  0.16666667  0.16666667       0.111
   0.00000000 -0.66666667 -0.66666667       0.056
   1.00000000  0.00000000  0.00000000       0.014
   0.66666667  0.33333333  0.00000000       0.111
  -0.16666667 -0.50000000 -0.83333333       0.111
   0.00000000 -0.66666667 -1.00000000       0.056
   0.00000000  0.00000000  0.00000000       0.000
   0.00000000  0.03225806  0.00000000       0.000
   0.00000000  0.06451614  0.00000000       0.000
   0.00000000  0.09677420  0.00000000       0.000
   0.00000000  0.12903226  0.00000000       0.000
   0.00000000  0.16129032  0.00000000       0.000
   0.00000000  0.19354842  0.00000000       0.000
   0.00000000  0.22580646  0.00000000       0.000
   0.00000000  0.25806454  0.00000000       0.000
   0.00000000  0.29032258  0.00000000       0.000
   0.00000000  0.32258064  0.00000000       0.000
   0.00000000  0.35483870  0.00000000       0.000
   0.00000000  0.38709682  0.00000000       0.000
   0.00000000  0.41935486  0.00000000       0.000
   0.00000000  0.45161292  0.00000000       0.000
   0.00000000  0.48387098  0.00000000       0.000
   0.00000000  0.51612908  0.00000000       0.000
   0.00000000  0.54838712  0.00000000       0.000
   0.00000000  0.58064514  0.00000000       0.000
   0.00000000  0.61290324  0.00000000       0.000
   0.00000000  0.64516128  0.00000000       0.000
   0.00000000  0.67741942  0.00000000       0.000
   0.00000000  0.70967740  0.00000000       0.000
   0.00000000  0.74193550  0.00000000       0.000
   0.00000000  0.77419364  0.00000000       0.000
   0.00000000  0.80645162  0.00000000       0.000
   0.00000000  0.83870972  0.00000000       0.000
   0.00000000  0.87096774  0.00000000       0.000
   0.00000000  0.90322584  0.00000000       0.000
   0.00000000  0.93548388  0.00000000       0.000
   0.00000000  0.96774196  0.00000000       0.000
   0.00000000  1.00000000  0.00000000       0.000
   0.00000002  0.98750000 -0.03749998       0.000
   0.00000003  0.97499999 -0.07499997       0.000
  -0.00000003  0.96250001 -0.11250003       0.000
  -0.00000002  0.95000000 -0.15000002       0.000
  -0.00000001  0.93750001 -0.18749999       0.000
   0.00000002  0.92500000 -0.22499998       0.000
   0.00000002  0.91250000 -0.26249996       0.000
  -0.00000004  0.90000002 -0.30000002       0.000
  -0.00000002  0.88750000 -0.33750002       0.000
  -0.00000001  0.87500001 -0.37499999       0.000
   0.00000002  0.86250000 -0.41249998       0.000
   0.00000002  0.85000000 -0.44999996       0.000
  -0.00000004  0.83750002 -0.48750002       0.000
  -0.00000003  0.82500001 -0.52500001       0.000
  -0.00000003  0.81250003 -0.56249997       0.000
   0.00000000  0.80000002 -0.59999996       0.000
   0.00000002  0.78750000 -0.63749996       0.000
  -0.00000002  0.77500000 -0.67500004       0.000
  -0.00000006  0.76250004 -0.71249998       0.000
  -0.00000003  0.75000003 -0.74999997       0.000
  -0.00000001  0.73124999 -0.73124999       0.000
   0.00000000  0.71249998 -0.71249998       0.000
   0.00000000  0.69375002 -0.69375002       0.000
   0.00000001  0.67500001 -0.67500001       0.000
   0.00000000  0.65625000 -0.65625000       0.000
  -0.00000001  0.63749999 -0.63749999       0.000
   0.00000000  0.61874998 -0.61874998       0.000
   0.00000000  0.60000002 -0.60000002       0.000
   0.00000001  0.58125001 -0.58125001       0.000
   0.00000000  0.56250000 -0.56250000       0.000
  -0.00000001  0.54374999 -0.54374999       0.000
   0.00000000  0.52499998 -0.52499998       0.000
   0.00000000  0.50625002 -0.50625002       0.000
   0.00000001  0.48750001 -0.48750001       0.000
   0.00000000  0.46875000 -0.46875000       0.000
   0.00000000  0.45000002 -0.45000002       0.000
  -0.00000001  0.43125001 -0.43125001       0.000
   0.00000000  0.41250002 -0.41250002       0.000
   0.00000001  0.39375001 -0.39375001       0.000
  -0.00000001  0.37500003 -0.37500003       0.000
  -0.00000001  0.35624999 -0.35624999       0.000
  -0.00000001  0.33750001 -0.33750001       0.000
   0.00000001  0.31874999 -0.31874999       0.000
   0.00000001  0.30000001 -0.30000001       0.000
   0.00000000  0.28125000 -0.28125000       0.000
   0.00000000  0.26250002 -0.26250002       0.000
   0.00000000  0.24375004 -0.24375004       0.000
   0.00000000  0.22500002 -0.22500002       0.000
   0.00000001  0.20625001 -0.20625001       0.000
   0.00000000  0.18750000 -0.18750000       0.000
  -0.00000001  0.16875005 -0.16875005       0.000
   0.00000000  0.15000004 -0.15000004       0.000
   0.00000000  0.13124996 -0.13124996       0.000
   0.00000001  0.11250001 -0.11250001       0.000
   0.00000000  0.09375000 -0.09375000       0.000
  -0.00000001  0.07500005 -0.07500005       0.000
   0.00000000  0.05624998 -0.05624998       0.000
   0.00000000  0.03750002 -0.03750002       0.000
   0.00000001  0.01875001 -0.01875001       0.000
   0.00000000  0.00000006 -0.00000006       0.000
   0.01351351  0.01351351 -0.01351351       0.000
   0.02702703  0.02702703 -0.02702703       0.000
   0.04054054  0.04054054 -0.04054054       0.000
   0.05405406  0.05405406 -0.05405406       0.000
   0.06756756  0.06756756 -0.06756756       0.000
   0.08108108  0.08108108 -0.08108108       0.000
   0.09459460  0.09459460 -0.09459460       0.000
   0.10810811  0.10810811 -0.10810811       0.000
   0.12162162  0.12162162 -0.12162162       0.000
   0.13513513  0.13513513 -0.13513513       0.000
   0.14864865  0.14864865 -0.14864865       0.000
   0.16216217  0.16216217 -0.16216217       0.000
   0.17567569  0.17567569 -0.17567569       0.000
   0.18918920  0.18918920 -0.18918920       0.000
   0.20270272  0.20270272 -0.20270272       0.000
   0.21621622  0.21621622 -0.21621622       0.000
   0.22972973  0.22972973 -0.22972973       0.000
   0.24324325  0.24324325 -0.24324325       0.000
   0.25675675  0.25675675 -0.25675675       0.000
   0.27027026  0.27027026 -0.27027026       0.000
   0.28378379  0.28378379 -0.28378379       0.000
   0.29729730  0.29729730 -0.29729730       0.000
   0.31081080  0.31081080 -0.31081080       0.000
   0.32432434  0.32432434 -0.32432434       0.000
   0.33783787  0.33783787 -0.33783787       0.000
   0.35135138  0.35135138 -0.35135138       0.000
   0.36486489  0.36486489 -0.36486489       0.000
   0.37837839  0.37837839 -0.37837839       0.000
   0.39189190  0.39189190 -0.39189190       0.000
   0.40540543  0.40540543 -0.40540543       0.000
   0.41891894  0.41891894 -0.41891894       0.000
   0.43243244  0.43243244 -0.43243244       0.000
   0.44594595  0.44594595 -0.44594595       0.000
   0.45945945  0.45945945 -0.45945945       0.000
   0.47297299  0.47297299 -0.47297299       0.000
   0.48648649  0.48648649 -0.48648649       0.000
   0.50000000  0.50000000 -0.50000000       0.000
 
 k-points in reciprocal lattice and weights: Automatically generated mesh SCF: 16 ste
   0.00000000  0.00000000  0.00000000       0.005
   0.16666667  0.00000000  0.00000000       0.037
   0.33333333  0.00000000  0.00000000       0.037
   0.50000000  0.00000000  0.00000000       0.019
   0.16666667  0.16666667  0.00000000       0.028
   0.33333333  0.16666667  0.00000000       0.111
   0.50000000  0.16666667  0.00000000       0.111
  -0.33333333  0.16666667  0.00000000       0.111
  -0.16666667  0.16666667  0.00000000       0.056
   0.33333333  0.33333333  0.00000000       0.028
   0.50000000  0.33333333  0.00000000       0.111
  -0.33333333  0.33333333  0.00000000       0.056
   0.50000000  0.50000000  0.00000000       0.014
   0.50000000  0.33333333  0.16666667       0.111
  -0.33333333  0.33333333  0.16666667       0.111
  -0.33333333  0.50000000  0.16666667       0.056
   0.00000000  0.00000000  0.00000000       0.000
   0.01612903  0.00000000  0.01612903       0.000
   0.03225807  0.00000000  0.03225807       0.000
   0.04838710  0.00000000  0.04838710       0.000
   0.06451613  0.00000000  0.06451613       0.000
   0.08064516  0.00000000  0.08064516       0.000
   0.09677421  0.00000000  0.09677421       0.000
   0.11290323  0.00000000  0.11290323       0.000
   0.12903227  0.00000000  0.12903227       0.000
   0.14516129  0.00000000  0.14516129       0.000
   0.16129032  0.00000000  0.16129032       0.000
   0.17741935  0.00000000  0.17741935       0.000
   0.19354841  0.00000000  0.19354841       0.000
   0.20967743  0.00000000  0.20967743       0.000
   0.22580646  0.00000000  0.22580646       0.000
   0.24193549  0.00000000  0.24193549       0.000
   0.25806454  0.00000000  0.25806454       0.000
   0.27419356  0.00000000  0.27419356       0.000
   0.29032257  0.00000000  0.29032257       0.000
   0.30645162  0.00000000  0.30645162       0.000
   0.32258064  0.00000000  0.32258064       0.000
   0.33870971  0.00000000  0.33870971       0.000
   0.35483870  0.00000000  0.35483870       0.000
   0.37096775  0.00000000  0.37096775       0.000
   0.38709682  0.00000000  0.38709682       0.000
   0.40322581  0.00000000  0.40322581       0.000
   0.41935486  0.00000000  0.41935486       0.000
   0.43548387  0.00000000  0.43548387       0.000
   0.45161292  0.00000000  0.45161292       0.000
   0.46774194  0.00000000  0.46774194       0.000
   0.48387098  0.00000000  0.48387098       0.000
   0.50000000  0.00000000  0.50000000       0.000
   0.49375001  0.01875000  0.51249999       0.000
   0.48750001  0.03750000  0.52499998       0.000
   0.48124999  0.05625000  0.53750002       0.000
   0.47499999  0.07500000  0.55000001       0.000
   0.46875000  0.09374999  0.56250000       0.000
   0.46250001  0.11250000  0.57499999       0.000
   0.45625001  0.13124999  0.58749998       0.000
   0.44999999  0.14999999  0.60000002       0.000
   0.44374999  0.16875000  0.61250001       0.000
   0.43750000  0.18749999  0.62500000       0.000
   0.43125001  0.20625000  0.63749999       0.000
   0.42500001  0.22499999  0.64999998       0.000
   0.41874999  0.24374999  0.66250002       0.000
   0.41249999  0.26249999  0.67500001       0.000
   0.40625000  0.28124997  0.68750000       0.000
   0.40000001  0.29999998  0.69999999       0.000
   0.39375001  0.31874999  0.71249998       0.000
   0.38749999  0.33750001  0.72500002       0.000
   0.38124999  0.35624996  0.73750001       0.000
   0.37500000  0.37499997  0.75000000       0.000
   0.36562499  0.36562499  0.73124999       0.000
   0.35624999  0.35624999  0.71249998       0.000
   0.34687501  0.34687501  0.69375002       0.000
   0.33750001  0.33750001  0.67500001       0.000
   0.32812500  0.32812500  0.65625000       0.000
   0.31874999  0.31874999  0.63749999       0.000
   0.30937499  0.30937499  0.61874998       0.000
   0.30000001  0.30000001  0.60000002       0.000
   0.29062501  0.29062501  0.58125001       0.000
   0.28125000  0.28125000  0.56250000       0.000
   0.27187499  0.27187499  0.54374999       0.000
   0.26249999  0.26249999  0.52499998       0.000
   0.25312501  0.25312501  0.50625002       0.000
   0.24375001  0.24375001  0.48750001       0.000
   0.23437500  0.23437500  0.46875000       0.000
   0.22500001  0.22500001  0.45000002       0.000
   0.21562500  0.21562500  0.43125001       0.000
   0.20625001  0.20625001  0.41250002       0.000
   0.19687501  0.19687501  0.39375001       0.000
   0.18750001  0.18750001  0.37500003       0.000
   0.17812499  0.17812499  0.35624999       0.000
   0.16875000  0.16875000  0.33750001       0.000
   0.15937500  0.15937500  0.31874999       0.000
   0.15000001  0.15000001  0.30000001       0.000
   0.14062500  0.14062500  0.28125000       0.000
   0.13125001  0.13125001  0.26250002       0.000
   0.12187502  0.12187502  0.24375004       0.000
   0.11250001  0.11250001  0.22500002       0.000
   0.10312501  0.10312501  0.20625001       0.000
   0.09375000  0.09375000  0.18750000       0.000
   0.08437502  0.08437502  0.16875005       0.000
   0.07500002  0.07500002  0.15000004       0.000
   0.06562498  0.06562498  0.13124996       0.000
   0.05625001  0.05625001  0.11250001       0.000
   0.04687500  0.04687500  0.09375000       0.000
   0.03750002  0.03750002  0.07500005       0.000
   0.02812499  0.02812499  0.05624998       0.000
   0.01875001  0.01875001  0.03750002       0.000
   0.00937501  0.00937501  0.01875001       0.000
   0.00000003  0.00000003  0.00000006       0.000
   0.01351351  0.01351351  0.01351351       0.000
   0.02702703  0.02702703  0.02702703       0.000
   0.04054054  0.04054054  0.04054054       0.000
   0.05405406  0.05405406  0.05405406       0.000
   0.06756756  0.06756756  0.06756756       0.000
   0.08108108  0.08108108  0.08108108       0.000
   0.09459460  0.09459460  0.09459460       0.000
   0.10810811  0.10810811  0.10810811       0.000
   0.12162162  0.12162162  0.12162162       0.000
   0.13513513  0.13513513  0.13513513       0.000
   0.14864865  0.14864865  0.14864865       0.000
   0.16216217  0.16216217  0.16216217       0.000
   0.17567569  0.17567569  0.17567569       0.000
   0.18918920  0.18918920  0.18918920       0.000
   0.20270272  0.20270272  0.20270272       0.000
   0.21621622  0.21621622  0.21621622       0.000
   0.22972973  0.22972973  0.22972973       0.000
   0.24324325  0.24324325  0.24324325       0.000
   0.25675675  0.25675675  0.25675675       0.000
   0.27027026  0.27027026  0.27027026       0.000
   0.28378379  0.28378379  0.28378379       0.000
   0.29729730  0.29729730  0.29729730       0.000
   0.31081080  0.31081080  0.31081080       0.000
   0.32432434  0.32432434  0.32432434       0.000
   0.33783787  0.33783787  0.33783787       0.000
   0.35135138  0.35135138  0.35135138       0.000
   0.36486489  0.36486489  0.36486489       0.000
   0.37837839  0.37837839  0.37837839       0.000
   0.39189190  0.39189190  0.39189190       0.000
   0.40540543  0.40540543  0.40540543       0.000
   0.41891894  0.41891894  0.41891894       0.000
   0.43243244  0.43243244  0.43243244       0.000
   0.44594595  0.44594595  0.44594595       0.000
   0.45945945  0.45945945  0.45945945       0.000
   0.47297299  0.47297299  0.47297299       0.000
   0.48648649  0.48648649  0.48648649       0.000
   0.50000000  0.50000000  0.50000000       0.000
 
 position of ions in fractional coordinates (direct lattice) 
   0.00000000  0.00000000  0.00000000
   0.25000000  0.25000000  0.25000000
 
 position of ions in cartesian coordinates  (Angst):
   0.00000000  0.00000000  0.00000000
   1.62067500  1.62067500 -1.62067500
 


--------------------------------------------------------------------------------------------------------


 k-point  1 :   0.0000 0.0000 0.0000  plane waves:    1759
 k-point  2 :   0.1667 0.0000 0.0000  plane waves:    1747
 k-point  3 :   0.3333 0.0000 0.0000  plane waves:    1730
 k-point  4 :   0.5000 0.0000 0.0000  plane waves:    1718
 k-point  5 :   0.1667 0.1667 0.0000  plane waves:    1736
 k-point  6 :   0.3333 0.1667 0.0000  plane waves:    1729
 k-point  7 :   0.5000 0.1667 0.0000  plane waves:    1739
 k-point  8 :  -0.3333 0.1667 0.0000  plane waves:    1732
 k-point  9 :  -0.1667 0.1667 0.0000  plane waves:    1735
 k-point 10 :   0.3333 0.3333 0.0000  plane waves:    1728
 k-point 11 :   0.5000 0.3333 0.0000  plane waves:    1723
 k-point 12 :  -0.3333 0.3333 0.0000  plane waves:    1726
 k-point 13 :   0.5000 0.5000 0.0000  plane waves:    1724
 k-point 14 :   0.5000 0.3333 0.1667  plane waves:    1724
 k-point 15 :  -0.3333 0.3333 0.1667  plane waves:    1726
 k-point 16 :  -0.3333 0.5000 0.1667  plane waves:    1722
 k-point 17 :   0.0000 0.0000 0.0000  plane waves:    1759
 k-point 18 :   0.0161 0.0000 0.0161  plane waves:    1771
 k-point 19 :   0.0323 0.0000 0.0323  plane waves:    1755
 k-point 20 :   0.0484 0.0000 0.0484  plane waves:    1763
 k-point 21 :   0.0645 0.0000 0.0645  plane waves:    1747
 k-point 22 :   0.0806 0.0000 0.0806  plane waves:    1747
 k-point 23 :   0.0968 0.0000 0.0968  plane waves:    1744
 k-point 24 :   0.1129 0.0000 0.1129  plane waves:    1744
 k-point 25 :   0.1290 0.0000 0.1290  plane waves:    1740
 k-point 26 :   0.1452 0.0000 0.1452  plane waves:    1748
 k-point 27 :   0.1613 0.0000 0.1613  plane waves:    1736
 k-point 28 :   0.1774 0.0000 0.1774  plane waves:    1748
 k-point 29 :   0.1935 0.0000 0.1935  plane waves:    1744
 k-point 30 :   0.2097 0.0000 0.2097  plane waves:    1736
 k-point 31 :   0.2258 0.0000 0.2258  plane waves:    1736
 k-point 32 :   0.2419 0.0000 0.2419  plane waves:    1716
 k-point 33 :   0.2581 0.0000 0.2581  plane waves:    1716
 k-point 34 :   0.2742 0.0000 0.2742  plane waves:    1724
 k-point 35 :   0.2903 0.0000 0.2903  plane waves:    1728
 k-point 36 :   0.3065 0.0000 0.3065  plane waves:    1720
 k-point 37 :   0.3226 0.0000 0.3226  plane waves:    1728
 k-point 38 :   0.3387 0.0000 0.3387  plane waves:    1728
 k-point 39 :   0.3548 0.0000 0.3548  plane waves:    1724
 k-point 40 :   0.3710 0.0000 0.3710  plane waves:    1728
 k-point 41 :   0.3871 0.0000 0.3871  plane waves:    1728
 k-point 42 :   0.4032 0.0000 0.4032  plane waves:    1728
 k-point 43 :   0.4194 0.0000 0.4194  plane waves:    1728
 k-point 44 :   0.4355 0.0000 0.4355  plane waves:    1720
 k-point 45 :   0.4516 0.0000 0.4516  plane waves:    1732
 k-point 46 :   0.4677 0.0000 0.4677  plane waves:    1732
 k-point 47 :   0.4839 0.0000 0.4839  plane waves:    1724
 k-point 48 :   0.5000 0.0000 0.5000  plane waves:    1724
 k-point 49 :   0.4938 0.0187 0.5125  plane waves:    1724
 k-point 50 :   0.4875 0.0375 0.5250  plane waves:    1724
 k-point 51 :   0.4812 0.0563 0.5375  plane waves:    1724
 k-point 52 :   0.4750 0.0750 0.5500  plane waves:    1722
 k-point 53 :   0.4688 0.0937 0.5625  plane waves:    1725
 k-point 54 :   0.4625 0.1125 0.5750  plane waves:    1720
 k-point 55 :   0.4563 0.1312 0.5875  plane waves:    1722
 k-point 56 :   0.4500 0.1500 0.6000  plane waves:    1722
 k-point 57 :   0.4437 0.1688 0.6125  plane waves:    1720
 k-point 58 :   0.4375 0.1875 0.6250  plane waves:    1714
 k-point 59 :   0.4313 0.2062 0.6375  plane waves:    1723
 k-point 60 :   0.4250 0.2250 0.6500  plane waves:    1721
 k-point 61 :   0.4187 0.2437 0.6625  plane waves:    1725
 k-point 62 :   0.4125 0.2625 0.6750  plane waves:    1728
 k-point 63 :   0.4062 0.2812 0.6875  plane waves:    1728
 k-point 64 :   0.4000 0.3000 0.7000  plane waves:    1733
 k-point 65 :   0.3938 0.3187 0.7125  plane waves:    1730
 k-point 66 :   0.3875 0.3375 0.7250  plane waves:    1724
 k-point 67 :   0.3812 0.3562 0.7375  plane waves:    1728
 k-point 68 :   0.3750 0.3750 0.7500  plane waves:    1730
 k-point 69 :   0.3656 0.3656 0.7312  plane waves:    1730
 k-point 70 :   0.3562 0.3562 0.7125  plane waves:    1730
 k-point 71 :   0.3469 0.3469 0.6938  plane waves:    1728
 k-point 72 :   0.3375 0.3375 0.6750  plane waves:    1720
 k-point 73 :   0.3281 0.3281 0.6562  plane waves:    1724
 k-point 74 :   0.3187 0.3187 0.6375  plane waves:    1724
 k-point 75 :   0.3094 0.3094 0.6187  plane waves:    1724
 k-point 76 :   0.3000 0.3000 0.6000  plane waves:    1724
 k-point 77 :   0.2906 0.2906 0.5813  plane waves:    1736
 k-point 78 :   0.2812 0.2812 0.5625  plane waves:    1730
 k-point 79 :   0.2719 0.2719 0.5437  plane waves:    1730
 k-point 80 :   0.2625 0.2625 0.5250  plane waves:    1730
 k-point 81 :   0.2531 0.2531 0.5063  plane waves:    1742
 k-point 82 :   0.2438 0.2438 0.4875  plane waves:    1734
 k-point 83 :   0.2344 0.2344 0.4688  plane waves:    1734
 k-point 84 :   0.2250 0.2250 0.4500  plane waves:    1728
 k-point 85 :   0.2156 0.2156 0.4313  plane waves:    1726
 k-point 86 :   0.2063 0.2063 0.4125  plane waves:    1738
 k-point 87 :   0.1969 0.1969 0.3938  plane waves:    1734
 k-point 88 :   0.1875 0.1875 0.3750  plane waves:    1730
 k-point 89 :   0.1781 0.1781 0.3562  plane waves:    1731
 k-point 90 :   0.1688 0.1688 0.3375  plane waves:    1735
 k-point 91 :   0.1594 0.1594 0.3187  plane waves:    1735
 k-point 92 :   0.1500 0.1500 0.3000  plane waves:    1737
 k-point 93 :   0.1406 0.1406 0.2812  plane waves:    1741
 k-point 94 :   0.1313 0.1313 0.2625  plane waves:    1747
 k-point 95 :   0.1219 0.1219 0.2438  plane waves:    1747
 k-point 96 :   0.1125 0.1125 0.2250  plane waves:    1745
 k-point 97 :   0.1031 0.1031 0.2063  plane waves:    1745
 k-point 98 :   0.0938 0.0938 0.1875  plane waves:    1745
 k-point 99 :   0.0844 0.0844 0.1688  plane waves:    1743
 k-point ** :   0.0750 0.0750 0.1500  plane waves:    1749
 k-point ** :   0.0656 0.0656 0.1312  plane waves:    1747
 k-point ** :   0.0563 0.0563 0.1125  plane waves:    1753
 k-point ** :   0.0469 0.0469 0.0938  plane waves:    1753
 k-point ** :   0.0375 0.0375 0.0750  plane waves:    1757
 k-point ** :   0.0281 0.0281 0.0562  plane waves:    1763
 k-point ** :   0.0188 0.0188 0.0375  plane waves:    1759
 k-point ** :   0.0094 0.0094 0.0188  plane waves:    1767
 k-point ** :   0.0000 0.0000 0.0000  plane waves:    1759
 k-point ** :   0.0135 0.0135 0.0135  plane waves:    1771
 k-point ** :   0.0270 0.0270 0.0270  plane waves:    1762
 k-point ** :   0.0405 0.0405 0.0405  plane waves:    1756
 k-point ** :   0.0541 0.0541 0.0541  plane waves:    1756
 k-point ** :   0.0676 0.0676 0.0676  plane waves:    1756
 k-point ** :   0.0811 0.0811 0.0811  plane waves:    1753
 k-point ** :   0.0946 0.0946 0.0946  plane waves:    1750
 k-point ** :   0.1081 0.1081 0.1081  plane waves:    1750
 k-point ** :   0.1216 0.1216 0.1216  plane waves:    1747
 k-point ** :   0.1351 0.1351 0.1351  plane waves:    1747
 k-point ** :   0.1486 0.1486 0.1486  plane waves:    1747
 k-point ** :   0.1622 0.1622 0.1622  plane waves:    1747
 k-point ** :   0.1757 0.1757 0.1757  plane waves:    1747
 k-point ** :   0.1892 0.1892 0.1892  plane waves:    1754
 k-point ** :   0.2027 0.2027 0.2027  plane waves:    1754
 k-point ** :   0.2162 0.2162 0.2162  plane waves:    1748
 k-point ** :   0.2297 0.2297 0.2297  plane waves:    1745
 k-point ** :   0.2432 0.2432 0.2432  plane waves:    1745
 k-point ** :   0.2568 0.2568 0.2568  plane waves:    1739
 k-point ** :   0.2703 0.2703 0.2703  plane waves:    1736
 k-point ** :   0.2838 0.2838 0.2838  plane waves:    1724
 k-point ** :   0.2973 0.2973 0.2973  plane waves:    1724
 k-point ** :   0.3108 0.3108 0.3108  plane waves:    1730
 k-point ** :   0.3243 0.3243 0.3243  plane waves:    1730
 k-point ** :   0.3378 0.3378 0.3378  plane waves:    1730
 k-point ** :   0.3514 0.3514 0.3514  plane waves:    1730
 k-point ** :   0.3649 0.3649 0.3649  plane waves:    1727
 k-point ** :   0.3784 0.3784 0.3784  plane waves:    1727
 k-point ** :   0.3919 0.3919 0.3919  plane waves:    1727
 k-point ** :   0.4054 0.4054 0.4054  plane waves:    1721
 k-point ** :   0.4189 0.4189 0.4189  plane waves:    1727
 k-point ** :   0.4324 0.4324 0.4324  plane waves:    1724
 k-point ** :   0.4459 0.4459 0.4459  plane waves:    1730
 k-point ** :   0.4595 0.4595 0.4595  plane waves:    1718
 k-point ** :   0.4730 0.4730 0.4730  plane waves:    1718
 k-point ** :   0.4865 0.4865 0.4865  plane waves:    1718
 k-point ** :   0.5000 0.5000 0.5000  plane waves:    1718

 maximum and minimum number of plane-waves per node :       303      276

 maximum number of plane-waves:      1771
 maximum index in each direction: 
   IXMAX=    8   IYMAX=    8   IZMAX=    8
   IXMIN=   -8   IYMIN=   -8   IZMIN=   -9

 NGX is ok and might be reduce to  34
 NGY is ok and might be reduce to  34
 NGZ is ok and might be reduce to  36

 parallel 3D FFT for wavefunctions:
    minimum data exchange during FFTs selected (reduces bandwidth)
 parallel 3D FFT for charge:
    minimum data exchange during FFTs selected (reduces bandwidth)


 total amount of memory used by VASP on root node    47288. kBytes
========================================================================

   base      :      30000. kBytes
   nonl-proj :      12370. kBytes
   fftplans  :        769. kBytes
   grid      :       1202. kBytes
   one-center:         15. kBytes
   wavefun   :       2932. kBytes
 
     INWAV:  cpu time    0.0000: real time    0.0002
 initial charge density was supplied:
 number of electron      17.9999997 magnetization 
 keeping initial charge density in first step


--------------------------------------------------------------------------------------------------------


 Maximum index for augmentation-charges         1676 (set IRDMAX)


--------------------------------------------------------------------------------------------------------


 First call to EWALD:  gamma=   0.434
 Maximum number of real-space cells 3x 3x 3
 Maximum number of reciprocal cells 3x 3x 3

 FEWALD executed in parallel
    FEWALD:  cpu time    0.0000: real time    0.0016


----------------------------------------- Iteration    1(   1)  ---------------------------------------


    POTLOK:  cpu time    0.0040: real time    0.0023
    SETDIJ:  cpu time    0.0000: real time    0.0024
     EDDAV:  cpu time    0.2120: real time    0.2117
       DOS:  cpu time    0.0000: real time    0.0018
    --------------------------------------------
      LOOP:  cpu time    0.2240: real time    0.2396

 eigenvalue-minimisations  :  4688
 total energy-change (2. order) : 0.9952609E+02  (-0.8209648E+03)
 number of electron      17.9999997 magnetization 
 augmentation part       17.9999997 magnetization 

 Free energy of the ion-electron system (eV)
  ---------------------------------------------------
  alpha Z        PSCENC =        48.00481358
  Ewald energy   TEWEN  =     -1044.83138452
  -Hartree energ DENC   =      -500.94267391
  -exchange      EXHF   =         0.00000000
  -V(xc)+E(xc)   XCENC  =       -21.49691907
  PAW double counting   =      1152.53605837    -1083.87723919
  entropy T*S    EENTRO =        -0.00059585
  eigenvalues    EBANDS =        28.75090618
  atomic energy  EATOM  =      1521.38312781
  Solvation  Ediel_sol  =         0.00000000
  ---------------------------------------------------
  free energy    TOTEN  =        99.52609340 eV

  energy without entropy =       99.52668925  energy(sigma->0) =       99.52639132


--------------------------------------------------------------------------------------------------------




----------------------------------------- Iteration    1(   2)  ---------------------------------------


     EDDAV:  cpu time    0.2480: real time    0.2501
       DOS:  cpu time    0.0000: real time    0.0007
    --------------------------------------------
      LOOP:  cpu time    0.2520: real time    0.2580

 eigenvalue-minimisations  :  5584
 total energy-change (2. order) :-0.1018671E+03  (-0.9723482E+02)
 number of electron      17.9999997 magnetization 
 augmentation part       17.9999997 magnetization 

 Free energy of the ion-electron system (eV)
  ---------------------------------------------------
  alpha Z        PSCENC =        48.00481358
  Ewald energy   TEWEN  =     -1044.83138452
  -Hartree energ DENC   =      -500.94267391
  -exchange      EXHF   =         0.00000000
  -V(xc)+E(xc)   XCENC  =       -21.49691907
  PAW double counting   =      1152.53605837    -1083.87723919
  entropy T*S    EENTRO =        -0.00000000
  eigenvalues    EBANDS =       -73.11677906
  atomic energy  EATOM  =      1521.38312781
  Solvation  Ediel_sol  =         0.00000000
  ---------------------------------------------------
  free energy    TOTEN  =        -2.34099599 eV

  energy without entropy =       -2.34099599  energy(sigma->0) =       -2.34099599


--------------------------------------------------------------------------------------------------------




----------------------------------------- Iteration    1(   3)  ---------------------------------------


     EDDAV:  cpu time    0.2360: real time    0.2377
       DOS:  cpu time    0.0000: real time    0.0007
    --------------------------------------------
      LOOP:  cpu time    0.2400: real time    0.2463

 eigenvalue-minimisations  :  5672
 total energy-change (2. order) :-0.3647692E+01  (-0.3643302E+01)
 number of electron      17.9999997 magnetization 
 augmentation part       17.9999997 magnetization 

 Free energy of the ion-electron system (eV)
  ---------------------------------------------------
  alpha Z        PSCENC =        48.00481358
  Ewald energy   TEWEN  =     -1044.83138452
  -Hartree energ DENC   =      -500.94267391
  -exchange      EXHF   =         0.00000000
  -V(xc)+E(xc)   XCENC  =       -21.49691907
  PAW double counting   =      1152.53605837    -1083.87723919
  entropy T*S    EENTRO =        -0.00000000
  eigenvalues    EBANDS =       -76.76447071
  atomic energy  EATOM  =      1521.38312781
  Solvation  Ediel_sol  =         0.00000000
  ---------------------------------------------------
  free energy    TOTEN  =        -5.98868764 eV

  energy without entropy =       -5.98868764  energy(sigma->0) =       -5.98868764


--------------------------------------------------------------------------------------------------------




----------------------------------------- Iteration    1(   4)  ---------------------------------------


     EDDAV:  cpu time    0.2840: real time    0.2843
       DOS:  cpu time    0.0000: real time    0.0004
    --------------------------------------------
      LOOP:  cpu time    0.2880: real time    0.2919

 eigenvalue-minimisations  :  6976
 total energy-change (2. order) :-0.3158780E-01  (-0.3158626E-01)
 number of electron      17.9999997 magnetization 
 augmentation part       17.9999997 magnetization 

 Free energy of the ion-electron system (eV)
  ---------------------------------------------------
  alpha Z        PSCENC =        48.00481358
  Ewald energy   TEWEN  =     -1044.83138452
  -Hartree energ DENC   =      -500.94267391
  -exchange      EXHF   =         0.00000000
  -V(xc)+E(xc)   XCENC  =       -21.49691907
  PAW double counting   =      1152.53605837    -1083.87723919
  entropy T*S    EENTRO =        -0.00000000
  eigenvalues    EBANDS =       -76.79605851
  atomic energy  EATOM  =      1521.38312781
  Solvation  Ediel_sol  =         0.00000000
  ---------------------------------------------------
  free energy    TOTEN  =        -6.02027544 eV

  energy without entropy =       -6.02027544  energy(sigma->0) =       -6.02027544


--------------------------------------------------------------------------------------------------------




----------------------------------------- Iteration    1(   5)  ---------------------------------------


     EDDAV:  cpu time    0.2560: real time    0.2550
       DOS:  cpu time    0.0000: real time    0.0006
    --------------------------------------------
      LOOP:  cpu time    0.2560: real time    0.2633

 eigenvalue-minimisations  :  5928
 total energy-change (2. order) :-0.6575758E-04  (-0.6575741E-04)
 number of electron      17.9999997 magnetization 
 augmentation part       17.9999997 magnetization 

 Free energy of the ion-electron system (eV)
  ---------------------------------------------------
  alpha Z        PSCENC =        48.00481358
  Ewald energy   TEWEN  =     -1044.83138452
  -Hartree energ DENC   =      -500.94267391
  -exchange      EXHF   =         0.00000000
  -V(xc)+E(xc)   XCENC  =       -21.49691907
  PAW double counting   =      1152.53605837    -1083.87723919
  entropy T*S    EENTRO =        -0.00000000
  eigenvalues    EBANDS =       -76.79612427
  atomic energy  EATOM  =      1521.38312781
  Solvation  Ediel_sol  =         0.00000000
  ---------------------------------------------------
  free energy    TOTEN  =        -6.02034120 eV

  energy without entropy =       -6.02034120  energy(sigma->0) =       -6.02034120


--------------------------------------------------------------------------------------------------------




----------------------------------------- Iteration    1(   6)  ---------------------------------------


     EDDAV:  cpu time    0.2760: real time    0.2788
       DOS:  cpu time    0.0000: real time    0.0006
    --------------------------------------------
      LOOP:  cpu time    0.2800: real time    0.2868

 eigenvalue-minimisations  :  6936
 total energy-change (2. order) :-0.1205157E-05  (-0.1205012E-05)
 number of electron      17.9999997 magnetization 
 augmentation part       17.9999997 magnetization 

 Free energy of the ion-electron system (eV)
  ---------------------------------------------------
  alpha Z        PSCENC =        48.00481358
  Ewald energy   TEWEN  =     -1044.83138452
  -Hartree energ DENC   =      -500.94267391
  -exchange      EXHF   =         0.00000000
  -V(xc)+E(xc)   XCENC  =       -21.49691907
  PAW double counting   =      1152.53605837    -1083.87723919
  entropy T*S    EENTRO =        -0.00000000
  eigenvalues    EBANDS =       -76.79612547
  atomic energy  EATOM  =      1521.38312781
  Solvation  Ediel_sol  =         0.00000000
  ---------------------------------------------------
  free energy    TOTEN  =        -6.02034240 eV

  energy without entropy =       -6.02034240  energy(sigma->0) =       -6.02034240


--------------------------------------------------------------------------------------------------------




----------------------------------------- Iteration    1(   7)  ---------------------------------------


     EDDAV:  cpu time    0.2160: real time    0.2159
       DOS:  cpu time    0.0000: real time    0.0008
    --------------------------------------------
      LOOP:  cpu time    0.2560: real time    0.2624

 eigenvalue-minimisations  :  4760
 total energy-change (2. order) :-0.1400622E-07  (-0.1400013E-07)
 number of electron      17.9999997 magnetization 
 augmentation part       17.9999997 magnetization 

 Free energy of the ion-electron system (eV)
  ---------------------------------------------------
  alpha Z        PSCENC =        48.00481358
  Ewald energy   TEWEN  =     -1044.83138452
  -Hartree energ DENC   =      -500.94267391
  -exchange      EXHF   =         0.00000000
  -V(xc)+E(xc)   XCENC  =       -21.49691907
  PAW double counting   =      1152.53605837    -1083.87723919
  entropy T*S    EENTRO =        -0.00000000
  eigenvalues    EBANDS =       -76.79612548
  atomic energy  EATOM  =      1521.38312781
  Solvation  Ediel_sol  =         0.00000000
  ---------------------------------------------------
  free energy    TOTEN  =        -6.02034242 eV

  energy without entropy =       -6.02034242  energy(sigma->0) =       -6.02034242


--------------------------------------------------------------------------------------------------------




 the core state eigenenergies are
   1-  1s -26363.8818  2s  -3914.0179  2p  -3517.1956  3s   -724.4051  3p   -593.6925
       3d   -387.7462  4s    -99.3801  4p    -60.4930
   2-  1s -31428.8628  2s  -4819.4449  2p  -4332.5192  3s   -952.9808  3p   -794.0663
       3d   -552.2175  4s   -155.9068  4p   -106.3924  4d    -33.4604
 
 E-fermi :   2.2394     XC(G=0):  -8.9429     alpha+bet : -7.4773


 k-point     1 :       0.0000    0.0000    0.0000
  band No.  band energies     occupation 
      1      -9.0843      2.00000
      2      -6.1415      2.00000
      3      -6.1415      2.00000
      4      -6.1415      2.00000
      5      -5.8762      2.00000
      6      -5.8762      2.00000
      7       2.1504      2.00000
      8       2.1504      2.00000
      9       2.1504      2.00000
     10       2.6983      0.00000
     11       6.6503      0.00000
     12       6.6503      0.00000
     13       6.6503      0.00000
     14       9.3636      0.00000
     15      11.4835      0.00000
     16      11.4835      0.00000

 k-point     2 :       0.1667    0.0000    0.0000
  band No.  band energies     occupation 
      1      -8.9831      2.00000
      2      -6.1227      2.00000
      3      -6.1227      2.00000
      4      -6.0602      2.00000
      5      -5.8775      2.00000
      6      -5.8775      2.00000
      7       0.3447      2.00000
      8       1.9184      2.00000
      9       1.9184      2.00000
     10       3.8490      0.00000
     11       6.7394      0.00000
     12       6.9898      0.00000
     13       6.9898      0.00000
     14      10.3737      0.00000
     15      10.5530      0.00000
     16      10.5530      0.00000

 k-point     3 :       0.3333    0.0000    0.0000
  band No.  band energies     occupation 
      1      -8.7801      2.00000
      2      -6.0902      2.00000
      3      -6.0902      2.00000
      4      -5.8738      2.00000
      5      -5.8738      2.00000
      6      -5.7839      2.00000
      7      -1.4994      2.00000
      8       1.5322      2.00000
      9       1.5322      2.00000
     10       3.9161      0.00000
     11       7.2773      0.00000
     12       7.2773      0.00000
     13       8.2364      0.00000
     14      10.0095      0.00000
     15      10.9518      0.00000
     16      10.9518      0.00000

 k-point     4 :       0.5000    0.0000    0.0000
  band No.  band energies     occupation 
      1      -8.6803      2.00000
      2      -6.0776      2.00000
      3      -6.0776      2.00000
      4      -5.8677      2.00000
      5      -5.8677      2.00000
      6      -5.5342      2.00000
      7      -2.3450      2.00000
      8       1.3650      2.00000
      9       1.3650      2.00000
     10       3.8060      0.00000
     11       7.2438      0.00000
     12       7.2438      0.00000
     13       9.0083      0.00000
     14      10.5885      0.00000
     15      12.3619      0.00000
     16      12.3619      0.00000

 k-point     5 :       0.1667    0.1667    0.0000
  band No.  band energies     occupation 
      1      -8.9497      2.00000
      2      -6.1037      2.00000
      3      -6.1037      2.00000
      4      -6.0613      2.00000
      5      -5.8849      2.00000
      6      -5.8685      2.00000
      7       0.3332      2.00000
      8       1.5344      2.00000
      9       1.5344      2.00000
     10       4.5122      0.00000
     11       5.7219      0.00000
     12       7.6010      0.00000
     13       7.6010      0.00000
     14       9.2138      0.00000
     15      11.1414      0.00000
     16      11.7213      0.00000

 k-point     6 :       0.3333    0.1667    0.0000
  band No.  band energies     occupation 
      1      -8.7817      2.00000
      2      -6.0785      2.00000
      3      -6.0670      2.00000
      4      -5.9298      2.00000
      5      -5.8628      2.00000
      6      -5.8077      2.00000
      7      -1.0453      2.00000
      8       0.9993      2.00000
      9       1.1215      2.00000
     10       4.8881      0.00000
     11       6.0615      0.00000
     12       7.7421      0.00000
     13       8.1683      0.00000
     14       9.9121      0.00000
     15      11.7529      0.00000
     16      11.8440      0.00000

 k-point     7 :       0.5000    0.1667    0.0000
  band No.  band energies     occupation 
      1      -8.6502      2.00000
      2      -6.0636      2.00000
      3      -6.0512      2.00000
      4      -5.8936      2.00000
      5      -5.8647      2.00000
      6      -5.5101      2.00000
      7      -2.1330      2.00000
      8       0.4641      2.00000
      9       1.0393      2.00000
     10       4.7947      0.00000
     11       6.7294      0.00000
     12       7.9934      0.00000
     13       8.5856      0.00000
     14      10.7953      0.00000
     15      12.0026      0.00000
     16      12.4538      0.00000

 k-point     8 :      -0.3333    0.1667    0.0000
  band No.  band energies     occupation 
      1      -8.6825      2.00000
      2      -6.0653      2.00000
      3      -6.0648      2.00000
      4      -5.8803      2.00000
      5      -5.8795      2.00000
      6      -5.5938      2.00000
      7      -1.8678      2.00000
      8       0.3287      2.00000
      9       1.3404      2.00000
     10       4.8477      0.00000
     11       6.9733      0.00000
     12       7.6878      0.00000
     13       8.3487      0.00000
     14      10.5450      0.00000
     15      11.1552      0.00000
     16      12.3578      0.00000

 k-point     9 :      -0.1667    0.1667    0.0000
  band No.  band energies     occupation 
      1      -8.8482      2.00000
      2      -6.1011      2.00000
      3      -6.0870      2.00000
      4      -5.9330      2.00000
      5      -5.8863      2.00000
      6      -5.8545      2.00000
      7      -0.6377      2.00000
      8       0.8726      2.00000
      9       1.7964      2.00000
     10       4.6796      0.00000
     11       6.7114      0.00000
     12       7.2196      0.00000
     13       7.5259      0.00000
     14       9.8003      0.00000
     15      10.9927      0.00000
     16      11.7403      0.00000

 k-point    10 :       0.3333    0.3333    0.0000
  band No.  band energies     occupation 
      1      -8.6838      2.00000
      2      -6.0214      2.00000
      3      -6.0214      2.00000
      4      -5.9701      2.00000
      5      -5.8532      2.00000
      6      -5.6947      2.00000
      7      -1.3971      2.00000
      8       0.6319      2.00000
      9       0.6319      2.00000
     10       4.7491      0.00000
     11       5.1608      0.00000
     12       9.3381      0.00000
     13       9.5385      0.00000
     14       9.5385      0.00000
     15      12.3780      0.00000
     16      13.9279      0.00000

 k-point    11 :       0.5000    0.3333    0.0000
  band No.  band energies     occupation 
      1      -8.5885      2.00000
      2      -6.0201      2.00000
      3      -5.9999      2.00000
      4      -5.9444      2.00000
      5      -5.8544      2.00000
      6      -5.4451      2.00000
      7      -2.0206      2.00000
      8      -0.0420      2.00000
      9       0.4977      2.00000
     10       4.8382      0.00000
     11       5.7349      0.00000
     12       8.9874      0.00000
     13       9.7381      0.00000
     14      11.0690      0.00000
     15      12.7557      0.00000
     16      13.4910      0.00000

 k-point    12 :      -0.3333    0.3333    0.0000
  band No.  band energies     occupation 
      1      -8.5889      2.00000
      2      -6.0400      2.00000
      3      -6.0192      2.00000
      4      -5.9052      2.00000
      5      -5.8719      2.00000
      6      -5.3830      2.00000
      7      -2.0572      2.00000
      8      -0.5055      2.00000
      9       0.8101      2.00000
     10       5.0648      0.00000
     11       7.1493      0.00000
     12       8.8934      0.00000
     13       8.9955      0.00000
     14       9.4833      0.00000
     15      11.0714      0.00000
     16      14.1797      0.00000

 k-point    13 :       0.5000    0.5000    0.0000
  band No.  band energies     occupation 
      1      -8.5570      2.00000
      2      -5.9839      2.00000
      3      -5.9765      2.00000
      4      -5.9765      2.00000
      5      -5.8455      2.00000
      6      -5.3987      2.00000
      7      -2.2265      2.00000
      8       0.2623      2.00000
      9       0.2623      2.00000
     10       4.5922      0.00000
     11       4.7016      0.00000
     12      10.7819      0.00000
     13      11.1286      0.00000
     14      11.1286      0.00000
     15      12.9283      0.00000
     16      13.5953      0.00000

 k-point    14 :       0.5000    0.3333    0.1667
  band No.  band energies     occupation 
      1      -8.6516      2.00000
      2      -6.0455      2.00000
      3      -6.0375      2.00000
      4      -5.9193      2.00000
      5      -5.8639      2.00000
      6      -5.5703      2.00000
      7      -1.7038      2.00000
      8       0.0418      2.00000
      9       0.8110      2.00000
     10       5.6080      0.00000
     11       6.1534      0.00000
     12       7.3243      0.00000
     13       9.4333      0.00000
     14      10.2253      0.00000
     15      12.2940      0.00000
     16      13.4593      0.00000

 k-point    15 :      -0.3333    0.3333    0.1667
  band No.  band energies     occupation 
      1      -8.5889      2.00000
      2      -6.0379      2.00000
      3      -6.0226      2.00000
      4      -5.9022      2.00000
      5      -5.8737      2.00000
      6      -5.3822      2.00000
      7      -2.0937      2.00000
      8      -0.2781      2.00000
      9       0.5246      2.00000
     10       5.7415      0.00000
     11       6.6455      0.00000
     12       7.7780      0.00000
     13       9.2989      0.00000
     14       9.9802      0.00000
     15      12.4964      0.00000
     16      13.2539      0.00000

 k-point    16 :      -0.3333    0.5000    0.1667
  band No.  band energies     occupation 
      1      -8.5582      2.00000
      2      -6.0087      2.00000
      3      -6.0087      2.00000
      4      -5.9260      2.00000
      5      -5.8638      2.00000
      6      -5.3349      2.00000
      7      -2.1387      2.00000
      8      -0.0960      2.00000
      9      -0.0073      2.00000
     10       5.7579      0.00000
     11       5.7939      0.00000
     12       8.6999      0.00000
     13       8.9805      0.00000
     14      11.5736      0.00000
     15      13.1154      0.00000
     16      13.3685      0.00000

 k-point    17 :       0.0000    0.0000    0.0000
  band No.  band energies     occupation 
      1      -9.0843      2.00000
      2      -6.1415      2.00000
      3      -6.1415      2.00000
      4      -6.1415      2.00000
      5      -5.8762      2.00000
      6      -5.8762      2.00000
      7       2.1504      2.00000
      8       2.1504      2.00000
      9       2.1504      2.00000
     10       2.6983      0.00000
     11       6.6503      0.00000
     12       6.6503      0.00000
     13       6.6503      0.00000
     14       9.3636      0.00000
     15      11.4835      0.00000
     16      11.4836      0.00000

 k-point    18 :       0.0161    0.0000    0.0161
  band No.  band energies     occupation 
      1      -9.0830      2.00000
      2      -6.1412      2.00000
      3      -6.1412      2.00000
      4      -6.1408      2.00000
      5      -5.8763      2.00000
      6      -5.8761      2.00000
      7       2.0795      2.00000
      8       2.1430      2.00000
      9       2.1430      2.00000
     10       2.7702      0.00000
     11       6.6351      0.00000
     12       6.6608      0.00000
     13       6.6608      0.00000
     14       9.3859      0.00000
     15      11.3831      0.00000
     16      11.4858      0.00000

 k-point    19 :       0.0323    0.0000    0.0323
  band No.  band energies     occupation 
      1      -9.0788      2.00000
      2      -6.1400      2.00000
      3      -6.1400      2.00000
      4      -6.1387      2.00000
      5      -5.8767      2.00000
      6      -5.8759      2.00000
      7       1.9248      2.00000
      8       2.1211      2.00000
      9       2.1211      2.00000
     10       2.9278      0.00000
     11       6.5912      0.00000
     12       6.6921      0.00000
     13       6.6921      0.00000
     14       9.4511      0.00000
     15      11.1702      0.00000
     16      11.4925      0.00000

 k-point    20 :       0.0484    0.0000    0.0484
  band No.  band energies     occupation 
      1      -9.0720      2.00000
      2      -6.1381      2.00000
      3      -6.1381      2.00000
      4      -6.1350      2.00000
      5      -5.8774      2.00000
      6      -5.8755      2.00000
      7       1.7425      2.00000
      8       2.0854      2.00000
      9       2.0854      2.00000
     10       3.1146      0.00000
     11       6.5225      0.00000
     12       6.7434      0.00000
     13       6.7434      0.00000
     14       9.5542      0.00000
     15      10.9246      0.00000
     16      11.5038      0.00000

 k-point    21 :       0.0645    0.0000    0.0645
  band No.  band energies     occupation 
      1      -9.0625      2.00000
      2      -6.1355      2.00000
      3      -6.1355      2.00000
      4      -6.1299      2.00000
      5      -5.8783      2.00000
      6      -5.8749      2.00000
      7       1.5510      2.00000
      8       2.0370      2.00000
      9       2.0370      2.00000
     10       3.3117      0.00000
     11       6.4346      0.00000
     12       6.8136      0.00000
     13       6.8136      0.00000
     14       9.6873      0.00000
     15      10.6747      0.00000
     16      11.5195      0.00000

 k-point    22 :       0.0806    0.0000    0.0806
  band No.  band energies     occupation 
      1      -9.0505      2.00000
      2      -6.1322      2.00000
      3      -6.1322      2.00000
      4      -6.1233      2.00000
      5      -5.8794      2.00000
      6      -5.8743      2.00000
      7       1.3566      2.00000
      8       1.9774      2.00000
      9       1.9774      2.00000
     10       3.5120      0.00000
     11       6.3328      0.00000
     12       6.9013      0.00000
     13       6.9013      0.00000
     14       9.8353      0.00000
     15      10.4405      0.00000
     16      11.5397      0.00000

 k-point    23 :       0.0968    0.0000    0.0968
  band No.  band energies     occupation 
      1      -9.0361      2.00000
      2      -6.1282      2.00000
      3      -6.1282      2.00000
      4      -6.1151      2.00000
      5      -5.8806      2.00000
      6      -5.8734      2.00000
      7       1.1617      2.00000
      8       1.9080      2.00000
      9       1.9080      2.00000
     10       3.7121      0.00000
     11       6.2220      0.00000
     12       7.0050      0.00000
     13       7.0050      0.00000
     14       9.9345      0.00000
     15      10.2867      0.00000
     16      11.5643      0.00000

 k-point    24 :       0.1129    0.0000    0.1129
  band No.  band energies     occupation 
      1      -9.0194      2.00000
      2      -6.1235      2.00000
      3      -6.1235      2.00000
      4      -6.1053      2.00000
      5      -5.8819      2.00000
      6      -5.8725      2.00000
      7       0.9675      2.00000
      8       1.8306      2.00000
      9       1.8306      2.00000
     10       3.9093      0.00000
     11       6.1063      0.00000
     12       7.1231      0.00000
     13       7.1231      0.00000
     14       9.8318      0.00000
     15      10.3663      0.00000
     16      11.5933      0.00000

 k-point    25 :       0.1290    0.0000    0.1290
  band No.  band energies     occupation 
      1      -9.0006      2.00000
      2      -6.1182      2.00000
      3      -6.1182      2.00000
      4      -6.0939      2.00000
      5      -5.8831      2.00000
      6      -5.8714      2.00000
      7       0.7748      2.00000
      8       1.7467      2.00000
      9       1.7467      2.00000
     10       4.1012      0.00000
     11       5.9889      0.00000
     12       7.2540      0.00000
     13       7.2540      0.00000
     14       9.6391      0.00000
     15      10.5676      0.00000
     16      11.6267      0.00000

 k-point    26 :       0.1452    0.0000    0.1452
  band No.  band energies     occupation 
      1      -8.9799      2.00000
      2      -6.1124      2.00000
      3      -6.1124      2.00000
      4      -6.0809      2.00000
      5      -5.8842      2.00000
      6      -5.8702      2.00000
      7       0.5841      2.00000
      8       1.6579      2.00000
      9       1.6579      2.00000
     10       4.2851      0.00000
     11       5.8723      0.00000
     12       7.3962      0.00000
     13       7.3962      0.00000
     14       9.4454      0.00000
     15      10.8024      0.00000
     16      11.6644      0.00000

 k-point    27 :       0.1613    0.0000    0.1613
  band No.  band energies     occupation 
      1      -8.9575      2.00000
      2      -6.1059      2.00000
      3      -6.1059      2.00000
      4      -6.0665      2.00000
      5      -5.8849      2.00000
      6      -5.8690      2.00000
      7       0.3955      2.00000
      8       1.5657      2.00000
      9       1.5657      2.00000
     10       4.4577      0.00000
     11       5.7587      0.00000
     12       7.5483      0.00000
     13       7.5483      0.00000
     14       9.2680      0.00000
     15      11.0545      0.00000
     16      11.7064      0.00000

 k-point    28 :       0.1774    0.0000    0.1774
  band No.  band energies     occupation 
      1      -8.9337      2.00000
      2      -6.0990      2.00000
      3      -6.0990      2.00000
      4      -6.0507      2.00000
      5      -5.8847      2.00000
      6      -5.8676      2.00000
      7       0.2094      2.00000
      8       1.4712      2.00000
      9       1.4712      2.00000
     10       4.6153      0.00000
     11       5.6503      0.00000
     12       7.7092      0.00000
     13       7.7092      0.00000
     14       9.1138      0.00000
     15      11.3186      0.00000
     16      11.7525      0.00000

 k-point    29 :       0.1935    0.0000    0.1935
  band No.  band energies     occupation 
      1      -8.9086      2.00000
      2      -6.0917      2.00000
      3      -6.0917      2.00000
      4      -6.0342      2.00000
      5      -5.8833      2.00000
      6      -5.8662      2.00000
      7       0.0261      2.00000
      8       1.3757      2.00000
      9       1.3757      2.00000
     10       4.7530      0.00000
     11       5.5493      0.00000
     12       7.8776      0.00000
     13       7.8776      0.00000
     14       8.9874      0.00000
     15      11.5917      0.00000
     16      11.8027      0.00000

 k-point    30 :       0.2097    0.0000    0.2097
  band No.  band energies     occupation 
      1      -8.8826      2.00000
      2      -6.0840      2.00000
      3      -6.0840      2.00000
      4      -6.0176      2.00000
      5      -5.8796      2.00000
      6      -5.8647      2.00000
      7      -0.1542      2.00000
      8       1.2802      2.00000
      9       1.2802      2.00000
     10       4.8649      0.00000
     11       5.4590      0.00000
     12       8.0528      0.00000
     13       8.0528      0.00000
     14       8.8932      0.00000
     15      11.8569      0.00000
     16      11.8714      0.00000

 k-point    31 :       0.2258    0.0000    0.2258
  band No.  band energies     occupation 
      1      -8.8560      2.00000
      2      -6.0761      2.00000
      3      -6.0761      2.00000
      4      -6.0020      2.00000
      5      -5.8726      2.00000
      6      -5.8632      2.00000
      7      -0.3312      2.00000
      8       1.1857      2.00000
      9       1.1857      2.00000
     10       4.9431      0.00000
     11       5.3846      0.00000
     12       8.2337      0.00000
     13       8.2337      0.00000
     14       8.8343      0.00000
     15      11.9148      0.00000
     16      12.1557      0.00000

 k-point    32 :       0.2419    0.0000    0.2419
  band No.  band energies     occupation 
      1      -8.8291      2.00000
      2      -6.0679      2.00000
      3      -6.0679      2.00000
      4      -5.9888      2.00000
      5      -5.8617      2.00000
      6      -5.8607      2.00000
      7      -0.5047      2.00000
      8       1.0930      2.00000
      9       1.0930      2.00000
     10       4.9792      0.00000
     11       5.3327      0.00000
     12       8.4197      0.00000
     13       8.4197      0.00000
     14       8.8132      0.00000
     15      11.9764      0.00000
     16      12.4422      0.00000

 k-point    33 :       0.2581    0.0000    0.2581
  band No.  band energies     occupation 
      1      -8.8021      2.00000
      2      -6.0595      2.00000
      3      -6.0595      2.00000
      4      -5.9792      2.00000
      5      -5.8601      2.00000
      6      -5.8428      2.00000
      7      -0.6741      2.00000
      8       1.0027      2.00000
      9       1.0027      2.00000
     10       4.9720      0.00000
     11       5.3038      0.00000
     12       8.6101      0.00000
     13       8.6101      0.00000
     14       8.8304      0.00000
     15      12.0413      0.00000
     16      12.7279      0.00000

 k-point    34 :       0.2742    0.0000    0.2742
  band No.  band energies     occupation 
      1      -8.7753      2.00000
      2      -6.0512      2.00000
      3      -6.0512      2.00000
      4      -5.9731      2.00000
      5      -5.8586      2.00000
      6      -5.8189      2.00000
      7      -0.8391      2.00000
      8       0.9156      2.00000
      9       0.9156      2.00000
     10       4.9349      0.00000
     11       5.2858      0.00000
     12       8.8043      0.00000
     13       8.8043      0.00000
     14       8.8847      0.00000
     15      12.1093      0.00000
     16      13.0095      0.00000

 k-point    35 :       0.2903    0.0000    0.2903
  band No.  band energies     occupation 
      1      -8.7491      2.00000
      2      -6.0428      2.00000
      3      -6.0428      2.00000
      4      -5.9700      2.00000
      5      -5.8570      2.00000
      6      -5.7898      2.00000
      7      -0.9992      2.00000
      8       0.8322      2.00000
      9       0.8322      2.00000
     10       4.8848      0.00000
     11       5.2645      0.00000
     12       8.9730      0.00000
     13       9.0017      0.00000
     14       9.0017      0.00000
     15      12.1799      0.00000
     16      13.2829      0.00000

 k-point    36 :       0.3065    0.0000    0.3065
  band No.  band energies     occupation 
      1      -8.7237      2.00000
      2      -6.0346      2.00000
      3      -6.0346      2.00000
      4      -5.9690      2.00000
      5      -5.8556      2.00000
      6      -5.7566      2.00000
      7      -1.1538      2.00000
      8       0.7530      2.00000
      9       0.7530      2.00000
     10       4.8318      0.00000
     11       5.2337      0.00000
     12       9.0907      0.00000
     13       9.2016      0.00000
     14       9.2016      0.00000
     15      12.2529      0.00000
     16      13.5428      0.00000

[...]
      1      -8.8219      2.00000
      2      -6.0962      2.00000
      3      -6.0962      2.00000
      4      -5.8754      2.00000
      5      -5.8754      2.00000
      6      -5.8590      2.00000
      7      -1.1519      2.00000
      8       1.6058      2.00000
      9       1.6058      2.00000
     10       3.9521      0.00000
     11       7.2619      0.00000
     12       7.2619      0.00000
     13       7.8512      0.00000
     14      10.0774      0.00000
     15      10.7109      0.00000
     16      10.7109      0.00000

 k-point   131 :       0.3108    0.3108    0.3108
  band No.  band energies     occupation 
      1      -8.8057      2.00000
      2      -6.0939      2.00000
      3      -6.0939      2.00000
      4      -5.8748      2.00000
      5      -5.8748      2.00000
      6      -5.8314      2.00000
      7      -1.2868      2.00000
      8       1.5770      2.00000
      9       1.5770      2.00000
     10       3.9393      0.00000
     11       7.2703      0.00000
     12       7.2703      0.00000
     13       7.9972      0.00000
     14      10.0449      0.00000
     15      10.7924      0.00000
     16      10.7924      0.00000

 k-point   132 :       0.3243    0.3243    0.3243
  band No.  band energies     occupation 
      1      -8.7901      2.00000
      2      -6.0916      2.00000
      3      -6.0916      2.00000
      4      -5.8742      2.00000
      5      -5.8742      2.00000
      6      -5.8031      2.00000
      7      -1.4163      2.00000
      8       1.5496      2.00000
      9       1.5496      2.00000
     10       3.9256      0.00000
     11       7.2754      0.00000
     12       7.2754      0.00000
     13       8.1419      0.00000
     14      10.0204      0.00000
     15      10.8846      0.00000
     16      10.8846      0.00000

 k-point   133 :       0.3378    0.3378    0.3378
  band No.  band energies     occupation 
      1      -8.7752      2.00000
      2      -6.0895      2.00000
      3      -6.0895      2.00000
      4      -5.8736      2.00000
      5      -5.8736      2.00000
      6      -5.7742      2.00000
      7      -1.5399      2.00000
      8       1.5237      2.00000
      9       1.5237      2.00000
     10       3.9113      0.00000
     11       7.2778      0.00000
     12       7.2778      0.00000
     13       8.2827      0.00000
     14      10.0058      0.00000
     15      10.9869      0.00000
     16      10.9869      0.00000

 k-point   134 :       0.3514    0.3514    0.3514
  band No.  band energies     occupation 
      1      -8.7610      2.00000
      2      -6.0876      2.00000
      3      -6.0876      2.00000
      4      -5.8729      2.00000
      5      -5.8729      2.00000
      6      -5.7451      2.00000
      7      -1.6571      2.00000
      8       1.4994      2.00000
      9       1.4994      2.00000
     10       3.8970      0.00000
     11       7.2779      0.00000
     12       7.2779      0.00000
     13       8.4168      0.00000
     14      10.0031      0.00000
     15      11.0983      0.00000
     16      11.0983      0.00000

 k-point   135 :       0.3649    0.3649    0.3649
  band No.  band energies     occupation 
      1      -8.7478      2.00000
      2      -6.0859      2.00000
      3      -6.0859      2.00000
      4      -5.8722      2.00000
      5      -5.8722      2.00000
      6      -5.7161      2.00000
      7      -1.7672      2.00000
      8       1.4769      2.00000
      9       1.4769      2.00000
     10       3.8830      0.00000
     11       7.2762      0.00000
     12       7.2762      0.00000
     13       8.5409      0.00000
     14      10.0146      0.00000
     15      11.2179      0.00000
     16      11.2179      0.00000

 k-point   136 :       0.3784    0.3784    0.3784
  band No.  band energies     occupation 
      1      -8.7355      2.00000
      2      -6.0843      2.00000
      3      -6.0843      2.00000
      4      -5.8715      2.00000
      5      -5.8715      2.00000
      6      -5.6876      2.00000
      7      -1.8698      2.00000
      8       1.4562      2.00000
      9       1.4562      2.00000
     10       3.8696      0.00000
     11       7.2731      0.00000
     12       7.2731      0.00000
     13       8.6517      0.00000
     14      10.0421      0.00000
     15      11.3447      0.00000
     16      11.3447      0.00000

 k-point   137 :       0.3919    0.3919    0.3919
  band No.  band energies     occupation 
      1      -8.7243      2.00000
      2      -6.0828      2.00000
      3      -6.0828      2.00000
      4      -5.8708      2.00000
      5      -5.8708      2.00000
      6      -5.6600      2.00000
      7      -1.9640      2.00000
      8       1.4375      2.00000
      9       1.4375      2.00000
     10       3.8571      0.00000
     11       7.2691      0.00000
     12       7.2691      0.00000
     13       8.7466      0.00000
     14      10.0867      0.00000
     15      11.4773      0.00000
     16      11.4773      0.00000

 k-point   138 :       0.4054    0.4054    0.4054
  band No.  band energies     occupation 
      1      -8.7142      2.00000
      2      -6.0816      2.00000
      3      -6.0816      2.00000
      4      -5.8702      2.00000
      5      -5.8702      2.00000
      6      -5.6339      2.00000
      7      -2.0494      2.00000
      8       1.4208      2.00000
      9       1.4208      2.00000
     10       3.8457      0.00000
     11       7.2646      0.00000
     12       7.2646      0.00000
     13       8.8242      0.00000
     14      10.1478      0.00000
     15      11.6144      0.00000
     16      11.6144      0.00000

 k-point   139 :       0.4189    0.4189    0.4189
  band No.  band energies     occupation 
      1      -8.7054      2.00000
      2      -6.0805      2.00000
      3      -6.0805      2.00000
      4      -5.8696      2.00000
      5      -5.8696      2.00000
      6      -5.6097      2.00000
      7      -2.1251      2.00000
      8       1.4061      2.00000
      9       1.4061      2.00000
     10       3.8355      0.00000
     11       7.2600      0.00000
     12       7.2600      0.00000
     13       8.8847      0.00000
     14      10.2224      0.00000
     15      11.7541      0.00000
     16      11.7541      0.00000

 k-point   140 :       0.4324    0.4324    0.4324
  band No.  band energies     occupation 
      1      -8.6978      2.00000
      2      -6.0796      2.00000
      3      -6.0796      2.00000
      4      -5.8690      2.00000
      5      -5.8690      2.00000
      6      -5.5881      2.00000
      7      -2.1907      2.00000
      8       1.3937      2.00000
      9       1.3937      2.00000
     10       3.8267      0.00000
     11       7.2556      0.00000
     12       7.2556      0.00000
     13       8.9297      0.00000
     14      10.3054      0.00000
     15      11.8936      0.00000
     16      11.8936      0.00000

 k-point   141 :       0.4459    0.4459    0.4459
  band No.  band energies     occupation 
      1      -8.6916      2.00000
      2      -6.0789      2.00000
      3      -6.0789      2.00000
      4      -5.8686      2.00000
      5      -5.8686      2.00000
      6      -5.5695      2.00000
      7      -2.2453      2.00000
      8       1.3834      2.00000
      9       1.3834      2.00000
     10       3.8193      0.00000
     11       7.2517      0.00000
     12       7.2517      0.00000
     13       8.9619      0.00000
     14      10.3900      0.00000
     15      12.0292      0.00000
     16      12.0292      0.00000

 k-point   142 :       0.4595    0.4595    0.4595
  band No.  band energies     occupation 
      1      -8.6866      2.00000
      2      -6.0783      2.00000
      3      -6.0783      2.00000
      4      -5.8682      2.00000
      5      -5.8682      2.00000
      6      -5.5544      2.00000
      7      -2.2885      2.00000
      8       1.3753      2.00000
      9       1.3753      2.00000
     10       3.8135      0.00000
     11       7.2484      0.00000
     12       7.2484      0.00000
     13       8.9840      0.00000
     14      10.4683      0.00000
     15      12.1549      0.00000
     16      12.1549      0.00000

 k-point   143 :       0.4730    0.4730    0.4730
  band No.  band energies     occupation 
      1      -8.6831      2.00000
      2      -6.0779      2.00000
      3      -6.0779      2.00000
      4      -5.8679      2.00000
      5      -5.8679      2.00000
      6      -5.5433      2.00000
      7      -2.3197      2.00000
      8       1.3696      2.00000
      9       1.3696      2.00000
     10       3.8094      0.00000
     11       7.2459      0.00000
     12       7.2459      0.00000
     13       8.9980      0.00000
     14      10.5320      0.00000
     15      12.2613      0.00000
     16      12.2613      0.00000

 k-point   144 :       0.4865    0.4865    0.4865
  band No.  band energies     occupation 
      1      -8.6810      2.00000
      2      -6.0776      2.00000
      3      -6.0776      2.00000
      4      -5.8678      2.00000
      5      -5.8678      2.00000
      6      -5.5365      2.00000
      7      -2.3386      2.00000
      8       1.3661      2.00000
      9       1.3661      2.00000
     10       3.8068      0.00000
     11       7.2444      0.00000
     12       7.2444      0.00000
     13       9.0058      0.00000
     14      10.5739      0.00000
     15      12.3350      0.00000
     16      12.3350      0.00000

 k-point   145 :       0.5000    0.5000    0.5000
  band No.  band energies     occupation 
      1      -8.6803      2.00000
      2      -6.0776      2.00000
      3      -6.0776      2.00000
      4      -5.8677      2.00000
      5      -5.8677      2.00000
      6      -5.5342      2.00000
      7      -2.3450      2.00000
      8       1.3650      2.00000
      9       1.3650      2.00000
     10       3.8060      0.00000
     11       7.2438      0.00000
     12       7.2438      0.00000
     13       9.0083      0.00000
     14      10.5885      0.00000
     15      12.3619      0.00000
     16      12.3619      0.00000


--------------------------------------------------------------------------------------------------------


 soft charge-density along one line, spin component           1
         0         1         2         3         4         5         6         7         8         9
 total charge-density along one line
 
 pseudopotential strength for first ion, spin component:           1
-17.867   0.000  -0.000   0.000   0.000   0.685   0.000   0.000
  0.000 -17.867  -0.000  -0.000   0.000   0.000   0.685   0.000
 -0.000  -0.000 -17.865  -0.000  -0.000   0.000   0.000   0.685
  0.000  -0.000  -0.000 -17.867  -0.000   0.000  -0.000   0.000
  0.000   0.000  -0.000  -0.000 -17.865  -0.000  -0.000   0.000
  0.685   0.000   0.000   0.000  -0.000   0.445  -0.000  -0.000
  0.000   0.685   0.000  -0.000  -0.000  -0.000   0.445  -0.000
  0.000   0.000   0.685   0.000   0.000  -0.000  -0.000   0.445
  0.000  -0.000   0.000   0.685   0.000  -0.000   0.000  -0.000
 -0.000  -0.000   0.000   0.000   0.685   0.000   0.000  -0.000
 -0.000   0.000   0.000   0.000  -0.000   0.000  -0.000  -0.000
  0.000  -0.000  -0.000  -0.000   0.000  -0.000   0.000   0.000
 -0.000   0.000   0.000  -0.001   0.000   0.000  -0.000  -0.000
 -0.001  -0.000   0.000  -0.000  -0.000   0.000   0.000  -0.000
 -0.000  -0.001   0.000   0.000  -0.000   0.000   0.000  -0.000
  0.000  -0.000  -0.000   0.001  -0.000  -0.000   0.000   0.000
  0.001   0.000  -0.000   0.000   0.000  -0.000  -0.000   0.000
  0.000   0.001  -0.000  -0.000   0.000  -0.000  -0.000   0.000
 total augmentation occupancy for first ion, spin component:           1
  2.000   0.000   0.000   0.000   0.000   0.000   0.000   0.000   0.000   0.000   0.000   0.000   0.000   0.000   0.000   0.000
  0.000   2.000   0.000   0.000   0.000   0.000   0.000   0.000   0.000   0.000   0.000   0.000   0.000   0.000   0.000   0.000
  0.000   0.000   2.000   0.000   0.000   0.000   0.000   0.000   0.000   0.000   0.000   0.000   0.000   0.000   0.000   0.000
  0.000   0.000   0.000   2.000   0.000   0.000   0.000   0.000   0.000   0.000   0.000   0.000   0.000   0.000   0.000   0.000
  0.000   0.000   0.000   0.000   2.000   0.000   0.000   0.000   0.000   0.000   0.000   0.000   0.000   0.000   0.000   0.000
  0.000   0.000   0.000   0.000   0.000   0.000   0.000   0.000   0.000   0.000   0.000   0.000   0.000   0.000   0.000   0.000
  0.000   0.000   0.000   0.000   0.000   0.000   0.000   0.000   0.000   0.000   0.000   0.000   0.000   0.000   0.000   0.000
  0.000   0.000   0.000   0.000   0.000   0.000   0.000   0.000   0.000   0.000   0.000   0.000   0.000   0.000   0.000   0.000
  0.000   0.000   0.000   0.000   0.000   0.000   0.000   0.000   0.000   0.000   0.000   0.000   0.000   0.000   0.000   0.000
  0.000   0.000   0.000   0.000   0.000   0.000   0.000   0.000   0.000   0.000   0.000   0.000   0.000   0.000   0.000   0.000
  0.000   0.000   0.000   0.000   0.000   0.000   0.000   0.000   0.000   0.000   2.000   0.000   0.000   0.000   0.000   0.000
  0.000   0.000   0.000   0.000   0.000   0.000   0.000   0.000   0.000   0.000   0.000   0.000   0.000   0.000   0.000   0.000
  0.000   0.000   0.000   0.000   0.000   0.000   0.000   0.000   0.000   0.000   0.000   0.000   0.000   0.000   0.000   0.000
  0.000   0.000   0.000   0.000   0.000   0.000   0.000   0.000   0.000   0.000   0.000   0.000   0.000   0.000   0.000   0.000
  0.000   0.000   0.000   0.000   0.000   0.000   0.000   0.000   0.000   0.000   0.000   0.000   0.000   0.000   0.000   0.000
  0.000   0.000   0.000   0.000   0.000   0.000   0.000   0.000   0.000   0.000   0.000   0.000   0.000   0.000   0.000   0.000
  0.000   0.000   0.000   0.000   0.000   0.000   0.000   0.000   0.000   0.000   0.000   0.000   0.000   0.000   0.000   0.000
  0.000   0.000   0.000   0.000   0.000   0.000   0.000   0.000   0.000   0.000   0.000   0.000   0.000   0.000   0.000   0.000


------------------------ aborting loop because EDIFF is reached ----------------------------------------


 


 total charge     
 
# of ion     s       p       d       tot
----------------------------------------
  1        0.483   0.324   9.521  10.328
  2        1.358   2.050   0.022   3.430
------------------------------------------------
tot        1.840   2.374   9.544  13.758
 
    CHARGE:  cpu time    0.0080: real time    0.0091
    FORLOC:  cpu time    0.0000: real time    0.0006
    FORNL :  cpu time    0.0200: real time    0.0189
    STRESS:  cpu time    0.2000: real time    0.2007
    FORCOR:  cpu time    0.0040: real time    0.0030
    FORHAR:  cpu time    0.0000: real time    0.0020
    OFIELD:  cpu time    0.0000: real time    0.0000

  FORCE on cell =-STRESS in cart. coord.  units (eV):
  Direction    XX          YY          ZZ          XY          YZ          ZX
  --------------------------------------------------------------------------------------
  Alpha Z    48.00481    48.00481    48.00481
  Ewald    -348.27726  -348.27726  -348.27726     0.00000     0.00000     0.00000
  Hartree   166.97779   166.97779   166.97779     0.00000    -0.00000    -0.00000
  E(xc)     -85.67759   -85.67759   -85.67759    -0.00000     0.00000     0.00000
  Local     -20.80724   -20.80724   -20.80724     0.00001    -0.00001    -0.00001
  n-local    25.94151    31.48392    30.56438    -1.80536    -3.16126    -1.17516
  augment     5.64425     5.64425     5.64425    -0.00001     0.00001     0.00001
  Kinetic   201.77132   205.43294   205.65075    -1.64282    -3.14212    -1.24729
  Fock        0.00000     0.00000     0.00000     0.00000     0.00000     0.00000
  -------------------------------------------------------------------------------------
  Total      -0.52030    -0.52030    -0.52030     0.00000     0.00000     0.00000
  in kB     -12.23923   -12.23923   -12.23923     0.00000     0.00000     0.00000
  external pressure =      -12.24 kB  Pullay stress =        0.00 kB


 VOLUME and BASIS-vectors are now :
 -----------------------------------------------------------------------------
  energy-cutoff  :      500.00
  volume of cell :       68.11
      direct lattice vectors                 reciprocal lattice vectors
     3.241350000  3.241350000  0.000000000     0.154256714  0.154256714  0.154256714
     3.241350000  0.000000000 -3.241350000     0.154256714 -0.154256714 -0.154256714
     0.000000000  3.241350000 -3.241350000    -0.154256714  0.154256714 -0.154256714

  length of vectors
     4.583961130  4.583961130  4.583961130     0.267180466  0.267180466  0.267180466


 FORCES acting on ions
    electron-ion (+dipol)            ewald-force                    non-local-force                 convergence-correction
 -----------------------------------------------------------------------------------------------
   -.280E-08 -.303E-08 0.303E-08   -.744E-14 -.454E-14 0.998E-14   0.486E-16 0.347E-16 -.139E-16   -.390E-08 -.390E-08 0.390E-08
   0.191E-06 0.198E-06 -.198E-06   0.759E-14 0.606E-14 -.102E-13   0.243E-16 0.416E-16 0.000E+00   -.442E-09 -.442E-09 0.442E-09
 -----------------------------------------------------------------------------------------------
   0.188E-06 0.195E-06 -.195E-06   0.152E-15 0.152E-14 -.238E-15   0.729E-16 0.763E-16 -.139E-16   -.435E-08 -.435E-08 0.435E-08
 
 
 POSITION                                       TOTAL-FORCE (eV/Angst)
 -----------------------------------------------------------------------------------
      0.00000      0.00000      0.00000         0.000000      0.000000      0.000000
      1.62068      1.62068     -1.62068        -0.000000     -0.000000     -0.000000
 -----------------------------------------------------------------------------------
    total drift:                                0.000000      0.000000     -0.000000


--------------------------------------------------------------------------------------------------------



  FREE ENERGIE OF THE ION-ELECTRON SYSTEM (eV)
  ---------------------------------------------------
  free  energy   TOTEN  =        -6.02034242 eV

  energy  without entropy=       -6.02034242  energy(sigma->0) =       -6.02034242
 


--------------------------------------------------------------------------------------------------------


    POTLOK:  cpu time    0.0080: real time    0.0048


--------------------------------------------------------------------------------------------------------




--------------------------------------------------------------------------------------------------------


 writing wavefunctions
     LOOP+:  cpu time    3.2202: real time    3.4537
    4ORBIT:  cpu time    0.0000: real time    0.0000
 


 total charge     
 
# of ion     s       p       d       tot
----------------------------------------
  1        0.483   0.324   9.521  10.328
  2        1.358   2.050   0.022   3.430
------------------------------------------------
tot        1.840   2.374   9.544  13.758
 

 total amount of memory used by VASP on root node    47288. kBytes
========================================================================

   base      :      30000. kBytes
   nonl-proj :      12370. kBytes
   fftplans  :        769. kBytes
   grid      :       1202. kBytes
   one-center:         15. kBytes
   wavefun   :       2932. kBytes
 
  
  
 General timing and accounting informations for this job:
 ========================================================
  
                  Total CPU time used (sec):        6.672
                            User time (sec):        4.668
                          System time (sec):        2.004
                         Elapsed time (sec):        7.421
  
                   Maximum memory used (kb):       42416.
                   Average memory used (kb):           0.
  
                          Minor page faults:        11080
                          Major page faults:            0
                 Voluntary context switches:         1087
