  96  96   0   0
  0.2080188E+02  0.1257760E-08  0.1245754E-08  0.1274818E-08  0.5000000E-15
  1.000000000000000E-004
  CAR 
 MAPbI3-Cubic                            
     10.05295497    -22.34968878  301      1.22323455      1.00000000
    -22.350  0.0000E+00  0.0000E+00
    -22.242  0.0000E+00  0.0000E+00
    -22.134  0.0000E+00  0.0000E+00
    -22.026  0.0000E+00  0.0000E+00
    -21.918  0.0000E+00  0.0000E+00
    -21.810  0.0000E+00  0.0000E+00
    -21.702  0.0000E+00  0.0000E+00
    -21.594  0.0000E+00  0.0000E+00
    -21.486  0.0000E+00  0.0000E+00
    -21.378  0.0000E+00  0.0000E+00
    -21.270  0.0000E+00  0.0000E+00
    -21.162  0.0000E+00  0.0000E+00
    -21.054  0.0000E+00  0.0000E+00
    -20.946  0.0000E+00  0.0000E+00
    -20.838  0.0000E+00  0.1600E+02
    -20.730  0.0000E+00  0.1600E+02
    -20.622  0.0000E+00  0.1600E+02
    -20.514  0.0000E+00  0.1600E+02
    -20.406  0.0000E+00  0.1600E+02
    -20.298  0.0000E+00  0.1600E+02
    -20.190  0.0000E+00  0.1600E+02
    -20.082  0.0000E+00  0.1600E+02
    -19.973  0.0000E+00  0.1600E+02
    -19.865  0.0000E+00  0.1600E+02
    -19.757  0.0000E+00  0.1600E+02
    -19.649  0.0000E+00  0.1600E+02
    -19.541  0.0000E+00  0.1600E+02
    -19.433  0.0000E+00  0.1600E+02
    -19.325  0.0000E+00  0.1600E+02
    -19.217  0.0000E+00  0.1600E+02
    -19.109  0.0000E+00  0.1600E+02
    -19.001  0.0000E+00  0.1600E+02
    -18.893  0.0000E+00  0.1600E+02
    -18.785  0.0000E+00  0.1600E+02
    -18.677  0.0000E+00  0.1600E+02
    -18.569  0.0000E+00  0.1600E+02
    -18.461  0.0000E+00  0.1600E+02
    -18.353  0.0000E+00  0.1600E+02
    -18.245  0.0000E+00  0.1600E+02
    -18.137  0.0000E+00  0.1600E+02
    -18.029  0.0000E+00  0.1600E+02
    -17.921  0.0000E+00  0.1600E+02
    -17.813  0.0000E+00  0.1600E+02
    -17.705  0.0000E+00  0.1600E+02
    -17.597  0.0000E+00  0.1600E+02
    -17.489  0.0000E+00  0.1600E+02
    -17.381  0.0000E+00  0.1600E+02
    -17.273  0.0000E+00  0.1600E+02
    -17.165  0.1783E+02  0.4800E+02
    -17.057  0.0000E+00  0.9600E+02
    -16.949  0.0000E+00  0.9600E+02
    -16.841  0.0000E+00  0.9600E+02
    -16.733  0.0000E+00  0.9600E+02
    -16.625  0.0000E+00  0.9600E+02
    -16.517  0.0000E+00  0.9600E+02
    -16.409  0.0000E+00  0.9600E+02
    -16.301  0.0000E+00  0.9600E+02
    -16.193  0.0000E+00  0.9600E+02
    -16.085  0.0000E+00  0.9600E+02
    -15.977  0.0000E+00  0.9600E+02
    -15.869  0.0000E+00  0.9600E+02
    -15.761  0.0000E+00  0.9600E+02
    -15.653  0.0000E+00  0.9600E+02
    -15.545  0.0000E+00  0.9600E+02
    -15.437  0.0000E+00  0.9600E+02
    -15.329  0.0000E+00  0.9600E+02
    -15.221  0.0000E+00  0.9600E+02
    -15.113  0.0000E+00  0.9600E+02
    -15.005  0.0000E+00  0.9600E+02
    -14.897  0.0000E+00  0.9600E+02
    -14.789  0.0000E+00  0.9600E+02
    -14.681  0.0000E+00  0.9600E+02
    -14.573  0.0000E+00  0.9600E+02
    -14.465  0.0000E+00  0.9600E+02
    -14.357  0.0000E+00  0.9600E+02
    -14.249  0.0000E+00  0.9600E+02
    -14.141  0.0000E+00  0.9600E+02
    -14.033  0.0000E+00  0.9600E+02
    -13.925  0.0000E+00  0.9600E+02
    -13.817  0.0000E+00  0.9600E+02
    -13.709  0.0000E+00  0.9600E+02
    -13.601  0.0000E+00  0.9600E+02
    -13.493  0.0000E+00  0.9600E+02
    -13.385  0.0000E+00  0.9600E+02
    -13.277  0.0000E+00  0.1120E+03
    -13.169  0.0000E+00  0.1120E+03
    -13.061  0.0000E+00  0.1120E+03
    -12.953  0.0000E+00  0.1120E+03
    -12.845  0.0000E+00  0.1120E+03
    -12.737  0.0000E+00  0.1120E+03
    -12.629  0.0000E+00  0.1120E+03
    -12.521  0.0000E+00  0.1120E+03
    -12.413  0.0000E+00  0.1120E+03
    -12.305  0.0000E+00  0.1125E+03
    -12.197  0.3160E+01  0.1146E+03
    -12.089  0.1401E+01  0.1198E+03
    -11.981  0.1834E-01  0.1259E+03
    -11.873  0.0000E+00  0.1291E+03
    -11.765  0.5239E+01  0.1363E+03
    -11.657  0.8233E+01  0.1409E+03
    -11.549  0.0000E+00  0.1442E+03
    -11.441  0.1363E+01  0.1543E+03
    -11.333  0.6779E-01  0.1596E+03
    -11.225  0.0000E+00  0.1600E+03
    -11.117  0.0000E+00  0.1600E+03
    -11.009  0.0000E+00  0.1600E+03
    -10.901  0.0000E+00  0.1600E+03
    -10.793  0.0000E+00  0.1600E+03
    -10.685  0.0000E+00  0.1600E+03
    -10.577  0.0000E+00  0.1600E+03
    -10.469  0.0000E+00  0.1600E+03
    -10.361  0.0000E+00  0.1600E+03
    -10.253  0.0000E+00  0.1600E+03
    -10.145  0.0000E+00  0.1600E+03
    -10.037  0.0000E+00  0.1600E+03
     -9.929  0.0000E+00  0.1600E+03
     -9.821  0.0000E+00  0.1600E+03
     -9.713  0.0000E+00  0.1600E+03
     -9.605  0.0000E+00  0.1600E+03
     -9.497  0.0000E+00  0.1600E+03
     -9.389  0.0000E+00  0.1600E+03
     -9.281  0.0000E+00  0.1600E+03
     -9.173  0.9988E+01  0.1744E+03
     -9.065  0.0000E+00  0.1920E+03
     -8.957  0.0000E+00  0.1920E+03
     -8.849  0.0000E+00  0.1920E+03
     -8.741  0.0000E+00  0.1920E+03
     -8.633  0.0000E+00  0.1920E+03
     -8.525  0.0000E+00  0.1920E+03
     -8.417  0.0000E+00  0.1920E+03
     -8.309  0.0000E+00  0.1920E+03
     -8.201  0.0000E+00  0.1920E+03
     -8.093  0.0000E+00  0.1920E+03
     -7.985  0.0000E+00  0.1921E+03
     -7.877  0.1371E+01  0.1925E+03
     -7.768  0.0000E+00  0.1925E+03
     -7.660  0.0000E+00  0.1934E+03
     -7.552  0.1372E+01  0.1943E+03
     -7.444  0.2817E-14  0.1950E+03
     -7.336  0.0000E+00  0.1964E+03
     -7.228  0.1366E+01  0.1988E+03
     -7.120  0.3107E+01  0.2007E+03
     -7.012  0.1370E+01  0.2169E+03
     -6.904  0.6094E-05  0.2191E+03
     -6.796  0.3403E+01  0.2205E+03
     -6.688  0.6237E+00  0.2215E+03
     -6.580  0.0000E+00  0.2224E+03
     -6.472  0.8892E-02  0.2232E+03
     -6.364  0.0000E+00  0.2235E+03
     -6.256  0.0000E+00  0.2239E+03
     -6.148  0.0000E+00  0.2239E+03
     -6.040  0.0000E+00  0.2240E+03
     -5.932  0.0000E+00  0.2240E+03
     -5.824  0.0000E+00  0.2240E+03
     -5.716  0.0000E+00  0.2240E+03
     -5.608  0.0000E+00  0.2240E+03
     -5.500  0.0000E+00  0.2240E+03
     -5.392  0.0000E+00  0.2240E+03
     -5.284  0.0000E+00  0.2240E+03
     -5.176  0.0000E+00  0.2240E+03
     -5.068  0.0000E+00  0.2240E+03
     -4.960  0.0000E+00  0.2240E+03
     -4.852  0.1408E+01  0.2244E+03
     -4.744  0.3223E+02  0.2560E+03
     -4.636  0.0000E+00  0.2560E+03
     -4.528  0.0000E+00  0.2560E+03
     -4.420  0.0000E+00  0.2560E+03
     -4.312  0.0000E+00  0.2560E+03
     -4.204  0.0000E+00  0.2560E+03
     -4.096  0.0000E+00  0.2560E+03
     -3.988  0.0000E+00  0.2560E+03
     -3.880  0.0000E+00  0.2560E+03
     -3.772  0.0000E+00  0.2560E+03
     -3.664  0.0000E+00  0.2560E+03
     -3.556  0.0000E+00  0.2560E+03
     -3.448  0.0000E+00  0.2560E+03
     -3.340  0.0000E+00  0.2560E+03
     -3.232  0.0000E+00  0.2560E+03
     -3.124  0.0000E+00  0.2560E+03
     -3.016  0.0000E+00  0.2560E+03
     -2.908  0.0000E+00  0.2560E+03
     -2.800  0.2739E+01  0.2564E+03
     -2.692  0.2057E+01  0.2587E+03
     -2.584  0.6714E+00  0.2616E+03
     -2.476  0.2743E+01  0.2641E+03
     -2.368  0.3427E+01  0.2667E+03
     -2.260  0.0000E+00  0.2692E+03
     -2.152  0.2743E+01  0.2732E+03
     -2.044  0.2743E+01  0.2769E+03
     -1.936  0.4115E+01  0.2796E+03
     -1.828  0.1372E+01  0.2800E+03
     -1.720  0.0000E+00  0.2801E+03
     -1.612  0.1372E+01  0.2815E+03
     -1.504  0.2775E+01  0.2850E+03
     -1.396  0.5994E+01  0.2935E+03
     -1.288  0.2286E+00  0.3000E+03
     -1.180  0.3389E+01  0.3044E+03
     -1.072  0.2743E+01  0.3081E+03
     -0.964  0.2658E+01  0.3135E+03
     -0.856  0.2036E+00  0.3186E+03
     -0.748  0.8321E+01  0.3273E+03
     -0.640  0.2279E+01  0.3336E+03
     -0.532  0.6412E+01  0.3397E+03
     -0.424  0.3429E+01  0.3490E+03
     -0.316  0.5721E+01  0.3578E+03
     -0.208  0.7657E+01  0.3659E+03
     -0.100  0.2057E+01  0.3759E+03
      0.008  0.5695E+01  0.3819E+03
      0.116  0.1155E-06  0.3888E+03
      0.224  0.3429E+01  0.3923E+03
      0.332  0.0000E+00  0.3941E+03
      0.440  0.1371E+01  0.3959E+03
      0.548  0.1372E+01  0.3973E+03
      0.656  0.0000E+00  0.3985E+03
      0.764  0.0000E+00  0.3993E+03
      0.872  0.3940E-05  0.3993E+03
      0.980  0.0000E+00  0.3998E+03
      1.088  0.0000E+00  0.3999E+03
      1.196  0.0000E+00  0.4000E+03
      1.304  0.0000E+00  0.4000E+03
      1.412  0.0000E+00  0.4000E+03
      1.520  0.0000E+00  0.4000E+03
      1.628  0.0000E+00  0.4000E+03
      1.736  0.0000E+00  0.4000E+03
      1.844  0.0000E+00  0.4000E+03
      1.952  0.0000E+00  0.4000E+03
      2.060  0.0000E+00  0.4000E+03
      2.168  0.0000E+00  0.4000E+03
      2.276  0.0000E+00  0.4000E+03
      2.384  0.0000E+00  0.4000E+03
      2.492  0.0000E+00  0.4000E+03
      2.600  0.0000E+00  0.4000E+03
      2.708  0.0000E+00  0.4000E+03
      2.816  0.0000E+00  0.4000E+03
      2.924  0.0000E+00  0.4000E+03
      3.032  0.0000E+00  0.4000E+03
      3.140  0.0000E+00  0.4000E+03
      3.248  0.0000E+00  0.4000E+03
      3.356  0.1372E+01  0.4007E+03
      3.464  0.0000E+00  0.4007E+03
      3.572  0.1371E+01  0.4026E+03
      3.680  0.9526E-03  0.4033E+03
      3.788  0.3466E+01  0.4053E+03
      3.896  0.0000E+00  0.4066E+03
      4.004  0.0000E+00  0.4077E+03
      4.112  0.0000E+00  0.4083E+03
      4.220  0.2743E+01  0.4093E+03
      4.328  0.1369E+01  0.4101E+03
      4.436  0.0000E+00  0.4116E+03
      4.545  0.2743E+01  0.4139E+03
      4.653  0.6103E-07  0.4154E+03
      4.761  0.4094E+01  0.4181E+03
      4.869  0.1372E+01  0.4210E+03
      4.977  0.9376E+00  0.4228E+03
      5.085  0.0000E+00  0.4239E+03
      5.193  0.0000E+00  0.4240E+03
      5.301  0.0000E+00  0.4240E+03
      5.409  0.0000E+00  0.4240E+03
      5.517  0.0000E+00  0.4241E+03
      5.625  0.0000E+00  0.4242E+03
      5.733  0.3290E-06  0.4248E+03
      5.841  0.3400E-02  0.4272E+03
      5.949  0.2743E+01  0.4304E+03
      6.057  0.0000E+00  0.4350E+03
      6.165  0.0000E+00  0.4381E+03
      6.273  0.1372E+01  0.4404E+03
      6.381  0.6858E+00  0.4424E+03
      6.489  0.0000E+00  0.4459E+03
      6.597  0.1372E+01  0.4490E+03
      6.705  0.2743E+01  0.4535E+03
      6.813  0.1372E+01  0.4584E+03
      6.921  0.1362E+01  0.4625E+03
      7.029  0.1370E+01  0.4675E+03
      7.137  0.1371E+01  0.4734E+03
      7.245  0.1372E+01  0.4773E+03
      7.353  0.6391E+00  0.4801E+03
      7.461  0.1848E+01  0.4839E+03
      7.569  0.1372E+01  0.4883E+03
      7.677  0.1371E+01  0.4914E+03
      7.785  0.0000E+00  0.4950E+03
      7.893  0.1582E+01  0.4983E+03
      8.001  0.5487E+01  0.5019E+03
      8.109  0.2743E+01  0.5044E+03
      8.217  0.3665E-04  0.5067E+03
      8.325  0.2743E+01  0.5093E+03
      8.433  0.0000E+00  0.5110E+03
      8.541  0.1320E+01  0.5119E+03
      8.649  0.0000E+00  0.5120E+03
      8.757  0.0000E+00  0.5120E+03
      8.865  0.0000E+00  0.5120E+03
      8.973  0.0000E+00  0.5120E+03
      9.081  0.0000E+00  0.5120E+03
      9.189  0.0000E+00  0.5120E+03
      9.297  0.0000E+00  0.5120E+03
      9.405  0.0000E+00  0.5120E+03
      9.513  0.0000E+00  0.5120E+03
      9.621  0.0000E+00  0.5120E+03
      9.729  0.0000E+00  0.5120E+03
      9.837  0.0000E+00  0.5120E+03
      9.945  0.0000E+00  0.5120E+03
     10.053  0.0000E+00  0.5120E+03
