 running on 1344 total cores
 distrk:  each k-point on  192 cores,    7 groups
 distr:  one band on   12 cores,   16 groups
 using from now: INCAR     
 vasp.5.4.1 24Jun15 (build Nov 25 2015 16:01:35) complex                        
  
 POSCAR found type information on POSCAR  C  N  H  Pb I 
 POSCAR found :  5 types and      96 ions
 scaLAPACK will be used

 ----------------------------------------------------------------------------- 
|                                                                             |
|           W    W    AA    RRRRR   N    N  II  N    N   GGGG   !!!           |
|           W    W   A  A   R    R  NN   N  II  NN   N  G    G  !!!           |
|           W    W  A    A  R    R  N N  N  II  N N  N  G       !!!           |
|           W WW W  AAAAAA  RRRRR   N  N N  II  N  N N  G  GGG   !            |
|           WW  WW  A    A  R   R   N   NN  II  N   NN  G    G                |
|           W    W  A    A  R    R  N    N  II  N    N   GGGG   !!!           |
|                                                                             |
|      For optimal performance we recommend to set                            |
|        NCORE= 4 - approx SQRT( number of cores)                             |
|      NCORE specifies how many cores store one orbital (NPAR=cpu/NCORE).     |
|      This setting can  greatly improve the performance of VASP for DFT.     |
|      The default, NPAR=number of cores might be grossly inefficient         |
|      on modern multi-core architectures or massively parallel machines.     |
|      Do your own testing !!!!                                               |
|      Unfortunately you need to use the default for GW and RPA calculations. |
|      (for HF NCORE is supported but not extensively tested yet)             |
|                                                                             |
 ----------------------------------------------------------------------------- 


 ----------------------------------------------------------------------------- 
|                                                                             |
|           W    W    AA    RRRRR   N    N  II  N    N   GGGG   !!!           |
|           W    W   A  A   R    R  NN   N  II  NN   N  G    G  !!!           |
|           W    W  A    A  R    R  N N  N  II  N N  N  G       !!!           |
|           W WW W  AAAAAA  RRRRR   N  N N  II  N  N N  G  GGG   !            |
|           WW  WW  A    A  R   R   N   NN  II  N   NN  G    G                |
|           W    W  A    A  R    R  N    N  II  N    N   GGGG   !!!           |
|                                                                             |
|      You have enabled k-point parallelism (KPAR>1).                         |
|      This developmental code was originally  written by Paul Kent at ORNL,  |
|      and carefully double checked in Vienna.                                |
|      GW as well as linear response parallelism added by Martijn Marsman     |
|      and Georg Kresse.                                                      |
|      Carefully verify results versus KPAR=1.                                |
|      Report problems to Paul Kent and Vienna.                               |
|                                                                             |
 ----------------------------------------------------------------------------- 


 ----------------------------------------------------------------------------- 
|                                                                             |
|  ADVICE TO THIS USER RUNNING 'VASP/VAMP'   (HEAR YOUR MASTER'S VOICE ...):  |
|                                                                             |
|      You have a (more or less) 'large supercell' and for larger cells       |
|      it might be more efficient to use real space projection opertators     |
|      So try LREAL= Auto  in the INCAR   file.                               |
|      Mind: At the moment your POTCAR file does not contain real space       |
|       projectors, and has to be modified,  BUT if you                       |
|      want to do an extremely  accurate calculation you might also keep the  |
|      reciprocal projection scheme          (i.e. LREAL=.FALSE.)             |
|                                                                             |
 ----------------------------------------------------------------------------- 

 LDA part: xc-table for Pade appr. of Perdew
 POSCAR, INCAR and KPOINTS ok, starting setup
 WARNING: small aliasing (wrap around) errors must be expected
 FFT: planning ...
 WAVECAR not read
  WARNING: DENMP: can't reach specified precision
  Number of Electrons is NELECT =   399.999999999859     
 entering main loop
       N       E                     dE             d eps       ncg     rms          ort
DAV:   1     0.345011571040E+05    0.34501E+05   -0.11452E+06  3584   0.486E+03
DAV:   2     0.855023935730E+04   -0.25951E+05   -0.25214E+05  3584   0.168E+03
DAV:   3     0.178028100743E+04   -0.67700E+04   -0.66654E+04  3584   0.498E+02
DAV:   4     0.437321169700E+03   -0.13430E+04   -0.12866E+04  3584   0.207E+02
DAV:   5     0.274793693664E+03   -0.16253E+03   -0.15979E+03  3584   0.778E+01
 gam= 0.000 g(H,U,f)=  0.105E+03 0.522E+01 0.000E+00 ort(H,U,f) = 0.000E+00 0.000E+00 0.000E+00
SDA:   6    -0.448871580846E+03   -0.72367E+03   -0.15979E+03  3584   0.110E+03 0.000E+00
 gam= 0.000 trial= 0.400  step= 0.340 mean= 0.400
 gam= 0.354 g(H,U,f)=  0.374E+02 0.168E+01 0.000E+00 ort(H,U,f) =-0.199E+01 0.262E+01 0.000E+00
CGA:   7    -0.467594146039E+03   -0.18723E+02   -0.18784E+02  3584   0.391E+02 0.637E+00
 gam= 0.354 trial= 0.397  step= 0.391 mean= 0.397
 gam= 0.213 g(H,U,f)=  0.793E+01 0.403E+00 0.000E+00 ort(H,U,f) =-0.986E+00 0.989E+00 0.000E+00
CGA:   8    -0.475280185594E+03   -0.76860E+01   -0.76863E+01  3584   0.833E+01 0.306E-02
 gam= 0.213 trial= 0.397  step= 0.669 mean= 0.397
 gam= 0.335 g(H,U,f)=  0.265E+01 0.149E+00 0.211-202 ort(H,U,f) =-0.348E+00 0.337E+00 0.468-202
CGA:   9    -0.478069622222E+03   -0.27894E+01   -0.27895E+01  3584   0.280E+01-0.114E-01
 gam= 0.335 trial= 0.410  step= 0.636 mean= 0.410
 gam= 0.364 g(H,U,f)=  0.974E+00 0.443E-01 0.000E+00 ort(H,U,f) =-0.139E+00 0.130E+00 0.000E+00
CGA:  10    -0.478956648407E+03   -0.88703E+00   -0.88799E+00  3584   0.102E+01-0.870E-02
 gam= 0.364 trial= 0.422  step= 0.440 mean= 0.422
 gam= 0.405 g(H,U,f)=  0.394E+00 0.185E-01 0.000E+00 ort(H,U,f) =-0.535E-01 0.520E-01 0.000E+00
CGA:  11    -0.479180179945E+03   -0.22353E+00   -0.22355E+00  3584   0.412E+00-0.149E-02
 gam= 0.405 trial= 0.423  step= 0.546 mean= 0.423
 gam= 0.250 g(H,U,f)=  0.988E-01 0.410E-02 0.000E+00 ort(H,U,f) =-0.181E-01 0.164E-01 0.000E+00
CGA:  12    -0.479292486557E+03   -0.11231E+00   -0.11241E+00  3584   0.103E+00-0.166E-02
 gam= 0.250 trial= 0.429  step= 0.685 mean= 0.429
 gam= 0.304 g(H,U,f)=  0.304E-01 0.989E-03 0.000E+00 ort(H,U,f) =-0.412E-02 0.369E-02 0.000E+00
CGA:  13    -0.479327552201E+03   -0.35066E-01   -0.35124E-01  3584   0.313E-01-0.424E-03
 gam= 0.304 trial= 0.442  step= 0.655 mean= 0.442
 gam= 0.384 g(H,U,f)=  0.118E-01 0.277E-03 0.000E+00 ort(H,U,f) =-0.100E-02 0.961E-03 0.000E+00
CGA:  14    -0.479337765764E+03   -0.10214E-01   -0.10219E-01  3584   0.120E-01-0.433E-04
 gam= 0.384 trial= 0.452  step= 0.475 mean= 0.452
 gam= 0.514 g(H,U,f)=  0.611E-02 0.821E-04 0.816-190 ort(H,U,f) =-0.465E-03 0.227E-03-0.391-188
CGA:  15    -0.479340616132E+03   -0.28504E-02   -0.28530E-02  3584   0.619E-02-0.238E-03
 gam= 0.514 trial= 0.453  step= 0.482 mean= 0.453
 gam= 0.300 g(H,U,f)=  0.183E-02 0.292E-04 0.000E+00 ort(H,U,f) =-0.178E-04 0.659E-04 0.000E+00
CGA:  16    -0.479342078486E+03   -0.14624E-02   -0.14617E-02  3584   0.186E-02 0.481E-04
 gam= 0.300 trial= 0.455  step= 0.741 mean= 0.455
 gam= 0.377 g(H,U,f)=  0.688E-03 0.120E-04 0.000E+00 ort(H,U,f) =-0.569E-04 0.433E-05 0.000E+00
CGA:  17    -0.479342764618E+03   -0.68613E-03   -0.69372E-03  3584   0.700E-03-0.526E-04
 gam= 0.377 trial= 0.469  step= 0.686 mean= 0.469
 gam= 0.368 g(H,U,f)=  0.252E-03 0.659E-05 0.000E+00 ort(H,U,f) = 0.680E-06 0.409E-05 0.000E+00
CGA:  18    -0.479342998537E+03   -0.23392E-03   -0.23342E-03  3584   0.258E-03 0.477E-05
 gam= 0.368 trial= 0.480  step= 0.656 mean= 0.480
 gam= 0.354 g(H,U,f)=  0.879E-04 0.346E-05 0.226E-44 ort(H,U,f) =-0.256E-05 0.438E-05 0.516E-44
CGA:  19    -0.479343083935E+03   -0.85399E-04   -0.85241E-04  3584   0.914E-04 0.182E-05
 gam= 0.354 trial= 0.489  step= 0.621 mean= 0.489
 gam= 0.374 g(H,U,f)=  0.328E-04 0.140E-05 0.000E+00 ort(H,U,f) = 0.473E-05 0.270E-05 0.000E+00
CGA:  20    -0.479343112994E+03   -0.29059E-04   -0.28570E-04  3584   0.342E-04 0.743E-05
 gam= 0.374 trial= 0.495  step= 0.749 mean= 0.495
 gam= 1.069 g(H,U,f)=  0.360E-04 0.541E-06 0.000E+00 ort(H,U,f) =-0.103E-04 0.119E-05 0.000E+00
CGA:  21    -0.479343125690E+03   -0.12695E-04   -0.13849E-04  3584   0.366E-04-0.911E-05
 gam= 1.069 trial= 0.508  step= 0.306 mean= 0.508
 gam= 0.348 g(H,U,f)=  0.126E-04 0.135E-06 0.000E+00 ort(H,U,f) = 0.305E-05 0.652E-06 0.000E+00
CGA:  22    -0.479343129426E+03   -0.37357E-05   -0.41091E-05  3584   0.127E-04 0.370E-05
 gam= 0.348 trial= 0.498  step= 0.260 mean= 0.498
 gam= 0.559 g(H,U,f)=  0.702E-05 0.823E-07 0.000E+00 ort(H,U,f) = 0.263E-05 0.148E-06 0.000E+00
CGA:  23    -0.479343130919E+03   -0.14931E-05   -0.18230E-05  3584   0.711E-05 0.278E-05
 gam= 0.559 trial= 0.486  step= 0.416 mean= 0.486
 gam= 0.473 g(H,U,f)=  0.332E-05 0.372E-07 0.000E+00 ort(H,U,f) =-0.900E-06 0.396E-07 0.000E+00
CGA:  24    -0.479343132751E+03   -0.18325E-05   -0.18025E-05  3584   0.336E-05-0.861E-06
 gam= 0.473 trial= 0.483  step= 0.898 mean= 0.483
 gam= 0.000 g(H,U,f)=  0.120E-04 0.486E-07 0.000E+00 ort(H,U,f) =-0.485E-05-0.320E-07 0.000E+00
CGA:  25    -0.479343133062E+03   -0.31111E-06   -0.13249E-05  3584   0.120E-04-0.488E-05
 gam= 0.000 trial= 0.503  step= 0.198 mean= 0.503
 gam= 0.128 g(H,U,f)=  0.152E-05 0.217E-07 0.000E+00 ort(H,U,f) = 0.273E-05 0.201E-07 0.000E+00
CGA:  26    -0.479343133832E+03   -0.76921E-06   -0.11896E-05  3584   0.154E-05 0.275E-05
 gam= 0.128 trial= 0.488  step= 0.278 mean= 0.488
 gam= 0.489 g(H,U,f)=  0.733E-06 0.199E-07 0.000E+00 ort(H,U,f) = 0.565E-06 0.211E-07 0.000E+00
CGA:  27    -0.479343134032E+03   -0.20078E-06   -0.26245E-06  3584   0.753E-06 0.586E-06
 gam= 0.489 trial= 0.478  step= 2.513 mean= 0.478
 gam= 0.489 trial= 3.104  step= 3.104 mean= 0.753
 gam= 0.000 g(H,U,f)=  0.410E-04 0.913E-07 0.569E-60 ort(H,U,f) =-0.703E-05-0.460E-07-0.607E-60
CGA:  28    -0.479343126296E+03    0.77360E-05   -0.41834E-05  3584   0.411E-04-0.707E-05
 gam= 0.000 trial= 0.871  step= 0.295 mean= 0.871
 gam= 0.274 g(H,U,f)=  0.112E-04 0.257E-07 0.340E-50 ort(H,U,f) = 0.400E-05-0.631E-08 0.601E-50
CGA:  29    -0.479343131219E+03   -0.49225E-05   -0.60724E-05  3584   0.113E-04 0.400E-05
 gam= 0.274 trial= 0.842  step= 0.471 mean= 0.842
 gam= 0.091 g(H,U,f)=  0.101E-05 0.890E-08 0.456E-33 ort(H,U,f) =-0.804E-06 0.108E-07 0.895E-33
CGA:  30    -0.479343134273E+03   -0.30541E-05   -0.29067E-05  3584   0.102E-05-0.794E-06
 gam= 0.091 trial= 0.824  step= 0.634 mean= 0.824
 gam= 0.439 g(H,U,f)=  0.444E-06 0.487E-08 0.466E-18 ort(H,U,f) =-0.257E-06 0.690E-08 0.754E-18
CGA:  31    -0.479343134598E+03   -0.32514E-06   -0.30153E-06  3584   0.449E-06-0.250E-06
 gam= 0.439 trial= 0.814  step= 0.208 mean= 0.814
 gam= 0.352 g(H,U,f)=  0.155E-06 0.287E-08 0.000E+00 ort(H,U,f) = 0.141E-06 0.600E-08 0.000E+00
CGA:  32    -0.479343134589E+03    0.92514E-08   -0.35185E-07  3584   0.158E-06 0.147E-06
 gam= 0.352 trial= 0.784  step= 0.185 mean= 0.784
 gam= 0.309 g(H,U,f)=  0.468E-07 0.204E-08 0.000E+00 ort(H,U,f) = 0.679E-07 0.409E-08 0.000E+00
CGA:  33    -0.479343134587E+03    0.21319E-08   -0.19413E-07  3584   0.488E-07 0.719E-07
 gam= 0.309 trial= 0.754  step= 1.681 mean= 0.754
 gam= 0.000 g(H,U,f)=  0.103E-05 0.328E-09 0.000E+00 ort(H,U,f) =-0.269E-06 0.924E-10 0.000E+00
CGA:  34    -0.479343134522E+03    0.65120E-07   -0.59694E-07  3584   0.103E-05-0.269E-06
 gam= 0.000 trial= 0.800  step= 0.269 mean= 0.800
 gam= 0.090 g(H,U,f)=  0.923E-07 0.796E-10 0.000E+00 ort(H,U,f) = 0.197E-06 0.592E-10 0.000E+00
CGA:  35    -0.479343134608E+03   -0.86315E-07   -0.13859E-06  3584   0.924E-07 0.197E-06
 gam= 0.090 trial= 0.774  step= 0.433 mean= 0.774
 gam= 0.273 g(H,U,f)=  0.252E-07 0.120E-10 0.000E+00 ort(H,U,f) =-0.170E-07 0.908E-11 0.000E+00
CGA:  36    -0.479343134635E+03   -0.26790E-07   -0.23821E-07  3584   0.252E-07-0.170E-07
 gam= 0.273 trial= 0.757  step= 0.152 mean= 0.757
 gam= 0.000 g(H,U,f)=  0.133E-07 0.101E-10 0.000E+00 ort(H,U,f) = 0.132E-07 0.126E-10 0.000E+00
CGA:  37    -0.479343134632E+03    0.24411E-08   -0.15599E-08  3584   0.133E-07 0.132E-07
 gam= 0.000 trial= 0.726  step= 0.134 mean= 0.726
   1 F= -.47934313E+03 E0= -.47934313E+03  d E =0.000000E+00
Application 22296069 resources: utime ~28118137s, stime ~36806s, Rss ~383692, inblocks ~19578892, outblocks ~10977766
