       N       E                     dE             d eps       ncg     rms          ort
DAV:   1     0.345011571040E+05    0.34501E+05   -0.11452E+06  3584   0.486E+03
DAV:   2     0.855023935730E+04   -0.25951E+05   -0.25214E+05  3584   0.168E+03
DAV:   3     0.178028100743E+04   -0.67700E+04   -0.66654E+04  3584   0.498E+02
DAV:   4     0.437321169700E+03   -0.13430E+04   -0.12866E+04  3584   0.207E+02
DAV:   5     0.274793693664E+03   -0.16253E+03   -0.15979E+03  3584   0.778E+01
SDA:   6    -0.448871580846E+03   -0.72367E+03   -0.15979E+03  3584   0.110E+03 0.000E+00
CGA:   7    -0.467594146039E+03   -0.18723E+02   -0.18784E+02  3584   0.391E+02 0.637E+00
CGA:   8    -0.475280185594E+03   -0.76860E+01   -0.76863E+01  3584   0.833E+01 0.306E-02
CGA:   9    -0.478069622222E+03   -0.27894E+01   -0.27895E+01  3584   0.280E+01-0.114E-01
CGA:  10    -0.478956648407E+03   -0.88703E+00   -0.88799E+00  3584   0.102E+01-0.870E-02
CGA:  11    -0.479180179945E+03   -0.22353E+00   -0.22355E+00  3584   0.412E+00-0.149E-02
CGA:  12    -0.479292486557E+03   -0.11231E+00   -0.11241E+00  3584   0.103E+00-0.166E-02
CGA:  13    -0.479327552201E+03   -0.35066E-01   -0.35124E-01  3584   0.313E-01-0.424E-03
CGA:  14    -0.479337765764E+03   -0.10214E-01   -0.10219E-01  3584   0.120E-01-0.433E-04
CGA:  15    -0.479340616132E+03   -0.28504E-02   -0.28530E-02  3584   0.619E-02-0.238E-03
CGA:  16    -0.479342078486E+03   -0.14624E-02   -0.14617E-02  3584   0.186E-02 0.481E-04
CGA:  17    -0.479342764618E+03   -0.68613E-03   -0.69372E-03  3584   0.700E-03-0.526E-04
CGA:  18    -0.479342998537E+03   -0.23392E-03   -0.23342E-03  3584   0.258E-03 0.477E-05
CGA:  19    -0.479343083935E+03   -0.85399E-04   -0.85241E-04  3584   0.914E-04 0.182E-05
CGA:  20    -0.479343112994E+03   -0.29059E-04   -0.28570E-04  3584   0.342E-04 0.743E-05
CGA:  21    -0.479343125690E+03   -0.12695E-04   -0.13849E-04  3584   0.366E-04-0.911E-05
CGA:  22    -0.479343129426E+03   -0.37357E-05   -0.41091E-05  3584   0.127E-04 0.370E-05
CGA:  23    -0.479343130919E+03   -0.14931E-05   -0.18230E-05  3584   0.711E-05 0.278E-05
CGA:  24    -0.479343132751E+03   -0.18325E-05   -0.18025E-05  3584   0.336E-05-0.861E-06
CGA:  25    -0.479343133062E+03   -0.31111E-06   -0.13249E-05  3584   0.120E-04-0.488E-05
CGA:  26    -0.479343133832E+03   -0.76921E-06   -0.11896E-05  3584   0.154E-05 0.275E-05
CGA:  27    -0.479343134032E+03   -0.20078E-06   -0.26245E-06  3584   0.753E-06 0.586E-06
CGA:  28    -0.479343126296E+03    0.77360E-05   -0.41834E-05  3584   0.411E-04-0.707E-05
CGA:  29    -0.479343131219E+03   -0.49225E-05   -0.60724E-05  3584   0.113E-04 0.400E-05
CGA:  30    -0.479343134273E+03   -0.30541E-05   -0.29067E-05  3584   0.102E-05-0.794E-06
CGA:  31    -0.479343134598E+03   -0.32514E-06   -0.30153E-06  3584   0.449E-06-0.250E-06
CGA:  32    -0.479343134589E+03    0.92514E-08   -0.35185E-07  3584   0.158E-06 0.147E-06
CGA:  33    -0.479343134587E+03    0.21319E-08   -0.19413E-07  3584   0.488E-07 0.719E-07
CGA:  34    -0.479343134522E+03    0.65120E-07   -0.59694E-07  3584   0.103E-05-0.269E-06
CGA:  35    -0.479343134608E+03   -0.86315E-07   -0.13859E-06  3584   0.924E-07 0.197E-06
CGA:  36    -0.479343134635E+03   -0.26790E-07   -0.23821E-07  3584   0.252E-07-0.170E-07
CGA:  37    -0.479343134632E+03    0.24411E-08   -0.15599E-08  3584   0.133E-07 0.132E-07
   1 F= -.47934313E+03 E0= -.47934313E+03  d E =0.000000E+00
