 vasp.5.4.1 24Jun15 (build Nov 25 2015 16:01:35) complex                        
  
 executed on         CrayXC-Intel date 2016.06.26  15:06:15
 running on 1344 total cores
 distrk:  each k-point on  192 cores,    7 groups
 distr:  one band on NCORES_PER_BAND=  12 cores,   16 groups


--------------------------------------------------------------------------------------------------------


 INCAR:
 POTCAR:    PAW_PBE C 08Apr2002                   
 POTCAR:    PAW_PBE N 08Apr2002                   
 POTCAR:    PAW_PBE H 15Jun2001                   
 POTCAR:    PAW_PBE Pb_d 06Sep2000                
 POTCAR:    PAW_PBE I 08Apr2002                   

 ----------------------------------------------------------------------------- 
|                                                                             |
|           W    W    AA    RRRRR   N    N  II  N    N   GGGG   !!!           |
|           W    W   A  A   R    R  NN   N  II  NN   N  G    G  !!!           |
|           W    W  A    A  R    R  N N  N  II  N N  N  G       !!!           |
|           W WW W  AAAAAA  RRRRR   N  N N  II  N  N N  G  GGG   !            |
|           WW  WW  A    A  R   R   N   NN  II  N   NN  G    G                |
|           W    W  A    A  R    R  N    N  II  N    N   GGGG   !!!           |
|                                                                             |
|      For optimal performance we recommend to set                            |
|        NCORE= 4 - approx SQRT( number of cores)                             |
|      NCORE specifies how many cores store one orbital (NPAR=cpu/NCORE).     |
|      This setting can  greatly improve the performance of VASP for DFT.     |
|      The default, NPAR=number of cores might be grossly inefficient         |
|      on modern multi-core architectures or massively parallel machines.     |
|      Do your own testing !!!!                                               |
|      Unfortunately you need to use the default for GW and RPA calculations. |
|      (for HF NCORE is supported but not extensively tested yet)             |
|                                                                             |
 ----------------------------------------------------------------------------- 


 ----------------------------------------------------------------------------- 
|                                                                             |
|           W    W    AA    RRRRR   N    N  II  N    N   GGGG   !!!           |
|           W    W   A  A   R    R  NN   N  II  NN   N  G    G  !!!           |
|           W    W  A    A  R    R  N N  N  II  N N  N  G       !!!           |
|           W WW W  AAAAAA  RRRRR   N  N N  II  N  N N  G  GGG   !            |
|           WW  WW  A    A  R   R   N   NN  II  N   NN  G    G                |
|           W    W  A    A  R    R  N    N  II  N    N   GGGG   !!!           |
|                                                                             |
|      You have enabled k-point parallelism (KPAR>1).                         |
|      This developmental code was originally  written by Paul Kent at ORNL,  |
|      and carefully double checked in Vienna.                                |
|      GW as well as linear response parallelism added by Martijn Marsman     |
|      and Georg Kresse.                                                      |
|      Carefully verify results versus KPAR=1.                                |
|      Report problems to Paul Kent and Vienna.                               |
|                                                                             |
 ----------------------------------------------------------------------------- 

 POTCAR:    PAW_PBE C 08Apr2002                   
   VRHFIN =C: s2p2                                                              
   LEXCH  = PE                                                                  
   EATOM  =   147.1560 eV,   10.8157 Ry                                         
                                                                                
   TITEL  = PAW_PBE C 08Apr2002                                                 
   LULTRA =        F    use ultrasoft PP ?                                      
   IUNSCR =        1    unscreen: 0-lin 1-nonlin 2-no                           
   RPACOR =    1.200    partial core radius                                     
   POMASS =   12.011; ZVAL   =    4.000    mass and valenz                      
   RCORE  =    1.500    outmost cutoff radius                                   
   RWIGS  =    1.630; RWIGS  =    0.863    wigner-seitz radius (au A)           
   ENMAX  =  400.000; ENMIN  =  300.000 eV                                      
   ICORE  =        2    local potential                                         
   LCOR   =        T    correct aug charges                                     
   LPAW   =        T    paw PP                                                  
   EAUG   =  644.873                                                            
   DEXC   =    0.000                                                            
   RMAX   =    1.529    core radius for proj-oper                               
   RAUG   =    1.300    factor for augmentation sphere                          
   RDEP   =    1.501    radius for radial grids                                 
   RDEPT  =    1.300    core radius for aug-charge                              
                                                                                
   Atomic configuration                                                         
    4 entries                                                                   
     n  l   j            E        occ.                                          
     1  0  0.50      -273.3789   2.0000                                         
     2  0  0.50       -13.7508   2.0000                                         
     2  1  0.50        -5.2854   2.0000                                         
     3  2  1.50        -5.4423   0.0000                                         
   Description                                                                  
     l       E           TYP  RCUT    TYP  RCUT                                 
     0    -13.7508458     23  1.200                                             
     0     -8.2022199     23  1.200                                             
     1     -5.2854383     23  1.500                                             
     1     34.0145650     23  1.500                                             
     2     -5.4423304      7  1.500                                             
  local pseudopotential read in
  partial core-charges read in
  partial kinetic energy density read in
  atomic valenz-charges read in
  non local Contribution for L=           0  read in
    real space projection operators read in
  non local Contribution for L=           0  read in
    real space projection operators read in
  non local Contribution for L=           1  read in
    real space projection operators read in
  non local Contribution for L=           1  read in
    real space projection operators read in
    PAW grid and wavefunctions read in
 
   number of l-projection  operators is LMAX  =           4
   number of lm-projection operators is LMMAX =           8
 
 POTCAR:    PAW_PBE N 08Apr2002                   
   VRHFIN =N: s2p3                                                              
   LEXCH  = PE                                                                  
   EATOM  =   264.5486 eV,   19.4438 Ry                                         
                                                                                
   TITEL  = PAW_PBE N 08Apr2002                                                 
   LULTRA =        F    use ultrasoft PP ?                                      
   IUNSCR =        1    unscreen: 0-lin 1-nonlin 2-no                           
   RPACOR =    1.200    partial core radius                                     
   POMASS =   14.001; ZVAL   =    5.000    mass and valenz                      
   RCORE  =    1.500    outmost cutoff radius                                   
   RWIGS  =    1.400; RWIGS  =    0.741    wigner-seitz radius (au A)           
   ENMAX  =  400.000; ENMIN  =  300.000 eV                                      
   ICORE  =        2    local potential                                         
   LCOR   =        T    correct aug charges                                     
   LPAW   =        T    paw PP                                                  
   EAUG   =  627.112                                                            
   DEXC   =    0.000                                                            
   RMAX   =    1.529    core radius for proj-oper                               
   RAUG   =    1.300    factor for augmentation sphere                          
   RDEP   =    1.514    radius for radial grids                                 
   RDEPT  =    1.338    core radius for aug-charge                              
                                                                                
   Atomic configuration                                                         
    4 entries                                                                   
     n  l   j            E        occ.                                          
     1  0  0.50      -384.7179   2.0000                                         
     2  0  0.50       -18.5828   2.0000                                         
     2  1  0.50        -7.0898   3.0000                                         
     3  2  1.50        -6.8029   0.0000                                         
   Description                                                                  
     l       E           TYP  RCUT    TYP  RCUT                                 
     0    -18.5828119     23  1.200                                             
     0    -13.5018863     23  1.200                                             
     1     -7.0897853     23  1.500                                             
     1      9.5240782     23  1.500                                             
     2     -6.8029130      7  1.500                                             
  local pseudopotential read in
  partial core-charges read in
  partial kinetic energy density read in
  atomic valenz-charges read in
  non local Contribution for L=           0  read in
    real space projection operators read in
  non local Contribution for L=           0  read in
    real space projection operators read in
  non local Contribution for L=           1  read in
    real space projection operators read in
  non local Contribution for L=           1  read in
    real space projection operators read in
    PAW grid and wavefunctions read in
 
   number of l-projection  operators is LMAX  =           4
   number of lm-projection operators is LMMAX =           8
 
 POTCAR:    PAW_PBE H 15Jun2001                   
   VRHFIN =H: ultrasoft test                                                    
   LEXCH  = PE                                                                  
   EATOM  =    12.4884 eV,    0.9179 Ry                                         
                                                                                
   TITEL  = PAW_PBE H 15Jun2001                                                 
   LULTRA =        F    use ultrasoft PP ?                                      
   IUNSCR =        0    unscreen: 0-lin 1-nonlin 2-no                           
   RPACOR =    0.000    partial core radius                                     
   POMASS =    1.000; ZVAL   =    1.000    mass and valenz                      
   RCORE  =    1.100    outmost cutoff radius                                   
   RWIGS  =    0.700; RWIGS  =    0.370    wigner-seitz radius (au A)           
   ENMAX  =  250.000; ENMIN  =  200.000 eV                                      
   RCLOC  =    0.701    cutoff for local pot                                    
   LCOR   =        T    correct aug charges                                     
   LPAW   =        T    paw PP                                                  
   EAUG   =  400.000                                                            
   RMAX   =    1.123    core radius for proj-oper                               
   RAUG   =    1.200    factor for augmentation sphere                          
   RDEP   =    1.112    radius for radial grids                                 
   RDEPT  =    0.926    core radius for aug-charge                              
                                                                                
   Atomic configuration                                                         
    2 entries                                                                   
     n  l   j            E        occ.                                          
     1  0  0.50        -6.4927   1.0000                                         
     2  1  0.50        -3.4015   0.0000                                         
   Description                                                                  
     l       E           TYP  RCUT    TYP  RCUT                                 
     0     -6.4927494     23  1.100                                             
     0      6.8029130     23  1.100                                             
     1     -4.0817478     23  1.100                                             
  local pseudopotential read in
  atomic valenz-charges read in
  non local Contribution for L=           0  read in
    real space projection operators read in
  non local Contribution for L=           0  read in
    real space projection operators read in
  non local Contribution for L=           1  read in
    real space projection operators read in
    PAW grid and wavefunctions read in
 
   number of l-projection  operators is LMAX  =           3
   number of lm-projection operators is LMMAX =           5
 
 POTCAR:    PAW_PBE Pb_d 06Sep2000                
   VRHFIN =Pb:                                                                  
   LEXCH  = PE                                                                  
   EATOM  =  1661.6185 eV,  122.1255 Ry                                         
                                                                                
   TITEL  = PAW_PBE Pb_d 06Sep2000                                              
   LULTRA =        F    use ultrasoft PP ?                                      
   IUNSCR =        1    unscreen: 0-lin 1-nonlin 2-no                           
   RPACOR =    2.200    partial core radius                                     
   POMASS =  207.200; ZVAL   =   14.000    mass and valenz                      
   RCORE  =    2.500    outmost cutoff radius                                   
   RWIGS  =    3.260; RWIGS  =    1.725    wigner-seitz radius (au A)           
   ENMAX  =  237.835; ENMIN  =  178.376 eV                                      
   ICORE  =        3    local potential                                         
   LCOR   =        T    correct aug charges                                     
   LPAW   =        T    paw PP                                                  
   EAUG   =  391.914                                                            
   DEXC   =    0.000                                                            
   RMAX   =    2.565    core radius for proj-oper                               
   RAUG   =    1.300    factor for augmentation sphere                          
   RDEP   =    2.643    radius for radial grids                                 
   RDEPT  =    2.092    core radius for aug-charge                              
                                                                                
   Atomic configuration                                                         
   16 entries                                                                   
     n  l   j            E        occ.                                          
     1  0  0.50    -88091.8466   2.0000                                         
     2  0  0.50    -15753.4197   2.0000                                         
     2  1  1.50    -13508.1797   6.0000                                         
     3  0  0.50     -3781.7194   2.0000                                         
     3  1  1.50     -3138.2529   6.0000                                         
     3  2  2.50     -2483.2977  10.0000                                         
     4  0  0.50      -856.2895   2.0000                                         
     4  1  1.50      -645.4942   6.0000                                         
     4  2  2.50      -401.8768  10.0000                                         
     4  3  3.50      -132.9059  14.0000                                         
     5  0  0.50      -144.0950   2.0000                                         
     5  1  1.50       -85.7879   6.0000                                         
     5  2  2.50       -21.1769  10.0000                                         
     6  0  0.50       -12.0372   2.0000                                         
     6  1  1.50        -3.4971   2.0000                                         
     5  3  2.50        -2.7212   0.0000                                         
   Description                                                                  
     l       E           TYP  RCUT    TYP  RCUT                                 
     2    -21.1768523     23  2.500                                             
     2      1.3605826     23  2.500                                             
     0    -12.0371562     23  2.500                                             
     0     13.6058260     23  2.500                                             
     1     -3.4971339     23  2.500                                             
     1     13.6058260     23  2.500                                             
     3     -1.3605826      7  2.500                                             
  local pseudopotential read in
  partial core-charges read in
  partial kinetic energy density read in
  atomic valenz-charges read in
  non local Contribution for L=           2  read in
    real space projection operators read in
  non local Contribution for L=           2  read in
    real space projection operators read in
  non local Contribution for L=           0  read in
    real space projection operators read in
  non local Contribution for L=           0  read in
    real space projection operators read in
  non local Contribution for L=           1  read in
    real space projection operators read in
  non local Contribution for L=           1  read in
    real space projection operators read in
    PAW grid and wavefunctions read in
 
   number of l-projection  operators is LMAX  =           6
   number of lm-projection operators is LMMAX =          18
 
 POTCAR:    PAW_PBE I 08Apr2002                   
   VRHFIN =I : s2p5                                                             
   LEXCH  = PE                                                                  
   EATOM  =   315.8678 eV,   23.2156 Ry                                         
                                                                                
   TITEL  = PAW_PBE I 08Apr2002                                                 
   LULTRA =        F    use ultrasoft PP ?                                      
   IUNSCR =        1    unscreen: 0-lin 1-nonlin 2-no                           
   RPACOR =    2.200    partial core radius                                     
   POMASS =  126.904; ZVAL   =    7.000    mass and valenz                      
   RCORE  =    2.300    outmost cutoff radius                                   
   RWIGS  =    2.810; RWIGS  =    1.487    wigner-seitz radius (au A)           
   ENMAX  =  175.647; ENMIN  =  131.735 eV                                      
   ICORE  =        3    local potential                                         
   LCOR   =        T    correct aug charges                                     
   LPAW   =        T    paw PP                                                  
   EAUG   =  370.139                                                            
   DEXC   =    0.000                                                            
   RMAX   =    2.359    core radius for proj-oper                               
   RAUG   =    1.300    factor for augmentation sphere                          
   RDEP   =    2.392    radius for radial grids                                 
   RDEPT  =    2.170    core radius for aug-charge                              
                                                                                
   Atomic configuration                                                         
   13 entries                                                                   
     n  l   j            E        occ.                                          
     1  0  0.50    -32976.3739   2.0000                                         
     2  0  0.50     -5094.5933   2.0000                                         
     2  1  1.50     -4572.0131   6.0000                                         
     3  0  0.50     -1028.2813   2.0000                                         
     3  1  1.50      -859.0250   6.0000                                         
     3  2  2.50      -605.7620  10.0000                                         
     4  0  0.50      -180.5540   2.0000                                         
     4  1  1.50      -127.5306   6.0000                                         
     4  2  2.50       -50.2720  10.0000                                         
     5  0  0.50       -17.4058   2.0000                                         
     5  1  0.50        -7.0851   5.0000                                         
     5  2  1.50        -7.0750   0.0000                                         
     4  3  2.50        -7.0750   0.0000                                         
   Description                                                                  
     l       E           TYP  RCUT    TYP  RCUT                                 
     0    -17.4058016     23  2.300                                             
     0    -18.7663842     23  2.300                                             
     1     -7.0850686     23  2.300                                             
     1     -4.2150896     23  2.300                                             
     2     -7.0750295     23  2.300                                             
     3     -1.3605826     23  2.300                                             
  local pseudopotential read in
  partial core-charges read in
  partial kinetic energy density read in
  atomic valenz-charges read in
  non local Contribution for L=           0  read in
    real space projection operators read in
  non local Contribution for L=           0  read in
    real space projection operators read in
  non local Contribution for L=           1  read in
    real space projection operators read in
  non local Contribution for L=           1  read in
    real space projection operators read in
  non local Contribution for L=           2  read in
    real space projection operators read in
    PAW grid and wavefunctions read in
 
   number of l-projection  operators is LMAX  =           5
   number of lm-projection operators is LMMAX =          13
 

 ----------------------------------------------------------------------------- 
|                                                                             |
|  ADVICE TO THIS USER RUNNING 'VASP/VAMP'   (HEAR YOUR MASTER'S VOICE ...):  |
|                                                                             |
|      You have a (more or less) 'large supercell' and for larger cells       |
|      it might be more efficient to use real space projection opertators     |
|      So try LREAL= Auto  in the INCAR   file.                               |
|      Mind: At the moment your POTCAR file does not contain real space       |
|       projectors, and has to be modified,  BUT if you                       |
|      want to do an extremely  accurate calculation you might also keep the  |
|      reciprocal projection scheme          (i.e. LREAL=.FALSE.)             |
|                                                                             |
 ----------------------------------------------------------------------------- 

  PAW_PBE C 08Apr2002                   :
 energy of atom  1       EATOM= -147.1560
 kinetic energy error for atom=    0.0032 (will be added to EATOM!!)
  PAW_PBE N 08Apr2002                   :
 energy of atom  2       EATOM= -264.5486
 kinetic energy error for atom=    0.0061 (will be added to EATOM!!)
  PAW_PBE H 15Jun2001                   :
 energy of atom  3       EATOM=  -12.4884
 kinetic energy error for atom=    0.0002 (will be added to EATOM!!)
  PAW_PBE Pb_d 06Sep2000                :
 energy of atom  4       EATOM=-1661.6185
 kinetic energy error for atom=    0.0012 (will be added to EATOM!!)
  PAW_PBE I 08Apr2002                   :
 energy of atom  5       EATOM= -315.8678
 kinetic energy error for atom=    0.0003 (will be added to EATOM!!)
 
 
 POSCAR: C N H Pb I                              
  positions in direct lattice
  No initial velocities read in
 exchange correlation table for  LEXCH =        8
   RHO(1)=    0.500       N(1)  =     2000
   RHO(2)=  100.500       N(2)  =     4000
 


--------------------------------------------------------------------------------------------------------


 ion  position               nearest neighbor table
   1  0.197  0.250  0.229-  25 1.10  33 1.10  17 1.10   9 1.48
   2  0.697  0.250  0.229-  26 1.10  34 1.10  18 1.10  10 1.48
   3  0.197  0.750  0.229-  27 1.10  35 1.10  19 1.10  11 1.48
   4  0.697  0.750  0.229-  28 1.10  36 1.10  20 1.10  12 1.48
   5  0.197  0.250  0.729-  29 1.10  37 1.10  21 1.10  13 1.48
   6  0.697  0.250  0.729-  30 1.10  38 1.10  22 1.10  14 1.48
   7  0.197  0.750  0.729-  31 1.10  39 1.10  23 1.10  15 1.48
   8  0.697  0.750  0.729-  32 1.10  40 1.10  24 1.10  16 1.48
   9  0.307  0.250  0.270-  57 1.04  41 1.05  49 1.05   1 1.48
  10  0.803  0.250  0.278-  58 1.04  42 1.05  50 1.05   2 1.48
  11  0.303  0.750  0.278-  59 1.04  43 1.05  51 1.05   3 1.48
  12  0.807  0.750  0.270-  60 1.04  44 1.05  52 1.05   4 1.48
  13  0.303  0.250  0.778-  61 1.04  45 1.05  53 1.05   5 1.48
  14  0.807  0.250  0.770-  62 1.04  46 1.05  54 1.05   6 1.48
  15  0.307  0.750  0.770-  63 1.04  47 1.05  55 1.05   7 1.48
  16  0.803  0.750  0.778-  64 1.04  48 1.05  56 1.05   8 1.48
  17  0.202  0.250  0.143-   1 1.10
  18  0.708  0.250  0.143-   2 1.10
  19  0.208  0.750  0.143-   3 1.10
  20  0.702  0.750  0.143-   4 1.10
  21  0.208  0.250  0.643-   5 1.10
  22  0.702  0.250  0.643-   6 1.10
  23  0.202  0.750  0.643-   7 1.10
  24  0.708  0.750  0.643-   8 1.10
  25  0.155  0.322  0.257-   1 1.10
  26  0.653  0.322  0.254-   2 1.10
  27  0.153  0.822  0.254-   3 1.10
  28  0.655  0.822  0.257-   4 1.10
  29  0.153  0.322  0.754-   5 1.10
  30  0.655  0.322  0.757-   6 1.10
  31  0.155  0.822  0.757-   7 1.10
  32  0.653  0.822  0.754-   8 1.10
  33  0.156  0.177  0.257-   1 1.10
  34  0.653  0.177  0.254-   2 1.10
  35  0.153  0.677  0.254-   3 1.10
  36  0.656  0.677  0.257-   4 1.10
  37  0.153  0.177  0.754-   5 1.10
  38  0.656  0.177  0.757-   6 1.10
  39  0.156  0.677  0.757-   7 1.10
  40  0.653  0.677  0.754-   8 1.10
  41  0.349  0.318  0.245-   9 1.05
  42  0.847  0.318  0.256-  10 1.05
  43  0.347  0.818  0.256-  11 1.05
  44  0.849  0.818  0.245-  12 1.05
  45  0.347  0.318  0.756-  13 1.05
  46  0.849  0.318  0.745-  14 1.05
  47  0.349  0.818  0.745-  15 1.05
  48  0.847  0.818  0.756-  16 1.05
  49  0.349  0.182  0.245-   9 1.05
  50  0.847  0.182  0.256-  10 1.05
  51  0.347  0.682  0.256-  11 1.05
  52  0.849  0.682  0.245-  12 1.05
  53  0.347  0.182  0.756-  13 1.05
  54  0.849  0.182  0.745-  14 1.05
  55  0.349  0.682  0.745-  15 1.05
  56  0.847  0.682  0.756-  16 1.05
  57  0.309  0.250  0.352-   9 1.04
  58  0.798  0.250  0.360-  10 1.04
  59  0.298  0.750  0.360-  11 1.04
  60  0.809  0.750  0.352-  12 1.04
  61  0.298  0.250  0.860-  13 1.04
  62  0.809  0.250  0.852-  14 1.04
  63  0.309  0.750  0.852-  15 1.04
  64  0.798  0.750  0.860-  16 1.04
  65  0.472  0.499  0.489-  90 3.08  87 3.14  85 3.15  77 3.17  73 3.22  89 3.25
  66  0.972  0.501  0.489-  89 3.08  86 3.14  88 3.15  78 3.17  74 3.22  90 3.25
  67  0.472  0.001  0.489-  92 3.08  87 3.14  85 3.15  79 3.17  75 3.22  91 3.25
  68  0.972  0.999  0.489-  91 3.08  86 3.14  88 3.15  80 3.17  76 3.22  92 3.25
  69  0.472  0.501  0.989-  94 3.08  81 3.14  83 3.15  73 3.17  77 3.22  93 3.25
  70  0.972  0.499  0.989-  93 3.08  84 3.14  82 3.15  74 3.17  78 3.22  94 3.25
  71  0.472  0.999  0.989-  96 3.08  81 3.14  83 3.15  75 3.17  79 3.22  95 3.25
  72  0.972  0.001  0.989-  95 3.08  84 3.14  82 3.15  76 3.17  80 3.22  96 3.25
  73  0.455  0.501  0.238-  69 3.17  65 3.22
  74  0.955  0.499  0.238-  70 3.17  66 3.22
  75  0.455  0.999  0.238-  71 3.17  67 3.22
  76  0.955  0.001  0.238-  72 3.17  68 3.22
  77  0.455  0.499  0.738-  65 3.17  69 3.22
  78  0.955  0.501  0.738-  66 3.17  70 3.22
  79  0.455  0.001  0.738-  67 3.17  71 3.22
  80  0.955  0.999  0.738-  68 3.17  72 3.22
  81  0.458  0.250  0.011-  71 3.14  69 3.14
  82  0.942  0.250  0.012-  72 3.15  70 3.15
  83  0.442  0.750  0.012-  69 3.15  71 3.15
  84  0.958  0.750  0.011-  70 3.14  72 3.14
  85  0.442  0.250  0.512-  67 3.15  65 3.15
  86  0.958  0.250  0.511-  68 3.14  66 3.14
  87  0.458  0.750  0.511-  65 3.14  67 3.14
  88  0.942  0.750  0.512-  66 3.15  68 3.15
  89  0.216  0.509  0.461-  66 3.08  65 3.25
  90  0.716  0.491  0.461-  65 3.08  66 3.25
  91  0.216  0.991  0.461-  68 3.08  67 3.25
  92  0.716  0.009  0.461-  67 3.08  68 3.25
  93  0.216  0.491  0.961-  70 3.08  69 3.25
  94  0.716  0.509  0.961-  69 3.08  70 3.25
  95  0.216  0.009  0.961-  72 3.08  71 3.25
  96  0.716  0.991  0.961-  71 3.08  72 3.25
 
  LATTYP: Found a triclinic cell.
 ALAT       =    17.8238589327
 B/A-ratio  =     0.6989248630
 C/A-ratio  =     1.0156975818
 COS(alpha) =     0.0001355172
 COS(beta)  =     0.5146378593
 COS(gamma) =     0.6988877578
  
  Lattice vectors:
  
 A1 = (  -0.1406063366, -12.4576271275, -12.7466742118)
 A2 = (  -0.0011956322, -12.4575380825,   0.0007464135)
 A3 = ( -12.7162481321,  -0.0020049566, -12.8856194186)


Analysis of symmetry for initial positions (statically):
=====================================================================
 Subroutine PRICEL returns following result:
 
  LATTYP: Found a triclinic cell.
 ALAT       =     8.8524544993
 B/A-ratio  =     1.4072411401
 C/A-ratio  =     1.0225215175
 COS(alpha) =     0.0001355172
 COS(beta)  =     0.5046167836
 COS(gamma) =     0.7037964938
  
  Lattice vectors:
  
 A1 = (   6.2890165300,   6.2297269971,   0.0687261899)
 A2 = (   0.0011956322,  12.4575380825,  -0.0007464135)
 A3 = (   6.3581240661,   0.0010024783,   6.4428097093)
 
   4 primitive cells build up your supercell.
 

 Routine SETGRP: Setting up the symmetry group for a 
 triclinic supercell.


 Subroutine GETGRP returns: Found  1 space group operations
 (whereof  1 operations were pure point group operations)
 out of a pool of  2 trial point group operations.


The static configuration has the point symmetry C_1 .


Analysis of symmetry for dynamics (positions and initial velocities):
=====================================================================
 Subroutine PRICEL returns following result:
 
  LATTYP: Found a triclinic cell.
 ALAT       =     8.8524544993
 B/A-ratio  =     1.4072411401
 C/A-ratio  =     1.0225215175
 COS(alpha) =     0.0001355172
 COS(beta)  =     0.5046167836
 COS(gamma) =     0.7037964938
  
  Lattice vectors:
  
 A1 = (   6.2890165300,   6.2297269971,   0.0687261899)
 A2 = (   0.0011956322,  12.4575380825,  -0.0007464135)
 A3 = (   6.3581240661,   0.0010024783,   6.4428097093)
 
   4 primitive cells build up your supercell.
 

 Routine SETGRP: Setting up the symmetry group for a 
 triclinic supercell.


 Subroutine GETGRP returns: Found  1 space group operations
 (whereof  1 operations were pure point group operations)
 out of a pool of  2 trial point group operations.


The dynamic configuration has the point symmetry C_1 .


 Subroutine INISYM returns: Found  1 space group operations
 (whereof  1 operations are pure point group operations),
 and found     4 'primitive' translations

 
 
 KPOINTS: Automatic 3x3x3                         

Automatic generation of k-mesh.
Space group operators:
 irot       det(A)        alpha          n_x          n_y          n_z        tau_x        tau_y        tau_z
    1     1.000000     0.000000     1.000000     0.000000     0.000000     0.000000     0.000000     0.000000
 
 Subroutine IBZKPT returns following result:
 ===========================================
 
 Found     14 irreducible k-points:
 
 Following reciprocal coordinates:
            Coordinates               Weight
  0.000000  0.000000  0.000000      1.000000
  0.333333 -0.000000 -0.000000      2.000000
  0.000000  0.333333 -0.000000      2.000000
  0.333333  0.333333  0.000000      2.000000
 -0.333333  0.333333  0.000000      2.000000
  0.000000  0.000000  0.333333      2.000000
  0.333333  0.000000  0.333333      2.000000
 -0.333333  0.000000  0.333333      2.000000
  0.000000  0.333333  0.333333      2.000000
  0.333333  0.333333  0.333333      2.000000
 -0.333333  0.333333  0.333333      2.000000
  0.000000 -0.333333  0.333333      2.000000
  0.333333 -0.333333  0.333333      2.000000
 -0.333333 -0.333333  0.333333      2.000000
 
 Following cartesian coordinates:
            Coordinates               Weight
  0.000000  0.000000  0.000000      1.000000
  0.026507 -0.000003 -0.000290      2.000000
 -0.000004  0.026758 -0.000000      2.000000
  0.026503  0.026755 -0.000290      2.000000
 -0.026511  0.026760  0.000290      2.000000
 -0.000287  0.000002  0.026152      2.000000
  0.026220 -0.000001  0.025862      2.000000
 -0.026794  0.000004  0.026442      2.000000
 -0.000291  0.026759  0.026152      2.000000
  0.026215  0.026757  0.025862      2.000000
 -0.026798  0.026762  0.026442      2.000000
 -0.000283 -0.026756  0.026152      2.000000
  0.026224 -0.026759  0.025862      2.000000
 -0.026790 -0.026753  0.026442      2.000000
 
 
 Subroutine IBZKPT_HF returns following result:
 ==============================================
 
 Found     27 k-points in 1st BZ
 the following     27 k-points will be used (e.g. in the exchange kernel)
 Following reciprocal coordinates:   # in IRBZ
  0.000000  0.000000  0.000000    0.03703704   1 t-inv F
  0.333333 -0.000000 -0.000000    0.03703704   2 t-inv F
  0.000000  0.333333 -0.000000    0.03703704   3 t-inv F
  0.333333  0.333333  0.000000    0.03703704   4 t-inv F
 -0.333333  0.333333  0.000000    0.03703704   5 t-inv F
  0.000000  0.000000  0.333333    0.03703704   6 t-inv F
  0.333333  0.000000  0.333333    0.03703704   7 t-inv F
 -0.333333  0.000000  0.333333    0.03703704   8 t-inv F
  0.000000  0.333333  0.333333    0.03703704   9 t-inv F
  0.333333  0.333333  0.333333    0.03703704  10 t-inv F
 -0.333333  0.333333  0.333333    0.03703704  11 t-inv F
  0.000000 -0.333333  0.333333    0.03703704  12 t-inv F
  0.333333 -0.333333  0.333333    0.03703704  13 t-inv F
 -0.333333 -0.333333  0.333333    0.03703704  14 t-inv F
 -0.333333  0.000000  0.000000    0.03703704   2 t-inv T
 -0.000000 -0.333333  0.000000    0.03703704   3 t-inv T
 -0.333333 -0.333333 -0.000000    0.03703704   4 t-inv T
  0.333333 -0.333333 -0.000000    0.03703704   5 t-inv T
 -0.000000  0.000000 -0.333333    0.03703704   6 t-inv T
 -0.333333 -0.000000 -0.333333    0.03703704   7 t-inv T
  0.333333 -0.000000 -0.333333    0.03703704   8 t-inv T
 -0.000000 -0.333333 -0.333333    0.03703704   9 t-inv T
 -0.333333 -0.333333 -0.333333    0.03703704  10 t-inv T
  0.333333 -0.333333 -0.333333    0.03703704  11 t-inv T
 -0.000000  0.333333 -0.333333    0.03703704  12 t-inv T
 -0.333333  0.333333 -0.333333    0.03703704  13 t-inv T
  0.333333  0.333333 -0.333333    0.03703704  14 t-inv T


--------------------------------------------------------------------------------------------------------




 Dimension of arrays:
   k-points           NKPTS =     14   k-points in BZ     NKDIM =     27   number of bands    NBANDS=    256
   number of dos      NEDOS =    301   number of ions     NIONS =     96
   non local maximal  LDIM  =      6   non local SUM 2l+1 LMDIM =     18
   total plane-waves  NPLWV = ******
   max r-space proj   IRMAX =      1   max aug-charges    IRDMAX= 314103
   dimension x,y,z NGX =   112 NGY =  108 NGZ =  112
   dimension x,y,z NGXF=   224 NGYF=  216 NGZF=  224
   support grid    NGXF=   448 NGYF=  432 NGZF=  448
   ions per type =               8   8  48   8  24
 NGX,Y,Z   is equivalent  to a cutoff of  14.80, 14.41, 14.61 a.u.
 NGXF,Y,Z  is equivalent  to a cutoff of  29.61, 28.83, 29.21 a.u.


 I would recommend the setting:
   dimension x,y,z NGX =   109 NGY =  107 NGZ =  110
 SYSTEM =  MAPbI3-Cubic                            
 POSCAR =  C N H Pb I                              

 Startparameter for this run:
   NWRITE =      2    write-flag & timer
   PREC   = accura    normal or accurate (medium, high low for compatibility)
   ISTART =      0    job   : 0-new  1-cont  2-samecut
   ICHARG =      2    charge: 1-file 2-atom 10-const
   ISPIN  =      1    spin polarized calculation?
   LNONCOLLINEAR =      F non collinear calculations
   LSORBIT =      F    spin-orbit coupling
   INIWAV =      1    electr: 0-lowe 1-rand  2-diag
   LASPH  =      F    aspherical Exc in radial PAW
   METAGGA=      F    non-selfconsistent MetaGGA calc.

 Electronic Relaxation 1
   ENCUT  =  700.0 eV  51.45 Ry    7.17 a.u.  27.13 26.87 27.50*2*pi/ulx,y,z
   ENINI  =  700.0     initial cutoff
   ENAUG  =  644.9 eV  augmentation charge cutoff
   NELM   =     60;   NELMIN=  2; NELMDL= -5     # of ELM steps 
   EDIFF  = 0.1E-07   stopping-criterion for ELM
   LREAL  =      F    real-space projection
   NLSPLINE    = F    spline interpolate recip. space projectors
   LCOMPAT=      F    compatible to vasp.4.4
   GGA_COMPAT  = T    GGA compatible to vasp.4.4-vasp.4.6
   LMAXPAW     = -100 max onsite density
   LMAXMIX     =    2 max onsite mixed and CHGCAR
   VOSKOWN=      0    Vosko Wilk Nusair interpolation
   ROPT   =    0.00000   0.00000   0.00000   0.00000
   ROPT   =    0.00000
 Ionic relaxation
   EDIFFG = 0.1E-06   stopping-criterion for IOM
   NSW    =      0    number of steps for IOM
   NBLOCK =      1;   KBLOCK =      1    inner block; outer block 
   IBRION =     -1    ionic relax: 0-MD 1-quasi-New 2-CG
   NFREE  =      0    steps in history (QN), initial steepest desc. (CG)
   ISIF   =      2    stress and relaxation
   IWAVPR =     10    prediction:  0-non 1-charg 2-wave 3-comb
   ISYM   =      3    0-nonsym 1-usesym 2-fastsym
   LCORR  =      T    Harris-Foulkes like correction to forces

   POTIM  = 0.5000    time-step for ionic-motion
   TEIN   =    0.0    initial temperature
   TEBEG  =    0.0;   TEEND  =   0.0 temperature during run
   SMASS  =  -3.00    Nose mass-parameter (am)
   estimated Nose-frequenzy (Omega)   =  0.10E-29 period in steps =****** mass=  -0.362E-26a.u.
   SCALEE = 1.0000    scale energy and forces
   NPACO  =    256;   APACO  = 16.0  distance and # of slots for P.C.
   PSTRESS=    0.0 pullay stress

  Mass of Ions in am
   POMASS =  12.01 14.00  1.00207.20126.90
  Ionic Valenz
   ZVAL   =   4.00  5.00  1.00 14.00  7.00
  Atomic Wigner-Seitz radii
   RWIGS  =  -1.00 -1.00 -1.00 -1.00 -1.00
  virtual crystal weights 
   VCA    =   1.00  1.00  1.00  1.00  1.00
   NELECT =     400.0000    total number of electrons
   NUPDOWN=      -1.0000    fix difference up-down

 DOS related values:
   EMIN   =  10.00;   EMAX   =-10.00  energy-range for DOS
   EFERMI =   0.00
   ISMEAR =     0;   SIGMA  =   0.00  broadening in eV -4-tet -1-fermi 0-gaus

 Electronic relaxation 2 (details)
   IALGO  =     58    algorithm
   LDIAG  =      T    sub-space diagonalisation (order eigenvalues)
   LSUBROT=      F    optimize rotation matrix (better conditioning)
   TURBO    =      0    0=normal 1=particle mesh
   IRESTART =      0    0=no restart 2=restart with 2 vectors
   NREBOOT  =      0    no. of reboots
   NMIN     =      0    reboot dimension
   EREF     =   0.00    reference energy to select bands
   IMIX   =      4    mixing-type and parameters
     AMIX     =   0.40;   BMIX     =  1.00
     AMIX_MAG =   1.60;   BMIX_MAG =  1.00
     AMIN     =   0.10
     WC   =   100.;   INIMIX=   1;  MIXPRE=   1;  MAXMIX= -45

 Intra band minimization:
   WEIMIN = 0.0000     energy-eigenvalue tresh-hold
   EBREAK =  0.98E-11  absolut break condition
   DEPER  =   0.30     relativ break condition  

   TIME   =   0.40     timestep for ELM

  volume/ion in A,a.u.               =      20.80       140.38
  Fermi-wavevector in a.u.,A,eV,Ry     =   0.957863  1.810099 12.483376  0.917502
  Thomas-Fermi vector in A             =   2.086919
 
 Write flags
   LWAVE  =      F    write WAVECAR
   LCHARG =      F    write CHGCAR
   LVTOT  =      F    write LOCPOT, total local potential
   LVHAR  =      F    write LOCPOT, Hartree potential only
   LELF   =      F    write electronic localiz. function (ELF)
   LORBIT =      0    0 simple, 1 ext, 2 COOP (PROOUT)


 Dipole corrections
   LMONO  =      F    monopole corrections only (constant potential shift)
   LDIPOL =      F    correct potential (dipole corrections)
   IDIPOL =      0    1-x, 2-y, 3-z, 4-all directions 
   EPSILON=  1.0000000 bulk dielectric constant

 Core level calculations are selected ICORELEVEL =  1
 Exchange correlation treatment:
   GGA     =    PE    GGA type
   LEXCH   =     8    internal setting for exchange type
   VOSKOWN=      0    Vosko Wilk Nusair interpolation
   EXXOEP  =     0    0=HF, 1=EXX-LHF (local Hartree Fock) 2=EXX OEP
   LHFCALC =     T    Hartree Fock is set to
   LSYMGRAD=     F    symmetrize gradient (conserves proper symmetry)
   PRECFOCK=fast      Normal, Fast or Accurate (Low or Medium for compatibility)
   LRHFCALC=     F    long range Hartree Fock
   LRSCOR  =     F    long range correlation only (use DFT for short range part)
   LTHOMAS =     F    Thomas Fermi screening in HF
   LMODELHF=     F    short range full HF, long range fraction AEXX
   ENCUT4O =  -1.0   cutoff for four orbital integrals eV
   LMAXFOCK=     4    L truncation for augmentation on plane wave grid
   LMAXFOCKAE=  -1    L truncation for all-electron charge restoration on plane wave grid
   NMAXFOCKAE=   1    number of basis functions for all-electron charge restoration
   LFOCKAEDFT=     F  apply the AE augmentation even for DFT
   NKREDX  =     1    reduce k-point grid by
   NKREDY  =     1    reduce k-point grid by
   NKREDZ  =     1    reduce k-point grid by
   SHIFTRED=     F    shift reduced grid of Gamma
   HFKIDENT=     F    idential grid for each k-point
   ODDONLY =     F    use only odd q-grid points
   EVENONLY=     F    use only even q-grid points
   HFALPHA =   -1.0000 decay constant for conv. correction
   MCALPHA =    0.0000 extent of test-charge in conv. correction in multipole expansion
   AEXX    =    0.2500 exact exchange contribution
   HFSCREEN=    0.2070 screening length (either q_TF or 0.3 A-1)
   HFSCREENC=   0.2070 screening length for correlation (either q_TF or 0.3 A-1)
   HFRCUT  =    0.0000 spherical cutoff for potential kernel
   ALDAX   =    0.7500 LDA exchange part
   AGGAX   =    0.7500 GGA exchange part
   ALDAC   =    1.0000 LDA correlation
   AGGAC   =    1.0000 GGA correlation
   NBANDSGWLOW=     1    first orbital included in HF term
   ENCUTFOCK=  -1.0 apply spherical cutoff to Coloumb kernel
 Linear response parameters
   LEPSILON=     F    determine dielectric tensor
   LRPA    =     F    only Hartree local field effects (RPA)
   LNABLA  =     F    use nabla operator in PAW spheres
   LVEL    =     F    velocity operator in full k-point grid
   LINTERFAST=   F  fast interpolation
   KINTER  =     0    interpolate to denser k-point grid
   CSHIFT  =0.1000    complex shift for real part using Kramers Kronig
   OMEGAMAX=  -1.0    maximum frequency
   DEG_THRESHOLD= 0.2000000E-02 threshold for treating states as degnerate
   RTIME   =    0.100 relaxation time in fs

 Orbital magnetization related:
   ORBITALMAG=     F  switch on orbital magnetization
   LCHIMAG   =     F  perturbation theory with respect to B field
   DQ        =  0.001000  dq finite difference perturbation B field



--------------------------------------------------------------------------------------------------------


 Static calculation
 charge density and potential will be updated during run
 non-spin polarized calculation
 Conjugate gradient for all bands (Freysoldt, et al. PRB 79, 241103 (2009))
 preconditioned conjugated gradient                                        
 perform sub-space diagonalisation
    before iterative eigenvector-optimisation
 modified Broyden-mixing scheme, WC =      100.0
 initial mixing is a Kerker type mixing with AMIX =  0.4000 and BMIX =      1.0000
 Hartree-type preconditioning will be used
 using additional bands           56
 reciprocal scheme for non local part
 use partial core corrections
 no Harris-corrections to forces 
 use gradient corrections 
 use of overlap-Matrix (Vanderbilt PP)
 Gauss-broadening in eV      SIGMA  =   0.00


--------------------------------------------------------------------------------------------------------


  energy-cutoff  :      700.00
  volume of cell :     1996.98
      direct lattice vectors                 reciprocal lattice vectors
    12.576837428  0.001915912  0.138198793     0.079520802 -0.000007684 -0.000869670
     0.001195632 12.457538083 -0.000746413    -0.000012224  0.080272684 -0.000000427
     0.139410704  0.000089045 12.747420625    -0.000862111  0.000004784  0.078456671

  length of vectors
    12.577596840 12.457538162 12.748182927     0.079525558  0.080272685  0.078461408


 
 k-points in units of 2pi/SCALE and weight: Automatic 3x3x3                         
   0.00000000  0.00000000  0.00000000       0.037
   0.02650693 -0.00000256 -0.00028989       0.074
  -0.00000407  0.02675756 -0.00000014       0.074
   0.02650286  0.02675500 -0.00029003       0.074
  -0.02651101  0.02676012  0.00028975       0.074
  -0.00028737  0.00000159  0.02615222       0.074
   0.02621956 -0.00000097  0.02586233       0.074
  -0.02679430  0.00000416  0.02644211       0.074
  -0.00029144  0.02675916  0.02615208       0.074
   0.02621549  0.02675659  0.02586219       0.074
  -0.02679838  0.02676172  0.02644197       0.074
  -0.00028330 -0.02675597  0.02615237       0.074
   0.02622364 -0.02675853  0.02586248       0.074
  -0.02679023 -0.02675341  0.02644226       0.074
 
 k-points in reciprocal lattice and weights: Automatic 3x3x3                         
   0.00000000  0.00000000  0.00000000       0.037
   0.33333333 -0.00000000 -0.00000000       0.074
   0.00000000  0.33333333 -0.00000000       0.074
   0.33333333  0.33333333  0.00000000       0.074
  -0.33333333  0.33333333  0.00000000       0.074
   0.00000000  0.00000000  0.33333333       0.074
   0.33333333  0.00000000  0.33333333       0.074
  -0.33333333  0.00000000  0.33333333       0.074
   0.00000000  0.33333333  0.33333333       0.074
   0.33333333  0.33333333  0.33333333       0.074
  -0.33333333  0.33333333  0.33333333       0.074
   0.00000000 -0.33333333  0.33333333       0.074
   0.33333333 -0.33333333  0.33333333       0.074
  -0.33333333 -0.33333333  0.33333333       0.074
 
 position of ions in fractional coordinates (direct lattice) 
   0.19720858  0.24989138  0.22881842
   0.69677968  0.24992517  0.22901228
   0.19677968  0.74992517  0.22901228
   0.69720858  0.74989138  0.22881842
   0.19677968  0.24992517  0.72901228
   0.69720858  0.24989138  0.72881842
   0.19720858  0.74989138  0.72881842
   0.69677968  0.74992517  0.72901228
   0.30652008  0.24999279  0.26981095
   0.80255436  0.25001449  0.27795764
   0.30255436  0.75001449  0.27795764
   0.80652008  0.74999279  0.26981095
   0.30255436  0.25001449  0.77795764
   0.80652008  0.24999279  0.76981095
   0.30652008  0.74999279  0.76981095
   0.80255436  0.75001449  0.77795764
   0.20199912  0.24980429  0.14255779
   0.70815122  0.24983790  0.14321946
   0.20815122  0.74983790  0.14321946
   0.70199912  0.74980429  0.14255779
   0.20815122  0.24983790  0.64321946
   0.70199912  0.24980429  0.64255779
   0.20199912  0.74980429  0.64255779
   0.70815122  0.74983790  0.64321946
   0.15545967  0.32231099  0.25691479
   0.65321594  0.32239338  0.25411585
   0.15321594  0.82239338  0.25411585
   0.65545967  0.82231099  0.25691479
   0.15321594  0.32239338  0.75411585
   0.65545967  0.32231099  0.75691479
   0.15545967  0.82231099  0.75691479
   0.65321594  0.82239338  0.75411585
   0.15557894  0.17747779  0.25704679
   0.65330673  0.17747436  0.25425462
   0.15330673  0.67747436  0.25425462
   0.65557894  0.67747779  0.25704679
   0.15330673  0.17747436  0.75425462
   0.65557894  0.17747779  0.75704679
   0.15557894  0.67747779  0.75704679
   0.65330673  0.67747436  0.75425462
   0.34933251  0.31784228  0.24519586
   0.84693664  0.31790628  0.25631712
   0.34693664  0.81790628  0.25631712
   0.84933251  0.81784228  0.24519586
   0.34693664  0.31790628  0.75631712
   0.84933251  0.31784228  0.74519586
   0.34933251  0.81784228  0.74519586
   0.84693664  0.81790628  0.75631712
   0.34942020  0.18212708  0.24531538
   0.84699040  0.18208269  0.25646642
   0.34699040  0.68208269  0.25646642
   0.84942020  0.68212708  0.24531538
   0.34699040  0.18208269  0.75646642
   0.84942020  0.18212708  0.74531538
   0.34942020  0.68212708  0.74531538
   0.84699040  0.68208269  0.75646642
   0.30853564  0.25007118  0.35165983
   0.79780450  0.25011586  0.35955866
   0.29780450  0.75011586  0.35955866
   0.80853564  0.75007118  0.35165983
   0.29780450  0.25011586  0.85955866
   0.80853564  0.25007118  0.85165983
   0.30853564  0.75007118  0.85165983
   0.79780450  0.75011586  0.85955866
   0.47244075  0.49945992  0.48881004
   0.97244280  0.50051967  0.48881286
   0.47244280  0.00051967  0.48881286
   0.97244075  0.99945992  0.48881004
   0.47244280  0.50051967  0.98881286
   0.97244075  0.49945992  0.98881004
   0.47244075  0.99945992  0.98881004
   0.97244280  0.00051967  0.98881286
   0.45473130  0.50108793  0.23757337
   0.95475605  0.49889417  0.23757212
   0.45475605  0.99889417  0.23757212
   0.95473130  0.00108793  0.23757337
   0.45475605  0.49889417  0.73757212
   0.95473130  0.50108793  0.73757337
   0.45473130  0.00108793  0.73757337
   0.95475605  0.99889417  0.73757212
   0.45776831  0.24997706  0.01146887
   0.94150257  0.24998096  0.01219556
   0.44150257  0.74998096  0.01219556
   0.95776831  0.74997706  0.01146887
   0.44150257  0.24998096  0.51219556
   0.95776831  0.24997706  0.51146887
   0.45776831  0.74997706  0.51146887
   0.94150257  0.74998096  0.51219556
   0.21616942  0.50932670  0.46124944
   0.71617345  0.49066817  0.46122996
   0.21617345  0.99066817  0.46122996
   0.71616942  0.00932670  0.46124944
   0.21617345  0.49066817  0.96122996
   0.71616942  0.50932670  0.96124944
   0.21616942  0.00932670  0.96124944
   0.71617345  0.99066817  0.96122996
 
 position of ions in cartesian coordinates  (Angst):
   2.51245883  3.11342964  2.94391216
   8.79551034  3.11480764  3.01542348
   2.50768944  9.34261872  2.94595088
   8.80147536  9.34315664  3.01263835
   2.57679698  3.11389420  9.32003440
   8.87058289  3.11443212  9.38672187
   2.58276200  9.34224321  9.31724927
   8.86581351  9.34362120  9.38876059
   3.89296665  3.11490599  3.48156777
  10.13264489  3.11612742  3.65396843
   3.84482399  9.34393851  3.58449583
  10.18198318  9.34463299  3.55029396
   3.91393152  3.11521399  9.95857935
  10.25109071  3.11590847  9.92437748
   3.96326981  9.34371956  9.85490487
  10.20294805  9.34494098 10.02730554
   2.56068280  3.11234616  1.84497370
   8.92656778  3.11373469  1.92335787
   2.63874689  9.34154578  1.85388527
   8.84969933  9.34207316  1.91369989
   2.70785442  3.11282126  8.22796879
   8.91880687  3.11334864  8.28778341
   2.63098597  9.34115973  8.21831081
   8.99687095  9.34254826  8.29669498
   1.99139304  4.01552218  3.29624468
   8.25120265  4.01750196  3.32935459
   1.96338175 10.24531304  3.25988199
   8.28040957 10.24524918  3.36497087
   2.03248929  4.01658852  9.63396551
   8.34951711  4.01652466  9.73905439
   2.06169621 10.24433575  9.66958179
   8.32150582 10.24631552  9.70269170
   1.99273827  2.21125728  3.29805193
   8.25219055  2.21216789  3.33124434
   1.96436965  8.43997898  3.26177173
   8.28175480  8.44098428  3.36677812
   2.03347719  2.21125446  9.63585525
   8.35086233  2.21225976  9.74086164
   2.06304143  8.44007084  9.67138904
   8.32249372  8.44098146  9.70458144
   4.42806114  3.96022346  3.17365485
  10.68789793  3.96197512  3.38419051
   4.40007704 10.18978620  3.31471790
  10.71707767 10.18995045  3.24238104
   4.46918457  3.96106168  9.68880142
  10.78618521  3.96122593  9.61646456
   4.49836431 10.18903702  9.54699195
  10.75820110 10.19078868  9.75752761
   4.42901838  2.26954638  3.17529180
  10.68843245  2.26994766  3.38620251
   4.40061155  8.49775874  3.31672991
  10.71803491  8.49927338  3.24401799
   4.46971909  2.26903422  9.69081343
  10.78714245  2.27054886  9.61810151
   4.49932155  8.49835995  9.54862891
  10.75873562  8.49876122  9.75953962
   3.92972677  3.11589373  4.52520839
  10.08428290  3.11738839  4.69351438
   3.79646200  9.34519948  4.62404178
  10.21874330  9.34562073  4.59393458
   3.86556954  3.11647496 10.99812530
  10.28785083  3.11689621 10.96801809
   4.00002993  9.34470729 10.89854549
  10.15458607  9.34620196 11.06685149
   6.01055299  6.22298962  6.29598509
  12.29899925  6.23714952  6.36511991
   6.00998272  0.00742252  6.29639372
  12.29956952 12.45271662  6.36471128
   6.08028589  6.23623609 12.66973083
  12.36867706  6.22399210 12.73879480
   6.08085616 12.45180318 12.66932220
  12.36810678  0.00842500 12.73920343
   5.75280106  6.24321430  3.09091696
  12.04152816  6.21684354  3.16000543
   5.75370726 12.44465463  3.09053283
  12.04062196  0.01540322  3.16038956
   5.82281480  6.21593011  9.46461635
  12.11092512  6.24421678  9.53372667
   5.82190859  0.01448978  9.46500048
  12.11183133 12.44565711  9.53334254
   5.75917538  3.11497677  0.20927500
  11.84312382  3.11595230  0.28538988
   5.55530293  9.34376339  0.21591728
  12.04819191  9.34470377  0.27800119
   5.62441046  3.11503887  6.59000080
  12.11729945  3.11597925  6.65208471
   5.82947855  9.34379034  6.58261211
  11.91342699  9.34476587  6.65872699
   2.78363977  6.34541201  5.90923483
   9.07208415  6.11393063  5.97810039
   2.78426326 12.34174171  5.90862779
   9.07146066  0.11760093  5.97870744
   2.85337079  6.11301719 12.28271131
   9.14176383  6.34641449 12.35204454
   2.85274730  0.11668749 12.28331835
   9.14238732 12.34274419 12.35143750
 


--------------------------------------------------------------------------------------------------------


 k-point  1 :   0.0000 0.0000 0.0000  plane waves:   84007
 k-point  2 :   0.3333-0.0000-0.0000  plane waves:   84003
 k-point  3 :   0.0000 0.3333-0.0000  plane waves:   83995
 k-point  4 :   0.3333 0.3333 0.0000  plane waves:   84018
 k-point  5 :  -0.3333 0.3333 0.0000  plane waves:   84019
 k-point  6 :   0.0000 0.0000 0.3333  plane waves:   83960
 k-point  7 :   0.3333 0.0000 0.3333  plane waves:   83937
 k-point  8 :  -0.3333 0.0000 0.3333  plane waves:   83982
 k-point  9 :   0.0000 0.3333 0.3333  plane waves:   83984
 k-point 10 :   0.3333 0.3333 0.3333  plane waves:   84012
 k-point 11 :  -0.3333 0.3333 0.3333  plane waves:   83970
 k-point 12 :   0.0000-0.3333 0.3333  plane waves:   83977
 k-point 13 :   0.3333-0.3333 0.3333  plane waves:   84013
 k-point 14 :  -0.3333-0.3333 0.3333  plane waves:   83973

 maximum and minimum number of plane-waves per node :      7062     6951

 maximum number of plane-waves:     84019
 maximum index in each direction: 
   IXMAX=   27   IYMAX=   27   IZMAX=   27
   IXMIN=  -27   IYMIN=  -27   IZMIN=  -27

 NGX is ok and might be reduce to 110
 WARNING: aliasing errors must be expected set NGY to 110 to avoid them
 NGZ is ok and might be reduce to 110
 aliasing errors are usually negligible using standard VASP settings
 and one can safely disregard these warnings

 parallel 3D FFT for wavefunctions:
    minimum data exchange during FFTs selected (reduces bandwidth)
 parallel 3D FFT for charge:
    minimum data exchange during FFTs selected (reduces bandwidth)


 FFT grid for exact exchange (Hartree Fock) 
  NGX = 56; NGY = 56; NGZ = 60

 
 Radii for the augmentation spheres in the non-local exchange
 for species   1 augmentation radius   0.944 (default was   0.699)
       energy cutoff for augmentation   2800.0
 for species   2 augmentation radius   0.957 (default was   0.709)
       energy cutoff for augmentation   2800.0
 for species   3 augmentation radius   0.702 (default was   0.520)
       energy cutoff for augmentation   2800.0
 for species   4 augmentation radius   1.558 (default was   1.154)
       energy cutoff for augmentation   2800.0
 for species   5 augmentation radius   1.603 (default was   1.188)
       energy cutoff for augmentation   2800.0

 real space projection operators:
  total allocation   :      10821.72 KBytes
  max/ min on nodes  :       1227.83        477.56

 Maximum index for augmentation-charges in exchange          230
  SETUP_FOCK is finished

 total amount of memory used by VASP on root node   222701. kBytes
========================================================================

   base      :      30000. kBytes
   nonl-proj :      82891. kBytes
   fftplans  :      15020. kBytes
   grid      :      12652. kBytes
   one-center:        124. kBytes
   HF        :        259. kBytes
   nonlr-proj:       4169. kBytes
   wavefun   :      77586. kBytes
 
     INWAV:  cpu time    0.0000: real time    0.0002
 Broyden mixing: mesh for mixing (old mesh)
   NGX = 55   NGY = 53   NGZ = 55
  (NGX  =224   NGY  =216   NGZ  =224)
  gives a total of 160325 points

 initial charge density was supplied:
 charge density of overlapping atoms calculated
 number of electron     400.0000000 magnetization 
 keeping initial charge density in first step


--------------------------------------------------------------------------------------------------------


 Maximum index for augmentation-charges         5291 (set IRDMAX)


--------------------------------------------------------------------------------------------------------


 First call to EWALD:  gamma=   0.141
 Maximum number of real-space cells 3x 3x 3
 Maximum number of reciprocal cells 3x 3x 3

 FEWALD executed in parallel
    FEWALD:  cpu time    0.0080: real time    0.0073


----------------------------------------- Iteration    1(   1)  ---------------------------------------


    POTLOK:  cpu time    0.2640: real time    0.2643
    SETDIJ:  cpu time    0.6120: real time    0.6111
    TRIAL :  cpu time    4.4283: real time    4.4340
    CORREC:  cpu time    0.0000: real time    0.0018
    --------------------------------------------
      LOOP:  cpu time    5.3403: real time    5.3733

 eigenvalue-minimisations  : 11808
 total energy-change (2. order) : 0.3450116E+05  (-0.1145227E+06)
 number of electron     400.0000000 magnetization 
 augmentation part      400.0000000 magnetization 

 Free energy of the ion-electron system (eV)
  ---------------------------------------------------
  alpha Z        PSCENC =       370.05370877
  Ewald energy   TEWEN  =    -15509.36173309
  -Hartree energ DENC   =     -8136.00425054
  -exchange      EXHF   =         0.00000000
  -V(xc)+E(xc)   XCENC  =       254.76581122
  PAW double counting   =     20708.16285019   -20051.16882790
  entropy T*S    EENTRO =        -0.00004179
  eigenvalues    EBANDS =     32184.28458064
  atomic energy  EATOM  =     24680.42500649
  ---------------------------------------------------
  free energy    TOTEN  =     34501.15710399 eV

  energy without entropy =    34501.15714578  energy(sigma->0) =    34501.15712489
  exchange ACFDT corr.  =         0.00000000  see jH, gK, PRB 81, 115126


--------------------------------------------------------------------------------------------------------




----------------------------------------- Iteration    1(   2)  ---------------------------------------


    TRIAL :  cpu time    3.4482: real time    3.4526
    CORREC:  cpu time    0.0000: real time    0.0009
    --------------------------------------------
      LOOP:  cpu time    3.4522: real time    3.4847

 eigenvalue-minimisations  :  8656
 total energy-change (2. order) :-0.2595092E+05  (-0.2521430E+05)
 number of electron     400.0000000 magnetization 
 augmentation part      400.0000000 magnetization 

 Free energy of the ion-electron system (eV)
  ---------------------------------------------------
  alpha Z        PSCENC =       370.05370877
  Ewald energy   TEWEN  =    -15509.36173309
  -Hartree energ DENC   =     -8136.00425054
  -exchange      EXHF   =         0.00000000
  -V(xc)+E(xc)   XCENC  =       254.76581122
  PAW double counting   =     20708.16285019   -20051.16882790
  entropy T*S    EENTRO =        -0.00000000
  eigenvalues    EBANDS =      6233.36679216
  atomic energy  EATOM  =     24680.42500649
  ---------------------------------------------------
  free energy    TOTEN  =      8550.23935730 eV

  energy without entropy =     8550.23935730  energy(sigma->0) =     8550.23935730
  exchange ACFDT corr.  =         0.00000000  see jH, gK, PRB 81, 115126


--------------------------------------------------------------------------------------------------------




----------------------------------------- Iteration    1(   3)  ---------------------------------------


    TRIAL :  cpu time    3.5402: real time    3.5434
    CORREC:  cpu time    0.0000: real time    0.0022
    --------------------------------------------
      LOOP:  cpu time    3.5442: real time    3.5680

 eigenvalue-minimisations  :  8992
 total energy-change (2. order) :-0.6769958E+04  (-0.6665389E+04)
 number of electron     400.0000000 magnetization 
 augmentation part      400.0000000 magnetization 

 Free energy of the ion-electron system (eV)
  ---------------------------------------------------
  alpha Z        PSCENC =       370.05370877
  Ewald energy   TEWEN  =    -15509.36173309
  -Hartree energ DENC   =     -8136.00425054
  -exchange      EXHF   =         0.00000000
  -V(xc)+E(xc)   XCENC  =       254.76581122
  PAW double counting   =     20708.16285019   -20051.16882790
  entropy T*S    EENTRO =        -0.00004179
  eigenvalues    EBANDS =      -536.59151591
  atomic energy  EATOM  =     24680.42500649
  ---------------------------------------------------
  free energy    TOTEN  =      1780.28100743 eV

  energy without entropy =     1780.28104923  energy(sigma->0) =     1780.28102833
  exchange ACFDT corr.  =         0.00000000  see jH, gK, PRB 81, 115126


--------------------------------------------------------------------------------------------------------




----------------------------------------- Iteration    1(   4)  ---------------------------------------


    TRIAL :  cpu time    3.8122: real time    3.8155
    CORREC:  cpu time    0.0000: real time    0.0018
    --------------------------------------------
      LOOP:  cpu time    3.8162: real time    3.8376

 eigenvalue-minimisations  :  9888
 total energy-change (2. order) :-0.1342960E+04  (-0.1286642E+04)
 number of electron     400.0000000 magnetization 
 augmentation part      400.0000000 magnetization 

 Free energy of the ion-electron system (eV)
  ---------------------------------------------------
  alpha Z        PSCENC =       370.05370877
  Ewald energy   TEWEN  =    -15509.36173309
  -Hartree energ DENC   =     -8136.00425054
  -exchange      EXHF   =         0.00000000
  -V(xc)+E(xc)   XCENC  =       254.76581122
  PAW double counting   =     20708.16285019   -20051.16882790
  entropy T*S    EENTRO =        -0.00004179
  eigenvalues    EBANDS =     -1879.55135365
  atomic energy  EATOM  =     24680.42500649
  ---------------------------------------------------
  free energy    TOTEN  =       437.32116970 eV

  energy without entropy =      437.32121149  energy(sigma->0) =      437.32119060
  exchange ACFDT corr.  =         0.00000000  see jH, gK, PRB 81, 115126


--------------------------------------------------------------------------------------------------------




----------------------------------------- Iteration    1(   5)  ---------------------------------------


    TRIAL :  cpu time    3.6522: real time    3.6520
    CORREC:  cpu time    0.0000: real time    0.0017
    CHARGE:  cpu time    0.8761: real time    0.8742
    --------------------------------------------
      LOOP:  cpu time    4.5283: real time    4.5927

 eigenvalue-minimisations  :  9296
 total energy-change (2. order) :-0.1625275E+03  (-0.1597912E+03)
 number of electron     400.0000000 magnetization 
 augmentation part       12.9756159 magnetization 

 Free energy of the ion-electron system (eV)
  ---------------------------------------------------
  alpha Z        PSCENC =       370.05370877
  Ewald energy   TEWEN  =    -15509.36173309
  -Hartree energ DENC   =     -8136.00425054
  -exchange      EXHF   =         0.00000000
  -V(xc)+E(xc)   XCENC  =       254.76581122
  PAW double counting   =     20708.16285019   -20051.16882790
  entropy T*S    EENTRO =         0.00000000
  eigenvalues    EBANDS =     -2042.07887148
  atomic energy  EATOM  =     24680.42500649
  ---------------------------------------------------
  free energy    TOTEN  =       274.79369366 eV

  energy without entropy =      274.79369366  energy(sigma->0) =      274.79369366
  exchange ACFDT corr.  =         0.00000000  see jH, gK, PRB 81, 115126


--------------------------------------------------------------------------------------------------------




----------------------------------------- Iteration    1(   6)  ---------------------------------------


    POTLOK:  cpu time    0.2600: real time    0.2582
    SETDIJ:  cpu time    0.6440: real time    0.6448
    TRIAL :  cpu time  295.5465: real time  295.7570
    CORREC:  cpu time  295.1704: real time  295.3532
    CHARGE:  cpu time    0.8721: real time    0.8728
    --------------------------------------------
      LOOP:  cpu time  592.4930: real time  592.8955

 eigenvalue-minimisations  :     0
 total energy-change (2. order) :-0.7236653E+03  (-0.1878436E+02)
 number of electron     400.0000000 magnetization 
 augmentation part       13.3196537 magnetization 

 Free energy of the ion-electron system (eV)
  ---------------------------------------------------
  alpha Z        PSCENC =       370.05370877
  Ewald energy   TEWEN  =    -15509.36173309
  -Hartree energ DENC   =     -8208.40722650
  -exchange      EXHF   =       753.52525622
  -V(xc)+E(xc)   XCENC  =       273.92580850
  PAW double counting   =     56231.69212454   -55563.37939587
  entropy T*S    EENTRO =         0.00000000
  eigenvalues    EBANDS =     -3477.34512990
  atomic energy  EATOM  =     24680.42500649
  ---------------------------------------------------
  free energy    TOTEN  =      -448.87158085 eV

  energy without entropy =     -448.87158085  energy(sigma->0) =     -448.87158085
  exchange ACFDT corr.  =         0.00000000  see jH, gK, PRB 81, 115126


--------------------------------------------------------------------------------------------------------




----------------------------------------- Iteration    1(   7)  ---------------------------------------


    POTLOK:  cpu time    0.2600: real time    0.2589
    SETDIJ:  cpu time    0.6440: real time    0.6457
    TRIAL :  cpu time  296.1025: real time  296.2879
    CORREC:  cpu time  295.0424: real time  295.2259
    CHARGE:  cpu time    0.8761: real time    0.8752
    --------------------------------------------
      LOOP:  cpu time  592.9251: real time  593.3035

 eigenvalue-minimisations  :     0
 total energy-change (2. order) :-0.1872257E+02  (-0.7686334E+01)
 number of electron     400.0000000 magnetization 
 augmentation part        9.8475689 magnetization 

 Free energy of the ion-electron system (eV)
  ---------------------------------------------------
  alpha Z        PSCENC =       370.05370877
  Ewald energy   TEWEN  =    -15509.36173309
  -Hartree energ DENC   =     -8482.42954928
  -exchange      EXHF   =       762.99765963
  -V(xc)+E(xc)   XCENC  =       280.50788617
  PAW double counting   =     50020.71914561   -49349.72091965
  entropy T*S    EENTRO =         0.00000000
  eigenvalues    EBANDS =     -3240.78535069
  atomic energy  EATOM  =     24680.42500649
  ---------------------------------------------------
  free energy    TOTEN  =      -467.59414604 eV

  energy without entropy =     -467.59414604  energy(sigma->0) =     -467.59414604
  exchange ACFDT corr.  =         0.00000000  see jH, gK, PRB 81, 115126


--------------------------------------------------------------------------------------------------------




----------------------------------------- Iteration    1(   8)  ---------------------------------------


    POTLOK:  cpu time    0.2600: real time    0.2607
    SETDIJ:  cpu time    0.6360: real time    0.6349
    TRIAL :  cpu time  296.0865: real time  296.2882
    CORREC:  cpu time  294.8224: real time  295.0099
    CHARGE:  cpu time    0.8721: real time    0.8730
    --------------------------------------------
      LOOP:  cpu time  592.6810: real time  593.0866

 eigenvalue-minimisations  :     0
 total energy-change (2. order) :-0.7686040E+01  (-0.2789455E+01)
 number of electron     400.0000000 magnetization 
 augmentation part        9.5291288 magnetization 

 Free energy of the ion-electron system (eV)
  ---------------------------------------------------
  alpha Z        PSCENC =       370.05370877
  Ewald energy   TEWEN  =    -15509.36173309
  -Hartree energ DENC   =     -8406.85145506
  -exchange      EXHF   =       766.10733726
  -V(xc)+E(xc)   XCENC  =       278.63279204
  PAW double counting   =     43794.92260161   -43131.69256138
  entropy T*S    EENTRO =        -0.00000000
  eigenvalues    EBANDS =     -3317.51588221
  atomic energy  EATOM  =     24680.42500649
  ---------------------------------------------------
  free energy    TOTEN  =      -475.28018559 eV

  energy without entropy =     -475.28018559  energy(sigma->0) =     -475.28018559
  exchange ACFDT corr.  =         0.00000000  see jH, gK, PRB 81, 115126


--------------------------------------------------------------------------------------------------------




----------------------------------------- Iteration    1(   9)  ---------------------------------------


    POTLOK:  cpu time    0.2560: real time    0.2563
    SETDIJ:  cpu time    0.6480: real time    0.6474
    TRIAL :  cpu time  296.1385: real time  296.3457
    CORREC:  cpu time  294.8824: real time  295.0666
    CHARGE:  cpu time    0.8761: real time    0.8756
    --------------------------------------------
      LOOP:  cpu time  592.8010: real time  593.2017

 eigenvalue-minimisations  :     0
 total energy-change (2. order) :-0.2789437E+01  (-0.8879884E+00)
 number of electron     400.0000000 magnetization 
 augmentation part        9.6091867 magnetization 

 Free energy of the ion-electron system (eV)
  ---------------------------------------------------
  alpha Z        PSCENC =       370.05370877
  Ewald energy   TEWEN  =    -15509.36173309
  -Hartree energ DENC   =     -8454.35467736
  -exchange      EXHF   =       769.24923371
  -V(xc)+E(xc)   XCENC  =       280.17734741
  PAW double counting   =     38420.53284080   -37758.37727368
  entropy T*S    EENTRO =         0.00000000
  eigenvalues    EBANDS =     -3276.41407527
  atomic energy  EATOM  =     24680.42500649
  ---------------------------------------------------
  free energy    TOTEN  =      -478.06962222 eV

  energy without entropy =     -478.06962222  energy(sigma->0) =     -478.06962222
  exchange ACFDT corr.  =         0.00000000  see jH, gK, PRB 81, 115126


--------------------------------------------------------------------------------------------------------




----------------------------------------- Iteration    1(  10)  ---------------------------------------


    POTLOK:  cpu time    0.2560: real time    0.2589
    SETDIJ:  cpu time    0.6400: real time    0.6387
    TRIAL :  cpu time  296.0145: real time  296.2016
    CORREC:  cpu time  294.9984: real time  295.1804
    CHARGE:  cpu time    0.8721: real time    0.8737
    --------------------------------------------
      LOOP:  cpu time  592.7850: real time  593.1714

 eigenvalue-minimisations  :     0
 total energy-change (2. order) :-0.8870262E+00  (-0.2235524E+00)
 number of electron     400.0000000 magnetization 
 augmentation part        9.2514180 magnetization 

 Free energy of the ion-electron system (eV)
  ---------------------------------------------------
  alpha Z        PSCENC =       370.05370877
  Ewald energy   TEWEN  =    -15509.36173309
  -Hartree energ DENC   =     -8456.19931433
  -exchange      EXHF   =       768.70386552
  -V(xc)+E(xc)   XCENC  =       279.46771174
  PAW double counting   =     35870.01538436   -35206.50970950
  entropy T*S    EENTRO =         0.00000000
  eigenvalues    EBANDS =     -3275.55156836
  atomic energy  EATOM  =     24680.42500649
  ---------------------------------------------------
  free energy    TOTEN  =      -478.95664841 eV

  energy without entropy =     -478.95664841  energy(sigma->0) =     -478.95664841
  exchange ACFDT corr.  =         0.00000000  see jH, gK, PRB 81, 115126


--------------------------------------------------------------------------------------------------------




----------------------------------------- Iteration    1(  11)  ---------------------------------------


    POTLOK:  cpu time    0.2560: real time    0.2590
    SETDIJ:  cpu time    0.6440: real time    0.6456
    TRIAL :  cpu time  295.9785: real time  298.4826
    CORREC:  cpu time  294.7024: real time  294.8901
    CHARGE:  cpu time    0.8681: real time    0.8724
    --------------------------------------------
      LOOP:  cpu time  592.4570: real time  595.1593

 eigenvalue-minimisations  :     0
 total energy-change (2. order) :-0.2235315E+00  (-0.1124130E+00)
 number of electron     400.0000000 magnetization 
 augmentation part        9.3531279 magnetization 

 Free energy of the ion-electron system (eV)
  ---------------------------------------------------
  alpha Z        PSCENC =       370.05370877
  Ewald energy   TEWEN  =    -15509.36173309
  -Hartree energ DENC   =     -8428.66620851
  -exchange      EXHF   =       768.12525702
  -V(xc)+E(xc)   XCENC  =       278.53406592
  PAW double counting   =     35263.36737081   -34600.18681555
  entropy T*S    EENTRO =         0.00000000
  eigenvalues    EBANDS =     -3301.47083181
  atomic energy  EATOM  =     24680.42500649
  ---------------------------------------------------
  free energy    TOTEN  =      -479.18017994 eV

  energy without entropy =     -479.18017994  energy(sigma->0) =     -479.18017994
  exchange ACFDT corr.  =         0.00000000  see jH, gK, PRB 81, 115126


--------------------------------------------------------------------------------------------------------




----------------------------------------- Iteration    1(  12)  ---------------------------------------


    POTLOK:  cpu time    0.2520: real time    0.2538
    SETDIJ:  cpu time    0.5560: real time    0.5533
    TRIAL :  cpu time  296.0385: real time  296.2478
    CORREC:  cpu time  294.9544: real time  295.1370
    CHARGE:  cpu time    0.8721: real time    0.8730
    --------------------------------------------
      LOOP:  cpu time  592.6770: real time  593.1752

 eigenvalue-minimisations  :     0
 total energy-change (2. order) :-0.1123066E+00  (-0.3512437E-01)
 number of electron     400.0000000 magnetization 
 augmentation part        9.3625909 magnetization 

 Free energy of the ion-electron system (eV)
  ---------------------------------------------------
  alpha Z        PSCENC =       370.05370877
  Ewald energy   TEWEN  =    -15509.36173309
  -Hartree energ DENC   =     -8447.13177405
  -exchange      EXHF   =       768.66981971
  -V(xc)+E(xc)   XCENC  =       279.01233212
  PAW double counting   =     35152.94956064   -34489.26952495
  entropy T*S    EENTRO =         0.00000000
  eigenvalues    EBANDS =     -3284.63988219
  atomic energy  EATOM  =     24680.42500649
  ---------------------------------------------------
  free energy    TOTEN  =      -479.29248656 eV

  energy without entropy =     -479.29248656  energy(sigma->0) =     -479.29248656
  exchange ACFDT corr.  =         0.00000000  see jH, gK, PRB 81, 115126


--------------------------------------------------------------------------------------------------------




----------------------------------------- Iteration    1(  13)  ---------------------------------------


    POTLOK:  cpu time    0.2600: real time    0.2586
    SETDIJ:  cpu time    0.6200: real time    0.6220
    TRIAL :  cpu time  296.0185: real time  296.2035
    CORREC:  cpu time  295.0064: real time  295.1900
    CHARGE:  cpu time    0.8761: real time    0.8737
    --------------------------------------------
      LOOP:  cpu time  592.7810: real time  593.1814

 eigenvalue-minimisations  :     0
 total energy-change (2. order) :-0.3506564E-01  (-0.1021920E-01)
 number of electron     400.0000000 magnetization 
 augmentation part        9.3415941 magnetization 

 Free energy of the ion-electron system (eV)
  ---------------------------------------------------
  alpha Z        PSCENC =       370.05370877
  Ewald energy   TEWEN  =    -15509.36173309
  -Hartree energ DENC   =     -8447.28228718
  -exchange      EXHF   =       768.76209432
  -V(xc)+E(xc)   XCENC  =       279.07680582
  PAW double counting   =     35355.13757270   -34691.45485953
  entropy T*S    EENTRO =         0.00000000
  eigenvalues    EBANDS =     -3284.68386049
  atomic energy  EATOM  =     24680.42500649
  ---------------------------------------------------
  free energy    TOTEN  =      -479.32755220 eV

  energy without entropy =     -479.32755220  energy(sigma->0) =     -479.32755220
  exchange ACFDT corr.  =         0.00000000  see jH, gK, PRB 81, 115126


--------------------------------------------------------------------------------------------------------




----------------------------------------- Iteration    1(  14)  ---------------------------------------


    POTLOK:  cpu time    0.2640: real time    0.2624
    SETDIJ:  cpu time    0.6400: real time    0.6437
    TRIAL :  cpu time  296.1385: real time  296.3493
    CORREC:  cpu time  294.8944: real time  295.0817
    CHARGE:  cpu time    0.8721: real time    0.8749
    --------------------------------------------
      LOOP:  cpu time  592.8130: real time  593.2228

 eigenvalue-minimisations  :     0
 total energy-change (2. order) :-0.1021356E-01  (-0.2853044E-02)
 number of electron     400.0000000 magnetization 
 augmentation part        9.3733959 magnetization 

 Free energy of the ion-electron system (eV)
  ---------------------------------------------------
  alpha Z        PSCENC =       370.05370877
  Ewald energy   TEWEN  =    -15509.36173309
  -Hartree energ DENC   =     -8444.47086077
  -exchange      EXHF   =       768.69261084
[...]


 FORCES acting on ions:
    Electron-Ion                     Ewald-Force                    Non-Local-Force
 -----------------------------------------------------------------------------------------------
   0.879E+02 0.519E-01 0.328E+02   -.953E+02 -.609E-01 -.357E+02   0.682E+01 0.816E-02 0.271E+01
   0.853E+02 0.604E-01 0.412E+02   -.925E+02 -.684E-01 -.448E+02   0.662E+01 0.733E-02 0.324E+01
   0.853E+02 0.604E-01 0.412E+02   -.925E+02 -.684E-01 -.448E+02   0.662E+01 0.733E-02 0.324E+01
   0.879E+02 0.519E-01 0.328E+02   -.953E+02 -.609E-01 -.357E+02   0.682E+01 0.816E-02 0.271E+01
   0.853E+02 0.604E-01 0.412E+02   -.925E+02 -.684E-01 -.448E+02   0.662E+01 0.733E-02 0.324E+01
   0.879E+02 0.519E-01 0.328E+02   -.953E+02 -.609E-01 -.357E+02   0.682E+01 0.816E-02 0.271E+01
   0.879E+02 0.519E-01 0.328E+02   -.953E+02 -.609E-01 -.357E+02   0.682E+01 0.816E-02 0.271E+01
   0.853E+02 0.604E-01 0.412E+02   -.925E+02 -.684E-01 -.448E+02   0.662E+01 0.733E-02 0.324E+01
   -.376E+02 -.111E+00 -.170E+02   0.367E+02 0.109E+00 0.165E+02   0.131E+01 0.254E-02 0.673E+00
   -.384E+02 -.790E-01 -.178E+02   0.376E+02 0.756E-01 0.170E+02   0.119E+01 0.332E-02 0.978E+00
   -.384E+02 -.790E-01 -.178E+02   0.376E+02 0.756E-01 0.170E+02   0.119E+01 0.332E-02 0.978E+00
   -.376E+02 -.111E+00 -.170E+02   0.367E+02 0.109E+00 0.165E+02   0.131E+01 0.254E-02 0.673E+00
   -.384E+02 -.790E-01 -.178E+02   0.376E+02 0.756E-01 0.170E+02   0.119E+01 0.332E-02 0.978E+00
   -.376E+02 -.111E+00 -.170E+02   0.367E+02 0.109E+00 0.165E+02   0.131E+01 0.254E-02 0.673E+00
   -.376E+02 -.111E+00 -.170E+02   0.367E+02 0.109E+00 0.165E+02   0.131E+01 0.254E-02 0.673E+00
   -.384E+02 -.790E-01 -.178E+02   0.376E+02 0.756E-01 0.170E+02   0.119E+01 0.332E-02 0.978E+00
   0.740E+01 0.450E-01 0.520E+02   -.731E+01 -.505E-01 -.575E+02   -.969E-01 0.575E-02 0.564E+01
   0.385E+01 0.500E-01 0.529E+02   -.334E+01 -.554E-01 -.584E+02   -.524E+00 0.562E-02 0.562E+01
   0.385E+01 0.500E-01 0.529E+02   -.334E+01 -.554E-01 -.584E+02   -.524E+00 0.562E-02 0.562E+01
   0.740E+01 0.450E-01 0.520E+02   -.731E+01 -.505E-01 -.575E+02   -.969E-01 0.575E-02 0.564E+01
   0.385E+01 0.500E-01 0.529E+02   -.334E+01 -.554E-01 -.584E+02   -.524E+00 0.562E-02 0.562E+01
   0.740E+01 0.450E-01 0.520E+02   -.731E+01 -.505E-01 -.575E+02   -.969E-01 0.575E-02 0.564E+01
   0.740E+01 0.450E-01 0.520E+02   -.731E+01 -.505E-01 -.575E+02   -.969E-01 0.575E-02 0.564E+01
   0.385E+01 0.500E-01 0.529E+02   -.334E+01 -.554E-01 -.584E+02   -.524E+00 0.562E-02 0.562E+01
   0.302E+02 -.394E+02 -.117E+02   -.329E+02 0.438E+02 0.134E+02   0.278E+01 -.458E+01 -.173E+01
   0.311E+02 -.395E+02 -.880E+01   -.339E+02 0.439E+02 0.103E+02   0.289E+01 -.459E+01 -.152E+01
   0.311E+02 -.395E+02 -.880E+01   -.339E+02 0.439E+02 0.103E+02   0.289E+01 -.459E+01 -.152E+01
   0.302E+02 -.394E+02 -.117E+02   -.329E+02 0.438E+02 0.134E+02   0.278E+01 -.458E+01 -.173E+01
   0.311E+02 -.395E+02 -.880E+01   -.339E+02 0.439E+02 0.103E+02   0.289E+01 -.459E+01 -.152E+01
   0.302E+02 -.394E+02 -.117E+02   -.329E+02 0.438E+02 0.134E+02   0.278E+01 -.458E+01 -.173E+01
   0.302E+02 -.394E+02 -.117E+02   -.329E+02 0.438E+02 0.134E+02   0.278E+01 -.458E+01 -.173E+01
   0.311E+02 -.395E+02 -.880E+01   -.339E+02 0.439E+02 0.103E+02   0.289E+01 -.459E+01 -.152E+01
   0.301E+02 0.394E+02 -.118E+02   -.328E+02 -.438E+02 0.135E+02   0.278E+01 0.458E+01 -.174E+01
   0.310E+02 0.395E+02 -.888E+01   -.338E+02 -.439E+02 0.104E+02   0.288E+01 0.459E+01 -.153E+01
   0.310E+02 0.395E+02 -.888E+01   -.338E+02 -.439E+02 0.104E+02   0.288E+01 0.459E+01 -.153E+01
   0.301E+02 0.394E+02 -.118E+02   -.328E+02 -.438E+02 0.135E+02   0.278E+01 0.458E+01 -.174E+01
   0.310E+02 0.395E+02 -.888E+01   -.338E+02 -.439E+02 0.104E+02   0.288E+01 0.459E+01 -.153E+01
   0.301E+02 0.394E+02 -.118E+02   -.328E+02 -.438E+02 0.135E+02   0.278E+01 0.458E+01 -.174E+01
   0.301E+02 0.394E+02 -.118E+02   -.328E+02 -.438E+02 0.135E+02   0.278E+01 0.458E+01 -.174E+01
   0.310E+02 0.395E+02 -.888E+01   -.338E+02 -.439E+02 0.104E+02   0.288E+01 0.459E+01 -.153E+01
   -.328E+02 -.486E+02 0.183E+02   0.361E+02 0.538E+02 -.202E+02   -.348E+01 -.547E+01 0.199E+01
   -.344E+02 -.485E+02 0.166E+02   0.379E+02 0.537E+02 -.182E+02   -.360E+01 -.547E+01 0.174E+01
   -.344E+02 -.485E+02 0.166E+02   0.379E+02 0.537E+02 -.182E+02   -.360E+01 -.547E+01 0.174E+01
   -.328E+02 -.486E+02 0.183E+02   0.361E+02 0.538E+02 -.202E+02   -.348E+01 -.547E+01 0.199E+01
   -.344E+02 -.485E+02 0.166E+02   0.379E+02 0.537E+02 -.182E+02   -.360E+01 -.547E+01 0.174E+01
   -.328E+02 -.486E+02 0.183E+02   0.361E+02 0.538E+02 -.202E+02   -.348E+01 -.547E+01 0.199E+01
   -.328E+02 -.486E+02 0.183E+02   0.361E+02 0.538E+02 -.202E+02   -.348E+01 -.547E+01 0.199E+01
   -.344E+02 -.485E+02 0.166E+02   0.379E+02 0.537E+02 -.182E+02   -.360E+01 -.547E+01 0.174E+01
   -.328E+02 0.486E+02 0.182E+02   0.362E+02 -.538E+02 -.201E+02   -.348E+01 0.547E+01 0.198E+01
   -.345E+02 0.485E+02 0.164E+02   0.379E+02 -.537E+02 -.181E+02   -.360E+01 0.547E+01 0.172E+01
   -.345E+02 0.485E+02 0.164E+02   0.379E+02 -.537E+02 -.181E+02   -.360E+01 0.547E+01 0.172E+01
   -.328E+02 0.486E+02 0.182E+02   0.362E+02 -.538E+02 -.201E+02   -.348E+01 0.547E+01 0.198E+01
   -.345E+02 0.485E+02 0.164E+02   0.379E+02 -.537E+02 -.181E+02   -.360E+01 0.547E+01 0.172E+01
   -.328E+02 0.486E+02 0.182E+02   0.362E+02 -.538E+02 -.201E+02   -.348E+01 0.547E+01 0.198E+01
   -.328E+02 0.486E+02 0.182E+02   0.362E+02 -.538E+02 -.201E+02   -.348E+01 0.547E+01 0.198E+01
   -.345E+02 0.485E+02 0.164E+02   0.379E+02 -.537E+02 -.181E+02   -.360E+01 0.547E+01 0.172E+01
   0.145E+01 -.693E-01 -.639E+02   -.121E+01 0.755E-01 0.704E+02   -.292E+00 -.648E-02 -.686E+01
   0.593E+01 -.778E-01 -.654E+02   -.623E+01 0.860E-01 0.720E+02   0.275E+00 -.852E-02 -.698E+01
   0.593E+01 -.778E-01 -.654E+02   -.623E+01 0.860E-01 0.720E+02   0.275E+00 -.852E-02 -.698E+01
   0.145E+01 -.693E-01 -.639E+02   -.121E+01 0.755E-01 0.704E+02   -.292E+00 -.648E-02 -.686E+01
   0.593E+01 -.778E-01 -.654E+02   -.623E+01 0.860E-01 0.720E+02   0.275E+00 -.852E-02 -.698E+01
   0.145E+01 -.693E-01 -.639E+02   -.121E+01 0.755E-01 0.704E+02   -.292E+00 -.648E-02 -.686E+01
   0.145E+01 -.693E-01 -.639E+02   -.121E+01 0.755E-01 0.704E+02   -.292E+00 -.648E-02 -.686E+01
   0.593E+01 -.778E-01 -.654E+02   -.623E+01 0.860E-01 0.720E+02   0.275E+00 -.852E-02 -.698E+01
   -.315E+02 0.239E+01 -.117E+02   0.301E+02 -.238E+01 0.114E+02   0.125E+01 -.146E-01 0.326E+00
   -.315E+02 -.226E+01 -.117E+02   0.301E+02 0.223E+01 0.114E+02   0.125E+01 0.258E-01 0.326E+00
   -.315E+02 -.226E+01 -.117E+02   0.301E+02 0.223E+01 0.114E+02   0.125E+01 0.258E-01 0.326E+00
   -.315E+02 0.239E+01 -.117E+02   0.301E+02 -.238E+01 0.114E+02   0.125E+01 -.146E-01 0.326E+00
   -.315E+02 -.226E+01 -.117E+02   0.301E+02 0.223E+01 0.114E+02   0.125E+01 0.258E-01 0.326E+00
   -.315E+02 0.239E+01 -.117E+02   0.301E+02 -.238E+01 0.114E+02   0.125E+01 -.146E-01 0.326E+00
   -.315E+02 0.239E+01 -.117E+02   0.301E+02 -.238E+01 0.114E+02   0.125E+01 -.146E-01 0.326E+00
   -.315E+02 -.226E+01 -.117E+02   0.301E+02 0.223E+01 0.114E+02   0.125E+01 0.258E-01 0.326E+00
   -.173E+02 -.101E+01 0.561E+01   0.174E+02 0.104E+01 -.554E+01   -.108E+00 -.235E-01 -.761E-01
   -.173E+02 0.109E+01 0.560E+01   0.175E+02 -.112E+01 -.554E+01   -.109E+00 0.246E-01 -.761E-01
   -.173E+02 0.109E+01 0.560E+01   0.175E+02 -.112E+01 -.554E+01   -.109E+00 0.246E-01 -.761E-01
   -.173E+02 -.101E+01 0.561E+01   0.174E+02 0.104E+01 -.554E+01   -.108E+00 -.235E-01 -.761E-01
   -.173E+02 0.109E+01 0.560E+01   0.175E+02 -.112E+01 -.554E+01   -.109E+00 0.246E-01 -.761E-01
   -.173E+02 -.101E+01 0.561E+01   0.174E+02 0.104E+01 -.554E+01   -.108E+00 -.235E-01 -.761E-01
   -.173E+02 -.101E+01 0.561E+01   0.174E+02 0.104E+01 -.554E+01   -.108E+00 -.235E-01 -.761E-01
   -.173E+02 0.109E+01 0.560E+01   0.175E+02 -.112E+01 -.554E+01   -.109E+00 0.246E-01 -.761E-01
   -.215E+02 -.539E-01 -.149E+02   0.215E+02 0.553E-01 0.154E+02   0.491E-01 -.107E-02 -.532E+00
   -.704E+01 -.541E-01 -.171E+02   0.685E+01 0.556E-01 0.178E+02   0.200E+00 -.108E-02 -.639E+00
   -.704E+01 -.541E-01 -.171E+02   0.685E+01 0.556E-01 0.178E+02   0.200E+00 -.108E-02 -.639E+00
   -.215E+02 -.539E-01 -.149E+02   0.215E+02 0.553E-01 0.154E+02   0.491E-01 -.107E-02 -.532E+00
   -.704E+01 -.541E-01 -.171E+02   0.685E+01 0.556E-01 0.178E+02   0.200E+00 -.108E-02 -.639E+00
   -.215E+02 -.539E-01 -.149E+02   0.215E+02 0.553E-01 0.154E+02   0.491E-01 -.107E-02 -.532E+00
   -.215E+02 -.539E-01 -.149E+02   0.215E+02 0.553E-01 0.154E+02   0.491E-01 -.107E-02 -.532E+00
   -.704E+01 -.541E-01 -.171E+02   0.685E+01 0.556E-01 0.178E+02   0.200E+00 -.108E-02 -.639E+00
   0.380E+01 0.261E+00 -.276E+01   -.324E+01 -.205E+00 0.234E+01   -.561E+00 -.408E-01 0.432E+00
   0.380E+01 -.241E+00 -.278E+01   -.324E+01 0.186E+00 0.236E+01   -.561E+00 0.395E-01 0.432E+00
   0.380E+01 -.241E+00 -.278E+01   -.324E+01 0.186E+00 0.236E+01   -.561E+00 0.395E-01 0.432E+00
   0.380E+01 0.261E+00 -.276E+01   -.324E+01 -.205E+00 0.234E+01   -.561E+00 -.408E-01 0.432E+00
   0.380E+01 -.241E+00 -.278E+01   -.324E+01 0.186E+00 0.236E+01   -.561E+00 0.395E-01 0.432E+00
   0.380E+01 0.261E+00 -.276E+01   -.324E+01 -.205E+00 0.234E+01   -.561E+00 -.408E-01 0.432E+00
   0.380E+01 0.261E+00 -.276E+01   -.324E+01 -.205E+00 0.234E+01   -.561E+00 -.408E-01 0.432E+00
   0.380E+01 -.241E+00 -.278E+01   -.324E+01 0.186E+00 0.236E+01   -.561E+00 0.395E-01 0.432E+00
 -----------------------------------------------------------------------------------------------
   -.594E+02 -.118E+00 -.261E+02   -.133E-12 0.777E-13 -.153E-12   0.556E+02 0.110E+00 0.245E+02
 
 
 POSITION                                       TOTAL-FORCE (eV/Angst)
 -----------------------------------------------------------------------------------
      2.51246      3.11343      2.94391        -0.259428     -0.000441     -0.108097
      8.79551      3.11481      3.01542        -0.249377     -0.000398     -0.128208
      2.50769      9.34262      2.94595        -0.249377     -0.000398     -0.128208
      8.80148      9.34316      3.01264        -0.259428     -0.000441     -0.108097
      2.57680      3.11389      9.32003        -0.249377     -0.000398     -0.128208
      8.87058      3.11443      9.38672        -0.259428     -0.000441     -0.108097
      2.58276      9.34224      9.31725        -0.259428     -0.000441     -0.108097
      8.86581      9.34362      9.38876        -0.249377     -0.000398     -0.128208
      3.89297      3.11491      3.48157         0.483197      0.000154      0.187454
     10.13264      3.11613      3.65397         0.461144      0.000178      0.212966
      3.84482      9.34394      3.58450         0.461144      0.000178      0.212966
     10.18198      9.34463      3.55029         0.483197      0.000154      0.187454
      3.91393      3.11521      9.95858         0.461144      0.000178      0.212966
     10.25109      3.11591      9.92438         0.483197      0.000154      0.187454
      3.96327      9.34372      9.85490         0.483197      0.000154      0.187454
     10.20295      9.34494     10.02731         0.461144      0.000178      0.212966
      2.56068      3.11235      1.84497        -0.005513      0.000474      0.417564
      8.92657      3.11373      1.92336        -0.039881      0.000436      0.421666
      2.63875      9.34155      1.85389        -0.039881      0.000436      0.421666
      8.84970      9.34207      1.91370        -0.005513      0.000474      0.417564
      2.70785      3.11282      8.22797        -0.039881      0.000436      0.421666
      8.91881      3.11335      8.28778        -0.005513      0.000474      0.417564
      2.63099      9.34116      8.21831        -0.005513      0.000474      0.417564
      8.99687      9.34255      8.29669        -0.039881      0.000436      0.421666
      1.99139      4.01552      3.29624         0.209285     -0.324601     -0.120637
      8.25120      4.01750      3.32935         0.217135     -0.328719     -0.108899
      1.96338     10.24531      3.25988         0.217135     -0.328719     -0.108899
      8.28041     10.24525      3.36497         0.209285     -0.324601     -0.120637
      2.03249      4.01659      9.63397         0.217135     -0.328719     -0.108899
      8.34952      4.01652      9.73905         0.209285     -0.324601     -0.120637
      2.06170     10.24434      9.66958         0.209285     -0.324601     -0.120637
      8.32151     10.24632      9.70269         0.217135     -0.328719     -0.108899
      1.99274      2.21126      3.29805         0.208691      0.325051     -0.121446
      8.25219      2.21217      3.33124         0.216678      0.329083     -0.109751
      1.96437      8.43998      3.26177         0.216678      0.329083     -0.109751
      8.28175      8.44098      3.36678         0.208691      0.325051     -0.121446
      2.03348      2.21125      9.63586         0.216678      0.329083     -0.109751
      8.35086      2.21226      9.74086         0.208691      0.325051     -0.121446
      2.06304      8.44007      9.67139         0.208691      0.325051     -0.121446
      8.32249      8.44098      9.70458         0.216678      0.329083     -0.109751
      4.42806      3.96022      3.17365        -0.324910     -0.495082      0.167490
     10.68790      3.96198      3.38419        -0.335901     -0.497740      0.146102
      4.40008     10.18979      3.31472        -0.335901     -0.497740      0.146102
     10.71708     10.18995      3.24238        -0.324910     -0.495082      0.167490
      4.46918      3.96106      9.68880        -0.335901     -0.497740      0.146102
     10.78619      3.96123      9.61646        -0.324910     -0.495082      0.167490
      4.49836     10.18904      9.54699        -0.324910     -0.495082      0.167490
     10.75820     10.19079      9.75753        -0.335901     -0.497740      0.146102
      4.42902      2.26955      3.17529        -0.325503      0.495390      0.166305
     10.68843      2.26995      3.38620        -0.336268      0.498193      0.144710
      4.40061      8.49776      3.31673        -0.336268      0.498193      0.144710
     10.71803      8.49927      3.24402        -0.325503      0.495390      0.166305
      4.46972      2.26903      9.69081        -0.336268      0.498193      0.144710
     10.78714      2.27055      9.61810        -0.325503      0.495390      0.166305
      4.49932      8.49836      9.54863        -0.325503      0.495390      0.166305
     10.75874      8.49876      9.75954        -0.336268      0.498193      0.144710
      3.92973      3.11589      4.52521        -0.068345     -0.000571     -0.615555
     10.08428      3.11739      4.69351        -0.011007     -0.000792     -0.606774
      3.79646      9.34520      4.62404        -0.011007     -0.000792     -0.606774
     10.21874      9.34562      4.59393        -0.068345     -0.000571     -0.615555
      3.86557      3.11647     10.99813        -0.011007     -0.000792     -0.606774
     10.28785      3.11690     10.96802        -0.068345     -0.000571     -0.615555
      4.00003      9.34471     10.89855        -0.068345     -0.000571     -0.615555
     10.15459      9.34620     11.06685        -0.011007     -0.000792     -0.606774
      6.01055      6.22299      6.29599         0.011634     -0.003622      0.010101
     12.29900      6.23715      6.36512         0.011623      0.003225      0.010122
      6.00998      0.00742      6.29639         0.011623      0.003225      0.010122
     12.29957     12.45272      6.36471         0.011634     -0.003622      0.010101
      6.08029      6.23624     12.66973         0.011623      0.003225      0.010122
     12.36868      6.22399     12.73879         0.011634     -0.003622      0.010101
      6.08086     12.45180     12.66932         0.011634     -0.003622      0.010101
     12.36811      0.00843     12.73920         0.011623      0.003225      0.010122
      5.75280      6.24321      3.09092         0.044935      0.001229     -0.015071
     12.04153      6.21684      3.16001         0.045002     -0.001675     -0.015061
      5.75371     12.44465      3.09053         0.045002     -0.001675     -0.015061
     12.04062      0.01540      3.16039         0.044935      0.001229     -0.015071
      5.82281      6.21593      9.46462         0.045002     -0.001675     -0.015061
     12.11093      6.24422      9.53373         0.044935      0.001229     -0.015071
      5.82191      0.01449      9.46500         0.044935      0.001229     -0.015071
     12.11183     12.44566      9.53334         0.045002     -0.001675     -0.015061
      5.75918      3.11498      0.20928         0.064612      0.000274     -0.003418
     11.84312      3.11595      0.28539         0.031044      0.000282      0.002412
      5.55530      9.34376      0.21592         0.031044      0.000282      0.002412
     12.04819      9.34470      0.27800         0.064612      0.000274     -0.003418
      5.62441      3.11504      6.59000         0.031044      0.000282      0.002412
     12.11730      3.11598      6.65208         0.064612      0.000274     -0.003418
      5.82948      9.34379      6.58261         0.064612      0.000274     -0.003418
     11.91343      9.34477      6.65873         0.031044      0.000282      0.002412
      2.78364      6.34541      5.90923        -0.024420      0.010504      0.033013
      9.07208      6.11393      5.97810        -0.024426     -0.010831      0.033014
      2.78426     12.34174      5.90863        -0.024426     -0.010831      0.033014
      9.07146      0.11760      5.97871        -0.024420      0.010504      0.033013
      2.85337      6.11302     12.28271        -0.024426     -0.010831      0.033014
      9.14176      6.34641     12.35204        -0.024420      0.010504      0.033013
      2.85275      0.11669     12.28332        -0.024420      0.010504      0.033013
      9.14239     12.34274     12.35144        -0.024426     -0.010831      0.033014
 -----------------------------------------------------------------------------------
    total drift:                                0.008715      0.000491     -0.001953


--------------------------------------------------------------------------------------------------------



  FREE ENERGIE OF THE ION-ELECTRON SYSTEM (eV)
  ---------------------------------------------------
  free  energy   TOTEN  =      -479.34313463 eV

  energy  without entropy=     -479.34313463  energy(sigma->0) =     -479.34313463
 


--------------------------------------------------------------------------------------------------------


    POTLOK:  cpu time    1.1561: real time    1.1555


--------------------------------------------------------------------------------------------------------


     LOOP+:  cpu time20893.1977: real time20910.8008
    4ORBIT:  cpu time    0.0000: real time    0.0000

 total amount of memory used by VASP on root node   247487. kBytes
========================================================================

   base      :      30000. kBytes
   nonl-proj :      82891. kBytes
   fftplans  :      15020. kBytes
   grid      :      12652. kBytes
   one-center:        124. kBytes
   HF        :        259. kBytes
   nonlr-proj:      28955. kBytes
   wavefun   :      77586. kBytes
 
  
  
 General timing and accounting informations for this job:
 ========================================================
  
                  Total CPU time used (sec):    20942.053
                            User time (sec):    20927.880
                          System time (sec):       14.173
                         Elapsed time (sec):    20976.370
  
                   Maximum memory used (kb):      383692.
                   Average memory used (kb):           0.
  
                          Minor page faults:       154015
                          Major page faults:            0
                 Voluntary context switches:          990
