 running on   96 total cores
 distrk:  each k-point on   96 cores,    1 groups
 distr:  one band on   24 cores,    4 groups
 using from now: INCAR     
 vasp.5.4.1 24Jun15 (build Nov 25 2015 16:39:35) complex                        
  
 POSCAR found :  2 types and       2 ions
 scaLAPACK will be used

 ----------------------------------------------------------------------------- 
|                                                                             |
|           W    W    AA    RRRRR   N    N  II  N    N   GGGG   !!!           |
|           W    W   A  A   R    R  NN   N  II  NN   N  G    G  !!!           |
|           W    W  A    A  R    R  N N  N  II  N N  N  G       !!!           |
|           W WW W  AAAAAA  RRRRR   N  N N  II  N  N N  G  GGG   !            |
|           WW  WW  A    A  R   R   N   NN  II  N   NN  G    G                |
|           W    W  A    A  R    R  N    N  II  N    N   GGGG   !!!           |
|                                                                             |
|      For optimal performance we recommend to set                            |
|        NCORE= 4 - approx SQRT( number of cores)                             |
|      NCORE specifies how many cores store one orbital (NPAR=cpu/NCORE).     |
|      This setting can  greatly improve the performance of VASP for DFT.     |
|      The default, NPAR=number of cores might be grossly inefficient         |
|      on modern multi-core architectures or massively parallel machines.     |
|      Do your own testing !!!!                                               |
|      Unfortunately you need to use the default for GW and RPA calculations. |
|      (for HF NCORE is supported but not extensively tested yet)             |
|                                                                             |
 ----------------------------------------------------------------------------- 

 LDA part: xc-table for Pade appr. of Perdew
 POSCAR, INCAR and KPOINTS ok, starting setup
 FFT: planning ...
 WAVECAR not read
 WARNING: random wavefunctions but no delay for mixing, default for NELMDL
 entering main loop
       N       E                     dE             d eps       ncg     rms          ort
DAV:   1     0.140143632375E+03    0.14014E+03   -0.85219E+03  6048   0.115E+03
DAV:   2     0.336900085127E+02   -0.10645E+03   -0.10188E+03  6048   0.268E+02
DAV:   3     0.285138377475E+02   -0.51762E+01   -0.51394E+01  6048   0.601E+01
DAV:   4     0.284252544910E+02   -0.88583E-01   -0.88526E-01  6048   0.608E+00
DAV:   5     0.284242997270E+02   -0.95476E-03   -0.95063E-03  6048   0.699E-01
 EDWAV: internal error, the gradient is not orthogonal           1           1
 EDWAV: internal error, the gradient is not orthogonal           1           1
 EDWAV: internal error, the gradient is not orthogonal           1           1
 EDWAV: internal error, the gradient is not orthogonal           1           1
 EDWAV: internal error, the gradient is not orthogonal           1           1
 EDWAV: internal error, the gradient is not orthogonal           1           1
 EDWAV: internal error, the gradient is not orthogonal           1           1
 EDWAV: internal error, the gradient is not orthogonal           1           1
 -4.417049443044052E+275
 EDWAV: internal error, the gradient is not orthogonal           1           1
 -4.417049443044052E+275
 -4.417049443044052E+275
 -4.417049443044052E+275
 EDWAV: internal error, the gradient is not orthogonal           1           1
 EDWAV: internal error, the gradient is not orthogonal           1           1
 EDWAV: internal error, the gradient is not orthogonal           1           1
 EDWAV: internal error, the gradient is not orthogonal           1           1
 EDWAV: internal error, the gradient is not orthogonal           1           1
 EDWAV: internal error, the gradient is not orthogonal           1           1
 EDWAV: internal error, the gradient is not orthogonal           1           1
 EDWAV: internal error, the gradient is not orthogonal           1           1
 EDWAV: internal error, the gradient is not orthogonal           1           1
 -1.744090433310040E+275
 EDWAV: internal error, the gradient is not orthogonal           1           1
 -1.744090433310040E+275
 EDWAV: internal error, the gradient is not orthogonal           1           1
 EDWAV: internal error, the gradient is not orthogonal           1           1
 -1.744090433310040E+275
 EDWAV: internal error, the gradient is not orthogonal           1           1
 EDWAV: internal error, the gradient is not orthogonal           1           1
 EDWAV: internal error, the gradient is not orthogonal           1           1
 EDWAV: internal error, the gradient is not orthogonal           1           1
 EDWAV: internal error, the gradient is not orthogonal           1           1
 EDWAV: internal error, the gradient is not orthogonal           1           1
 EDWAV: internal error, the gradient is not orthogonal           1           1
 -4.503064245425436E+276
 EDWAV: internal error, the gradient is not orthogonal           1           1
 -4.503064245425436E+276
 EDWAV: internal error, the gradient is not orthogonal           1           1
 EDWAV: internal error, the gradient is not orthogonal           1           1
 EDWAV: internal error, the gradient is not orthogonal           1           1
 EDWAV: internal error, the gradient is not orthogonal           1           1
 -4.503064245425436E+276
 EDWAV: internal error, the gradient is not orthogonal           1           1
 EDWAV: internal error, the gradient is not orthogonal           1           2
 EDWAV: internal error, the gradient is not orthogonal           1           2
 EDWAV: internal error, the gradient is not orthogonal           1           2
 EDWAV: internal error, the gradient is not orthogonal           1           2
 EDWAV: internal error, the gradient is not orthogonal           1           2
 EDWAV: internal error, the gradient is not orthogonal           1           2
  7.211854303439193E+274
  7.211854303439193E+274
 EDWAV: internal error, the gradient is not orthogonal           1           2
 EDWAV: internal error, the gradient is not orthogonal           1           2
  7.211854303439193E+274
 EDWAV: internal error, the gradient is not orthogonal           1           2
  7.211854303439193E+274
 EDWAV: internal error, the gradient is not orthogonal           1           2
  7.211854303439193E+274
  7.211854303439193E+274
  7.211854303439193E+274
 EDWAV: internal error, the gradient is not orthogonal           1           2
 EDWAV: internal error, the gradient is not orthogonal           1           2
 EDWAV: internal error, the gradient is not orthogonal           1           2
 EDWAV: internal error, the gradient is not orthogonal           1           2
 EDWAV: internal error, the gradient is not orthogonal           1           2
 EDWAV: internal error, the gradient is not orthogonal           1           2
 EDWAV: internal error, the gradient is not orthogonal           1           2
  7.211854303439193E+274
  7.211854303439193E+274
 EDWAV: internal error, the gradient is not orthogonal           1           2
  7.211854303439193E+274
  7.211854303439193E+274
  7.211854303439193E+274
  7.211854303439193E+274
  7.211854303439193E+274
  7.211854303439193E+274
  7.211854303439193E+274
 EDWAV: internal error, the gradient is not orthogonal           1           2
 EDWAV: internal error, the gradient is not orthogonal           1           2
  7.211854303439193E+274
  7.211854303439193E+274
 EDWAV: internal error, the gradient is not orthogonal           1           2
 EDWAV: internal error, the gradient is not orthogonal           1           2
  7.211854303439193E+274
  7.211854303439193E+274
 EDWAV: internal error, the gradient is not orthogonal           1           2
  7.211854303439193E+274
 EDWAV: internal error, the gradient is not orthogonal           1           2
  7.211854303439193E+274
  7.211854303439193E+274
  7.211854303439193E+274
 EDWAV: internal error, the gradient is not orthogonal           1           1
 -1.744090433310040E+275
 EDWAV: internal error, the gradient is not orthogonal           1           1
 -1.744090433310040E+275
 -1.744090433310040E+275
 -1.744090433310040E+275
 -1.744090433310040E+275
 -1.744090433310040E+275
 -1.744090433310040E+275
 EDWAV: internal error, the gradient is not orthogonal           1           1
 -1.744090433310040E+275
 EDWAV: internal error, the gradient is not orthogonal           1           1
 EDWAV: internal error, the gradient is not orthogonal           1           1
 -1.744090433310040E+275
 -1.744090433310040E+275
 -1.744090433310040E+275
 -1.744090433310040E+275
 -1.744090433310040E+275
 EDWAV: internal error, the gradient is not orthogonal           1           1
 EDWAV: internal error, the gradient is not orthogonal           1           1
 EDWAV: internal error, the gradient is not orthogonal           1           1
 EDWAV: internal error, the gradient is not orthogonal           1           1
 -1.744090433310040E+275
 EDWAV: internal error, the gradient is not orthogonal           1           1
 -1.744090433310040E+275
 -1.744090433310040E+275
 -1.744090433310040E+275
 -1.744090433310040E+275
 EDWAV: internal error, the gradient is not orthogonal           1           1
 EDWAV: internal error, the gradient is not orthogonal           1           1
 -1.744090433310040E+275
 -1.744090433310040E+275
 -1.744090433310040E+275
 EDWAV: internal error, the gradient is not orthogonal           1           1
 -4.503064245425436E+276
 -4.503064245425436E+276
 -4.503064245425436E+276
 -4.503064245425436E+276
 -4.503064245425436E+276
 -4.503064245425436E+276
 EDWAV: internal error, the gradient is not orthogonal           1           1
 EDWAV: internal error, the gradient is not orthogonal           1           1
 EDWAV: internal error, the gradient is not orthogonal           1           1
 -4.503064245425436E+276
 EDWAV: internal error, the gradient is not orthogonal           1           1
 -4.503064245425436E+276
 EDWAV: internal error, the gradient is not orthogonal           1           1
 -4.503064245425436E+276
 -4.503064245425436E+276
 -4.503064245425436E+276
 EDWAV: internal error, the gradient is not orthogonal           1           1
 -4.503064245425436E+276
 -4.503064245425436E+276
 EDWAV: internal error, the gradient is not orthogonal           1           1
 -4.503064245425436E+276
 EDWAV: internal error, the gradient is not orthogonal           1           1
 -4.503064245425436E+276
 -4.503064245425436E+276
 -4.503064245425436E+276
 -4.503064245425436E+276
 EDWAV: internal error, the gradient is not orthogonal           1           1
 -4.503064245425436E+276
 -4.503064245425436E+276
 EDWAV: internal error, the gradient is not orthogonal           1           1
 -4.503064245425436E+276
 -4.417049443044052E+275
 EDWAV: internal error, the gradient is not orthogonal           1           1
 EDWAV: internal error, the gradient is not orthogonal           1           1
 EDWAV: internal error, the gradient is not orthogonal           1           1
 EDWAV: internal error, the gradient is not orthogonal           1           1
 -4.417049443044052E+275
 EDWAV: internal error, the gradient is not orthogonal           1           1
 -4.417049443044052E+275
 EDWAV: internal error, the gradient is not orthogonal           1           1
 -4.417049443044052E+275
 EDWAV: internal error, the gradient is not orthogonal           1           1
 -4.417049443044052E+275
 -4.417049443044052E+275
 -4.417049443044052E+275
 EDWAV: internal error, the gradient is not orthogonal           1           1
 -4.417049443044052E+275
 EDWAV: internal error, the gradient is not orthogonal           1           1
 EDWAV: internal error, the gradient is not orthogonal           1           1
 -4.417049443044052E+275
 EDWAV: internal error, the gradient is not orthogonal           1           1
 -4.417049443044052E+275
 -4.417049443044052E+275
 -4.417049443044052E+275
 -4.417049443044052E+275
 -4.417049443044052E+275
 EDWAV: internal error, the gradient is not orthogonal           1           1
 -4.417049443044052E+275
 EDWAV: internal error, the gradient is not orthogonal           1           1
 EDWAV: internal error, the gradient is not orthogonal           1           1
 -4.417049443044052E+275
 EDWAV: internal error, the gradient is not orthogonal           1           1
 -4.417049443044052E+275
 -4.417049443044052E+275
 -4.417049443044052E+275
 -4.417049443044052E+275
Application 23372817 resources: utime ~78656s, stime ~316s, Rss ~156108, inblocks ~593374, outblocks ~862545
