Name                                    
   5.65360000000000     
     0.500000    0.500000    0.000000
     0.500000    0.000000   -0.500000
     0.000000    0.500000   -0.500000
   Ga   As
     1     1
Direct
  0.000000  0.000000  0.000000
  0.250000  0.250000  0.250000
 
   60   60   60
  741.10      728.78      692.96      636.87      565.35      484.16      399.26      316.16      239.53      172.85    
  118.34      76.877      48.013      30.116      20.601      16.320      14.104      12.430      11.163      10.205    
  9.4695      8.8919      8.4314      8.0624      7.7692      7.5403      7.3667      7.2406      7.1553      7.1061    
  7.0901      7.1061      7.1553      7.2406      7.3667      7.5403      7.7692      8.0624      8.4314      8.8919    
  9.4695      10.205      11.163      12.430      14.104      16.320      20.601      30.116      48.013      76.877    
  118.34      172.85      239.53      316.16      399.26      484.16      565.35      636.87      692.96      728.78    
  728.78      704.65      658.62      594.77      518.46      435.61      351.97      272.64      201.65      141.82    
  94.640      60.294      37.704      24.721      18.444      15.650      13.793      12.382      11.324      10.522    
  9.9033      9.4152      9.0263      8.7169      8.4742      8.2882      8.1506      8.0542      7.9932      7.9637    
  7.9637      7.9932      8.0542      8.1506      8.2882      8.4742      8.7169      9.0263      9.4152      9.9033    
  10.522      11.324      12.382      13.793      15.650      18.444      24.721      37.704      60.294      94.640    
  141.82      201.65      272.64      351.97      435.61      518.46      594.77      658.62      704.65      728.78    
  692.96      658.62      604.87      536.41      458.78      377.74      298.62      225.86      162.79      111.48    
  72.699      45.939      29.551      20.990      17.193      15.155      13.612      12.459      11.597      10.943    
  10.435      10.034      9.7165      9.4673      9.2754      9.1320      9.0293      8.9608      8.9217      8.9090    
  8.9217      8.9608      9.0293      9.1320      9.2754      9.4673      9.7165      10.034      10.435      10.943    
  11.597      12.459      13.612      15.155      17.193      20.990      29.551      45.939      72.699      111.48    
  162.79      225.86      298.62      377.74      458.78      536.41      604.87      658.62      692.96      704.77    
  636.87      594.77      536.41      466.74      391.23      315.20      243.33      179.36      125.82      84.024    
  54.017      34.667      23.856      18.797      16.465      14.815      13.580      12.667      11.986      11.467    
  11.065      10.750      10.504      10.315      10.173      10.070      10.000      9.9567      9.9359      9.9359    
  9.9567      10.000      10.070      10.173      10.315      10.504      10.750      11.065      11.467      11.986    
  12.667      13.580      14.815      16.465      18.797      23.856      34.667      54.017      84.024      125.82    
  179.36      243.33      315.20      391.23      466.74      536.41      594.77      636.87      658.95      658.95    
  565.35      518.46      458.78      391.23      320.90      252.50      189.98      136.26      93.107      61.064    
  39.509      26.782      20.448      17.668      15.944      14.649      13.700      13.004      12.488      12.096    
  11.795      11.563      11.387      11.256      11.163      11.099      11.057      11.035      11.027      11.035    
  11.057      11.099      11.163      11.256      11.387      11.563      11.795      12.096      12.488      13.004    
  13.700      14.649      15.944      17.668      20.448      26.782      39.509      61.064      93.107      136.26    
  189.98      252.50      320.90      391.23      458.78      518.46      565.35      595.34      605.65      595.34    
  484.16      435.61      377.74      315.20      252.50      193.63      141.76      98.982      66.278      43.493    
  29.422      22.022      18.729      16.953      15.627      14.661      13.967      13.465      13.097      12.823    
  12.619      12.468      12.361      12.287      12.238      12.208      12.191      12.183      12.183      12.191    
  12.208      12.238      12.287      12.361      12.468      12.619      12.823      13.097      13.465      13.967    
  14.661      15.627      16.953      18.729      22.022      29.422      43.493      66.278      98.982      141.76    
  193.63      252.50      315.20      377.74      435.61      484.16      519.23      537.62      537.62      519.23    
  399.26      351.97      298.62      243.33      189.98      141.76      101.01      69.050      46.112      31.423    
  23.339      19.618      17.795      16.472      15.514      14.839      14.368      14.038      13.806      13.643    
  13.532      13.460      13.418      13.397      13.388      13.387      13.388      13.388      13.388      13.387    
  13.388      13.397      13.418      13.460      13.532      13.643      13.806      14.038      14.368      14.839    
  15.514      16.472      17.795      19.618      23.339      31.423      46.112      69.050      101.01      141.76    
  189.98      243.33      298.62      351.97      399.26      436.47      460.29      468.50      460.29      436.47    
  316.16      272.64      225.86      179.36      136.26      98.982      69.050      47.026      32.502      24.217    
  20.270      18.429      17.145      16.222      15.587      15.164      14.887      14.711      14.604      14.547    
  14.525      14.529      14.548      14.574      14.600      14.620      14.630      14.630      14.620      14.600    
  14.574      14.548      14.529      14.525      14.547      14.604      14.711      14.887      15.164      15.587    
  16.222      17.145      18.429      20.270      24.217      32.502      47.026      69.050      98.982      136.26    
  179.36      225.86      272.64      316.16      352.81      379.33      393.26      393.26      379.33      352.81    
  239.53      201.65      162.79      125.82      93.107      66.278      46.112      32.502      24.526      20.617    
  18.823      17.613      16.754      16.180      15.821      15.612      15.506      15.469      15.481      15.524    
  15.589      15.663      15.737      15.803      15.854      15.887      15.898      15.887      15.854      15.803    
  15.737      15.663      15.589      15.524      15.481      15.469      15.506      15.612      15.821      16.180    
  16.754      17.613      18.823      20.617      24.526      32.502      46.112      66.278      93.107      125.82    
  162.79      201.65      239.53      273.31      300.01      317.14      323.05      317.14      300.01      273.31    
  172.85      141.82      111.48      84.024      61.064      43.493      31.423      24.217      20.617      18.957    
  17.854      17.084      16.592      16.313      16.185      16.161      16.208      16.301      16.423      16.563    
  16.707      16.844      16.966      17.062      17.128      17.162      17.162      17.128      17.062      16.966    
  16.844      16.707      16.563      16.423      16.301      16.208      16.161      16.185      16.313      16.592    
  17.084      17.854      18.957      20.617      24.217      31.423      43.493      61.064      84.024      111.48    
  141.82      172.85      202.05      226.83      244.84      254.33      254.33      244.84      226.83      202.05    
  118.34      94.640      72.699      54.017      39.509      29.422      23.339      20.270      18.823      17.854    
  17.195      16.803      16.617      16.581      16.650      16.790      16.976      17.190      17.418      17.646    
  17.862      18.051      18.201      18.308      18.371      18.392      18.371      18.308      18.201      18.051    
  17.862      17.646      17.418      17.190      16.976      16.790      16.650      16.581      16.617      16.803    
  17.195      17.854      18.823      20.270      23.339      29.422      39.509      54.017      72.699      94.640    
  118.34      141.89      163.18      180.15      191.09      194.87      191.09      180.15      163.18      141.89    
  76.877      60.294      45.939      34.667      26.782      22.022      19.618      18.429      17.613      17.084    
  16.803      16.720      16.784      16.953      17.193      17.480      17.795      18.123      18.448      18.753    
  19.016      19.226      19.378      19.476      19.523      19.523      19.476      19.378      19.226      19.016    
  18.753      18.448      18.123      17.795      17.480      17.193      16.953      16.784      16.720      16.803    
  17.084      17.613      18.429      19.618      22.022      26.782      34.667      45.939      60.294      76.877    
  94.386      111.23      125.74      136.40      142.04      142.04      136.40      125.74      111.23      94.386    
  48.013      37.704      29.551      23.856      20.448      18.729      17.795      17.145      16.754      16.592    
  16.617      16.784      17.055      17.398      17.791      18.213      18.649      19.080      19.481      19.826    
  20.101      20.304      20.440      20.517      20.542      20.517      20.440      20.304      20.101      19.826    
  19.481      19.080      18.649      18.213      17.791      17.398      17.055      16.784      16.617      16.592    
  16.754      17.145      17.795      18.729      20.448      23.856      29.551      37.704      48.013      59.748    
  71.846      83.068      92.173      98.108      100.17      98.108      92.173      83.068      71.846      59.748    
  30.116      24.721      20.990      18.797      17.668      16.953      16.472      16.222      16.180      16.313    
  16.581      16.953      17.398      17.896      18.427      18.973      19.516      20.020      20.453      20.801    
  21.060      21.240      21.350      21.402      21.402      21.350      21.240      21.060      20.801      20.453    
  20.020      19.516      18.973      18.427      17.896      17.398      16.953      16.581      16.313      16.180    
  16.222      16.472      16.953      17.668      18.797      20.990      24.721      30.116      36.928      44.585    
  52.284      59.120      64.241      66.982      66.982      64.241      59.120      52.284      44.585      36.928    
  20.601      18.444      17.193      16.465      15.944      15.627      15.514      15.587      15.821      16.185    
  16.650      17.193      17.791      18.427      19.083      19.738      20.350      20.880      21.310      21.635    
  21.864      22.012      22.093      22.118      22.093      22.012      21.864      21.635      21.310      20.880    
  20.350      19.738      19.083      18.427      17.791      17.193      16.650      16.185      15.821      15.587    
  15.514      15.627      15.944      16.465      17.193      18.444      20.601      23.782      27.823      32.322    
  36.724      40.426      42.894      43.760      42.894      40.426      36.724      32.322      27.823      23.782    
  16.320      15.650      15.155      14.815      14.649      14.661      14.839      15.164      15.612      16.161    
  16.790      17.480      18.213      18.973      19.738      20.461      21.096      21.618      22.020      22.309    
  22.502      22.616      22.669      22.669      22.616      22.502      22.309      22.020      21.618      21.096    
  20.461      19.738      18.973      18.213      17.480      16.790      16.161      15.612      15.164      14.839    
  14.661      14.649      14.815      15.155      15.650      16.320      17.393      19.001      21.070      23.361    
  25.535      27.234      28.166      28.166      27.234      25.535      23.361      21.070      19.001      17.393    
  14.104      13.793      13.612      13.580      13.700      13.967      14.368      14.887      15.506      16.208    
  16.976      17.795      18.649      19.516      20.350      21.096      21.721      22.213      22.575      22.823    
  22.980      23.064      23.090      23.064      22.980      22.823      22.575      22.213      21.721      21.096    
  20.350      19.516      18.649      17.795      16.976      16.208      15.506      14.887      14.368      13.967    
  13.700      13.580      13.612      13.793      14.104      14.516      15.018      15.698      16.565      17.517    
  18.385      18.994      19.213      18.994      18.385      17.517      16.565      15.698      15.018      14.516    
  12.430      12.382      12.459      12.667      13.004      13.465      14.038      14.711      15.469      16.301    
  17.190      18.123      19.080      20.020      20.880      21.618      22.213      22.663      22.983      23.193    
  23.317      23.374      23.374      23.317      23.193      22.983      22.663      22.213      21.618      20.880    
  20.020      19.080      18.123      17.190      16.301      15.469      14.711      14.038      13.465      13.004    
  12.667      12.459      12.382      12.430      12.585      12.824      13.116      13.428      13.746      14.059    
  14.320      14.470      14.470      14.320      14.059      13.746      13.428      13.116      12.824      12.585    
  11.163      11.324      11.597      11.986      12.488      13.097      13.806      14.604      15.481      16.423    
  17.418      18.448      19.481      20.453      21.310      22.020      22.575      22.983      23.263      23.440    
  23.536      23.566      23.536      23.440      23.263      22.983      22.575      22.020      21.310      20.453    
  19.481      18.448      17.418      16.423      15.481      14.604      13.806      13.097      12.488      11.986    
  11.597      11.324      11.163      11.106      11.138      11.239      11.386      11.552      11.712      11.844    
  11.931      11.961      11.931      11.844      11.712      11.552      11.386      11.239      11.138      11.106    
  10.205      10.522      10.943      11.467      12.096      12.823      13.643      14.547      15.524      16.563    
  17.646      18.753      19.826      20.801      21.635      22.309      22.823      23.193      23.440      23.589    
  23.658      23.658      23.589      23.440      23.193      22.823      22.309      21.635      20.801      19.826    
  18.753      17.646      16.563      15.524      14.547      13.643      12.823      12.096      11.467      10.943    
  10.522      10.205      9.9856      9.8533      9.7954      9.7955      9.8353      9.8960      9.9599      10.012    
  10.041      10.041      10.012      9.9599      9.8960      9.8353      9.7955      9.7954      9.8533      9.9855    
  9.4695      9.9033      10.435      11.065      11.795      12.619      13.532      14.525      15.589      16.707    
  17.862      19.016      20.101      21.060      21.864      22.502      22.980      23.317      23.536      23.658    
  23.696      23.658      23.536      23.317      22.980      22.502      21.864      21.060      20.101      19.016    
  17.862      16.707      15.589      14.525      13.532      12.619      11.795      11.065      10.435      9.9033    
  9.4695      9.1283      8.8722      8.6912      8.5737      8.5066      8.4762      8.4695      8.4744      8.4815    
  8.4845      8.4815      8.4744      8.4695      8.4762      8.5066      8.5737      8.6912      8.8722      9.1283    
  8.8919      9.4152      10.034      10.750      11.563      12.468      13.460      14.529      15.663      16.844    
  18.051      19.226      20.304      21.240      22.012      22.616      23.064      23.374      23.566      23.658    
  23.658      23.566      23.374      23.064      22.616      22.012      21.240      20.304      19.226      18.051    
  16.844      15.663      14.529      13.460      12.468      11.563      10.750      10.034      9.4152      8.8919    
  8.4593      8.1107      7.8374      7.6300      7.4785      7.3725      7.3024      7.2590      7.2347      7.2241    
  7.2241      7.2347      7.2590      7.3024      7.3725      7.4785      7.6300      7.8374      8.1107      8.4593    
  8.4314      9.0263      9.7165      10.504      11.387      12.361      13.418      14.548      15.737      16.966    
  18.201      19.378      20.440      21.350      22.093      22.669      23.090      23.374      23.536      23.589    
  23.536      23.374      23.090      22.669      22.093      21.350      20.440      19.378      18.201      16.966    
  15.737      14.548      13.418      12.361      11.387      10.504      9.7165      9.0263      8.4314      7.9274    
  7.5078      7.1646      6.8892      6.6728      6.5070      6.3840      6.2968      6.2393      6.2068      6.1964    
  6.2068      6.2393      6.2968      6.3840      6.5070      6.6728      6.8892      7.1646      7.5078      7.9274    
  8.0624      8.7169      9.4673      10.315      11.256      12.287      13.397      14.574      15.803      17.062    
  18.308      19.476      20.517      21.402      22.118      22.669      23.064      23.317      23.440      23.440    
  23.317      23.064      22.669      22.118      21.402      20.517      19.476      18.308      17.062      15.803    
  14.574      13.397      12.287      11.256      10.315      9.4673      8.7169      8.0624      7.5001      7.0237    
  6.6256      6.2973      6.0306      5.8178      5.6520      5.5273      5.4386      5.3819      5.3543      5.3543    
  5.3819      5.4386      5.5273      5.6520      5.8178      6.0306      6.2973      6.6256      7.0237      7.5001    
  7.7692      8.4742      9.2754      10.173      11.163      12.238      13.388      14.600      15.854      17.128    
  18.371      19.523      20.542      21.402      22.093      22.616      22.980      23.193      23.263      23.193    
  22.980      22.616      22.093      21.402      20.542      19.523      18.371      17.128      15.854      14.600    
  13.388      12.238      11.163      10.173      9.2754      8.4742      7.7692      7.1576      6.6338      6.1904    
  5.8193      5.5122      5.2616      5.0609      4.9045      4.7879      4.7075      4.6603      4.6448      4.6603    
  4.7075      4.7879      4.9045      5.0609      5.2616      5.5122      5.8193      6.1904      6.6338      7.1576    
  7.5403      8.2882      9.1320      10.070      11.099      12.208      13.387      14.620      15.887      17.162    
  18.392      19.523      20.517      21.350      22.012      22.502      22.823      22.983      22.983      22.823    
  22.502      22.012      21.350      20.517      19.523      18.392      17.162      15.887      14.620      13.387    
  12.208      11.099      10.070      9.1320      8.2882      7.5403      6.8865      6.3221      5.8402      5.4328    
  5.0918      4.8096      4.5796      4.3962      4.2550      4.1524      4.0856      4.0527      4.0527      4.0856    
  4.1524      4.2550      4.3962      4.5796      4.8096      5.0918      5.4328      5.8402      6.3221      6.8865    
  7.3667      8.1506      9.0293      10.000      11.057      12.191      13.388      14.630      15.898      17.162    
  18.371      19.476      20.440      21.240      21.864      22.309      22.575      22.663      22.575      22.309    
  21.864      21.240      20.440      19.476      18.371      17.162      15.898      14.630      13.388      12.191    
  11.057      10.000      9.0293      8.1506      7.3667      6.6769      6.0774      5.5619      5.1230      4.7527    
  4.4432      4.1878      3.9808      3.8177      3.6947      3.6091      3.5586      3.5419      3.5586      3.6091    
  3.6947      3.8177      3.9808      4.1878      4.4432      4.7527      5.1230      5.5619      6.0774      6.6769    
  7.2406      8.0542      8.9608      9.9567      11.035      12.183      13.388      14.630      15.887      17.128    
  18.308      19.378      20.304      21.060      21.635      22.020      22.213      22.213      22.020      21.635    
  21.060      20.304      19.378      18.308      17.128      15.887      14.630      13.388      12.183      11.035    
  9.9567      8.9608      8.0542      7.2406      6.5203      5.8904      5.3457      4.8791      4.4828      4.1491    
  3.8712      3.6431      3.4602      3.3186      3.2153      3.1477      3.1144      3.1144      3.1477      3.2153    
  3.3186      3.4602      3.6431      3.8712      4.1491      4.4827      4.8791      5.3457      5.8904      6.5203    
  7.1553      7.9932      8.9217      9.9359      11.027      12.183      13.388      14.620      15.854      17.062    
  18.201      19.226      20.101      20.801      21.310      21.618      21.721      21.618      21.310      20.801    
  20.101      19.226      18.201      17.062      15.854      14.620      13.388      12.183      11.027      9.9359    
  8.9217      7.9932      7.1553      6.4094      5.7535      5.1832      4.6920      4.2724      3.9171      3.6188    
  3.3718      3.1708      3.0121      2.8922      2.8085      2.7592      2.7429      2.7592      2.8085      2.8922    
  3.0121      3.1708      3.3718      3.6188      3.9171      4.2725      4.6920      5.1832      5.7535      6.4094    
  7.1061      7.9637      8.9090      9.9359      11.035      12.191      13.387      14.600      15.803      16.966    
  18.051      19.016      19.826      20.453      20.880      21.096      21.096      20.880      20.453      19.826    
  19.016      18.051      16.966      15.803      14.600      13.387      12.191      11.035      9.9359      8.9090    
  7.9637      7.1061      6.3387      5.6604      5.0675      4.5543      4.1138      3.7387      3.4219      3.1573    
  2.9399      2.7652      2.6300      2.5312      2.4667      2.4349      2.4349      2.4667      2.5312      2.6300    
  2.7652      2.9399      3.1573      3.4219      3.7387      4.1138      4.5543      5.0675      5.6604      6.3387    
  7.0901      7.9637      8.9217      9.9567      11.057      12.208      13.388      14.574      15.737      16.844    
  17.862      18.753      19.481      20.020      20.350      20.461      20.350      20.020      19.481      18.753    
  17.862      16.844      15.737      14.574      13.388      12.208      11.057      9.9567      8.9217      7.9637    
  7.0901      6.3043      5.6063      4.9933      4.4602      4.0004      3.6069      3.2729      2.9921      2.7591    
  2.5697      2.4201      2.3072      2.2285      2.1821      2.1668      2.1821      2.2285      2.3072      2.4201    
  2.5697      2.7591      2.9921      3.2729      3.6069      4.0004      4.4602      4.9933      5.6063      6.3043    
  7.1061      7.9932      8.9608      10.000      11.099      12.238      13.397      14.548      15.663      16.707    
  17.646      18.448      19.080      19.516      19.738      19.738      19.516      19.080      18.448      17.646    
  16.707      15.663      14.548      13.397      12.238      11.099      10.000      8.9608      7.9932      7.1061    
  6.3043      5.5886      4.9571      4.4054      3.9274      3.5165      3.1659      2.8696      2.6219      2.4184    
  2.2552      2.1290      2.0370      1.9770      1.9474      1.9474      1.9770      2.0370      2.1290      2.2552    
  2.4184      2.6219      2.8696      3.1659      3.5165      3.9274      4.4054      4.9571      5.5886      6.3043    
  7.1553      8.0542      9.0293      10.070      11.163      12.287      13.418      14.529      15.589      16.563    
  17.418      18.123      18.649      18.973      19.083      18.973      18.649      18.123      17.418      16.563    
  15.589      14.529      13.418      12.287      11.163      10.070      9.0293      8.0542      7.1553      6.3387    
  5.6063      4.9571      4.3874      3.8916      3.4636      3.0968      2.7851      2.5231      2.3058      2.1295    
  1.9904      1.8858      1.8130      1.7702      1.7561      1.7702      1.8130      1.8858      1.9904      2.1295    
  2.3058      2.5231      2.7851      3.0968      3.4636      3.8916      4.3874      4.9571      5.6063      6.3387    
  7.2406      8.1506      9.1320      10.173      11.256      12.361      13.460      14.525      15.524      16.423    
  17.190      17.795      18.213      18.427      18.427      18.213      17.795      17.190      16.423      15.524    
  14.525      13.460      12.361      11.256      10.173      9.1320      8.1506      7.2406      6.4094      5.6604    
  4.9933      4.4054      3.8916      3.4462      3.0629      2.7357      2.4590      2.2279      2.0385      1.8868    
  1.7699      1.6849      1.6296      1.6024      1.6024      1.6296      1.6849      1.7699      1.8868      2.0385    
  2.2279      2.4590      2.7357      3.0629      3.4462      3.8916      4.4054      4.9933      5.6604      6.4094    
  7.3667      8.2882      9.2754      10.315      11.387      12.468      13.532      14.547      15.481      16.301    
  16.976      17.480      17.791      17.896      17.791      17.480      16.976      16.301      15.481      14.547    
  13.532      12.468      11.387      10.315      9.2754      8.2882      7.3667      6.5203      5.7535      5.0675    
  4.4602      3.9274      3.4636      3.0629      2.7194      2.4274      2.1821      1.9792      1.8148      1.6856    
  1.5886      1.5213      1.4818      1.4688      1.4818      1.5213      1.5886      1.6856      1.8148      1.9792    
  2.1821      2.4274      2.7194      3.0629      3.4636      3.9274      4.4602      5.0675      5.7535      6.5203    
  7.5403      8.4742      9.4673      10.504      11.563      12.619      13.643      14.604      15.469      16.208    
  16.790      17.193      17.398      17.398      17.193      16.790      16.208      15.469      14.604      13.643    
  12.619      11.563      10.504      9.4673      8.4742      7.5403      6.6769      5.8904      5.1832      4.5543    
  4.0004      3.5165      3.0968      2.7357      2.4274      2.1670      1.9500      1.7724      1.6306      1.5215    
  1.4424      1.3910      1.3657      1.3657      1.3910      1.4424      1.5215      1.6306      1.7724      1.9500    
  2.1670      2.4274      2.7357      3.0968      3.5165      4.0004      4.5543      5.1832      5.8904      6.6769    
  7.7692      8.7169      9.7165      10.750      11.795      12.823      13.806      14.711      15.506      16.161    
  16.650      16.953      17.055      16.953      16.650      16.161      15.506      14.711      13.806      12.823    
  11.795      10.750      9.7165      8.7169      7.7692      6.8865      6.0774      5.3457      4.6920      4.1138    
  3.6069      3.1659      2.7851      2.4590      2.1821      1.9500      1.7583      1.6034      1.4818      1.3907    
  1.3275      1.2905      1.2782      1.2905      1.3275      1.3907      1.4818      1.6034      1.7583      1.9500    
  2.1821      2.4590      2.7851      3.1659      3.6069      4.1138      4.6920      5.3457      6.0774      6.8865    
  8.0624      9.0263      10.034      11.065      12.096      13.097      14.038      14.887      15.612      16.185    
  16.581      16.784      16.784      16.581      16.185      15.612      14.887      14.038      13.097      12.096    
  11.065      10.034      9.0263      8.0624      7.1576      6.3221      5.5619      4.8791      4.2724      3.7387    
  3.2729      2.8696      2.5231      2.2279      1.9792      1.7724      1.6034      1.4687      1.3651      1.2900    
  1.2412      1.2172      1.2172      1.2412      1.2900      1.3651      1.4687      1.6034      1.7724      1.9792    
  2.2279      2.5231      2.8696      3.2729      3.7387      4.2725      4.8791      5.5619      6.3221      7.1576    
  8.4314      9.4152      10.435      11.467      12.488      13.465      14.368      15.164      15.821      16.313    
  16.617      16.720      16.617      16.313      15.821      15.164      14.368      13.465      12.488      11.467    
  10.435      9.4152      8.4314      7.5001      6.6338      5.8402      5.1230      4.4828      3.9171      3.4219    
  2.9921      2.6219      2.3058      2.0385      1.8148      1.6306      1.4818      1.3651      1.2776      1.2168    
  1.1811      1.1694      1.1811      1.2168      1.2776      1.3651      1.4818      1.6306      1.8148      2.0385    
  2.3058      2.6219      2.9921      3.4219      3.9171      4.4827      5.1230      5.8402      6.6338      7.5001    
  8.8919      9.9033      10.943      11.986      13.004      13.967      14.839      15.587      16.180      16.592    
  16.803      16.803      16.592      16.180      15.587      14.839      13.967      13.004      11.986      10.943    
  9.9033      8.8919      7.9274      7.0237      6.1904      5.4328      4.7527      4.1491      3.6188      3.1573    
  2.7591      2.4184      2.1295      1.8868      1.6856      1.5215      1.3907      1.2900      1.2168      1.1692    
  1.1457      1.1457      1.1692      1.2168      1.2900      1.3907      1.5215      1.6856      1.8868      2.1295    
  2.4184      2.7591      3.1573      3.6188      4.1491      4.7527      5.4328      6.1904      7.0237      7.9274    
  9.4695      10.522      11.597      12.667      13.700      14.661      15.514      16.222      16.754      17.084    
  17.195      17.084      16.754      16.222      15.514      14.661      13.700      12.667      11.597      10.522    
  9.4695      8.4593      7.5078      6.6256      5.8193      5.0918      4.4432      3.8712      3.3718      2.9399    
  2.5697      2.2552      1.9904      1.7699      1.5886      1.4424      1.3275      1.2412      1.1811      1.1457    
  1.1340      1.1457      1.1811      1.2412      1.3275      1.4424      1.5886      1.7699      1.9904      2.2552    