   2   2   1   0
  0.2258839E+02  0.3997699E-09  0.3997699E-09  0.3997699E-09  0.5000000E-15
  1.000000000000000E-004
  CAR 
 Name                                    
     18.59476523    -13.55836112  301      3.06748463      1.00000000
    -13.558  0.0000E+00  0.0000E+00
    -13.451  0.0000E+00  0.0000E+00
    -13.344  0.0000E+00  0.0000E+00
    -13.237  0.0000E+00  0.0000E+00
    -13.130  0.0000E+00  0.0000E+00
    -13.022  0.0000E+00  0.0000E+00
    -12.915  0.0000E+00  0.0000E+00
    -12.808  0.0000E+00  0.0000E+00
    -12.701  0.0000E+00  0.0000E+00
    -12.594  0.0000E+00  0.0000E+00
    -12.487  0.0000E+00  0.0000E+00
    -12.379  0.0000E+00  0.0000E+00
    -12.272  0.0000E+00  0.0000E+00
    -12.165  0.0000E+00  0.0000E+00
    -12.058  0.1330E+02  0.1426E+01
    -11.951  0.3140E+02  0.5226E+01
    -11.844  0.3343E+02  0.1000E+02
    -11.736  0.0000E+00  0.1000E+02
    -11.629  0.0000E+00  0.1000E+02
    -11.522  0.0000E+00  0.1000E+02
    -11.415  0.0000E+00  0.1000E+02
    -11.308  0.0000E+00  0.1000E+02
    -11.200  0.0000E+00  0.1000E+02
    -11.093  0.0000E+00  0.1000E+02
    -10.986  0.0000E+00  0.1000E+02
    -10.879  0.0000E+00  0.1000E+02
    -10.772  0.0000E+00  0.1000E+02
    -10.665  0.0000E+00  0.1000E+02
    -10.557  0.0000E+00  0.1000E+02
    -10.450  0.0000E+00  0.1000E+02
    -10.343  0.0000E+00  0.1000E+02
    -10.236  0.0000E+00  0.1000E+02
    -10.129  0.0000E+00  0.1000E+02
    -10.022  0.0000E+00  0.1000E+02
     -9.914  0.0000E+00  0.1000E+02
     -9.807  0.8550E-01  0.1001E+02
     -9.700  0.0000E+00  0.1001E+02
     -9.593  0.0000E+00  0.1001E+02
     -9.486  0.6877E+00  0.1008E+02
     -9.378  0.5163E+00  0.1014E+02
     -9.271  0.0000E+00  0.1014E+02
     -9.164  0.0000E+00  0.1014E+02
     -9.057  0.1339E-11  0.1014E+02
     -8.950  0.1037E+01  0.1025E+02
     -8.843  0.0000E+00  0.1025E+02
     -8.735  0.2277E+00  0.1027E+02
     -8.628  0.6911E+00  0.1055E+02
     -8.521  0.0000E+00  0.1055E+02
     -8.414  0.0000E+00  0.1055E+02
     -8.307  0.1350E-08  0.1055E+02
     -8.200  0.5184E+00  0.1060E+02
     -8.092  0.2073E+01  0.1082E+02
     -7.985  0.2419E+01  0.1108E+02
     -7.878  0.2073E+01  0.1131E+02
     -7.771  0.0000E+00  0.1131E+02
     -7.664  0.0000E+00  0.1131E+02
     -7.556  0.2049E+01  0.1153E+02
     -7.449  0.3110E+01  0.1186E+02
     -7.342  0.3713E-04  0.1186E+02
     -7.235  0.1037E+01  0.1200E+02
     -7.128  0.0000E+00  0.1200E+02
     -7.021  0.0000E+00  0.1200E+02
     -6.913  0.0000E+00  0.1200E+02
     -6.806  0.0000E+00  0.1200E+02
     -6.699  0.0000E+00  0.1200E+02
     -6.592  0.0000E+00  0.1200E+02
     -6.485  0.0000E+00  0.1200E+02
     -6.377  0.0000E+00  0.1200E+02
     -6.270  0.0000E+00  0.1200E+02
     -6.163  0.0000E+00  0.1200E+02
     -6.056  0.0000E+00  0.1200E+02
     -5.949  0.0000E+00  0.1200E+02
     -5.842  0.0000E+00  0.1200E+02
     -5.734  0.0000E+00  0.1200E+02
     -5.627  0.0000E+00  0.1200E+02
     -5.520  0.0000E+00  0.1200E+02
     -5.413  0.0000E+00  0.1200E+02
     -5.306  0.0000E+00  0.1200E+02
     -5.199  0.0000E+00  0.1200E+02
     -5.091  0.0000E+00  0.1200E+02
     -4.984  0.0000E+00  0.1200E+02
     -4.877  0.0000E+00  0.1200E+02
     -4.770  0.0000E+00  0.1200E+02
     -4.663  0.0000E+00  0.1200E+02
     -4.555  0.0000E+00  0.1200E+02
     -4.448  0.0000E+00  0.1200E+02
     -4.341  0.0000E+00  0.1200E+02
     -4.234  0.0000E+00  0.1200E+02
     -4.127  0.0000E+00  0.1200E+02
     -4.020  0.0000E+00  0.1200E+02
     -3.912  0.2591E+00  0.1203E+02
     -3.805  0.3926E+00  0.1207E+02
     -3.698  0.3456E+00  0.1218E+02
     -3.591  0.2085E+01  0.1240E+02
     -3.484  0.4145E+01  0.1295E+02
     -3.377  0.0000E+00  0.1295E+02
     -3.269  0.0000E+00  0.1295E+02
     -3.162  0.0000E+00  0.1295E+02
     -3.055  0.2073E+01  0.1318E+02
     -2.948  0.9773E-04  0.1318E+02
     -2.841  0.2073E+01  0.1340E+02
     -2.733  0.0000E+00  0.1340E+02
     -2.626  0.0000E+00  0.1340E+02
     -2.519  0.1225E-03  0.1340E+02
     -2.412  0.5184E+00  0.1353E+02
     -2.305  0.0000E+00  0.1353E+02
     -2.198  0.0000E+00  0.1353E+02
     -2.090  0.0000E+00  0.1353E+02
     -1.983  0.0000E+00  0.1353E+02
     -1.876  0.6199E-02  0.1353E+02
     -1.769  0.0000E+00  0.1375E+02
     -1.662  0.0000E+00  0.1375E+02
     -1.555  0.0000E+00  0.1375E+02
     -1.447  0.0000E+00  0.1375E+02
     -1.340  0.0000E+00  0.1375E+02
     -1.233  0.7293E+00  0.1383E+02
     -1.126  0.5755E-16  0.1386E+02
     -1.019  0.1037E+01  0.1397E+02
     -0.911  0.0000E+00  0.1397E+02
     -0.804  0.2770E-11  0.1397E+02
     -0.697  0.2073E+01  0.1419E+02
     -0.590  0.0000E+00  0.1419E+02
     -0.483  0.7436E-12  0.1419E+02
     -0.376  0.1097E+01  0.1431E+02
     -0.268  0.3110E+01  0.1486E+02
     -0.161  0.0000E+00  0.1486E+02
     -0.054  0.0000E+00  0.1486E+02
      0.053  0.1307E-01  0.1486E+02
      0.160  0.2525E+00  0.1511E+02
      0.267  0.1462E+01  0.1537E+02
      0.375  0.0000E+00  0.1549E+02
      0.482  0.2069E+01  0.1571E+02
      0.589  0.2073E+01  0.1594E+02
      0.696  0.2437E+00  0.1596E+02
      0.803  0.6725E-02  0.1605E+02
      0.911  0.2073E+01  0.1638E+02
      1.018  0.1037E+01  0.1649E+02
      1.125  0.2073E+01  0.1671E+02
      1.232  0.0000E+00  0.1671E+02
      1.339  0.2076E+01  0.1694E+02
      1.446  0.0000E+00  0.1716E+02
      1.554  0.0000E+00  0.1716E+02
      1.661  0.0000E+00  0.1716E+02
      1.768  0.2074E+01  0.1738E+02
      1.875  0.2608E-09  0.1745E+02
      1.982  0.1037E+01  0.1756E+02
      2.089  0.0000E+00  0.1771E+02
      2.197  0.0000E+00  0.1771E+02
      2.304  0.0000E+00  0.1771E+02
      2.411  0.5678E+00  0.1777E+02
      2.518  0.3478E-07  0.1782E+02
      2.625  0.1382E+01  0.1797E+02
      2.733  0.0000E+00  0.1797E+02
      2.840  0.0000E+00  0.1797E+02
      2.947  0.2066E+00  0.1799E+02
      3.054  0.0000E+00  0.1800E+02
      3.161  0.0000E+00  0.1800E+02
      3.268  0.3219E-01  0.1800E+02
      3.376  0.0000E+00  0.1801E+02
      3.483  0.0000E+00  0.1801E+02
      3.590  0.0000E+00  0.1801E+02
      3.697  0.0000E+00  0.1801E+02
      3.804  0.2426E+00  0.1804E+02
      3.912  0.0000E+00  0.1805E+02
      4.019  0.3228E+00  0.1808E+02
      4.126  0.0000E+00  0.1812E+02
      4.233  0.3783E-10  0.1812E+02
      4.340  0.2592E+00  0.1815E+02
      4.447  0.9866E+00  0.1825E+02
      4.555  0.2592E+00  0.1831E+02
      4.662  0.2328E-01  0.1831E+02
      4.769  0.0000E+00  0.1853E+02
      4.876  0.0000E+00  0.1853E+02
      4.983  0.0000E+00  0.1853E+02
      5.090  0.1036E+01  0.1864E+02
      5.198  0.2073E+01  0.1886E+02
      5.305  0.1655E+01  0.1904E+02
      5.412  0.2927E+01  0.1940E+02
      5.519  0.5184E+00  0.1953E+02
      5.626  0.0000E+00  0.1953E+02
      5.734  0.0000E+00  0.1953E+02
      5.841  0.0000E+00  0.1953E+02
      5.948  0.5173E+00  0.1958E+02
      6.055  0.4892E-13  0.1958E+02
      6.162  0.1136E+01  0.1971E+02
      6.269  0.7312E-02  0.1992E+02
      6.377  0.1037E+01  0.2025E+02
      6.484  0.2073E+01  0.2047E+02
      6.591  0.2250E-02  0.2047E+02
      6.698  0.1934E+01  0.2093E+02
      6.805  0.0000E+00  0.2094E+02
      6.912  0.0000E+00  0.2094E+02
      7.020  0.0000E+00  0.2094E+02
      7.127  0.1914E-04  0.2094E+02
      7.234  0.3456E+01  0.2131E+02
      7.341  0.3095E+01  0.2165E+02
      7.448  0.1300E+00  0.2166E+02
      7.556  0.1399E+01  0.2191E+02
      7.663  0.0000E+00  0.2228E+02
      7.770  0.0000E+00  0.2228E+02
      7.877  0.1381E-14  0.2228E+02
      7.984  0.2073E+01  0.2250E+02
      8.091  0.0000E+00  0.2250E+02
      8.199  0.2410E+01  0.2276E+02
      8.306  0.0000E+00  0.2283E+02
      8.413  0.0000E+00  0.2283E+02
      8.520  0.3110E+01  0.2317E+02
      8.627  0.6336E-04  0.2317E+02
      8.734  0.3100E+01  0.2350E+02
      8.842  0.0000E+00  0.2350E+02
      8.949  0.9485E+00  0.2360E+02
      9.056  0.1403E+01  0.2387E+02
      9.163  0.0000E+00  0.2394E+02
      9.270  0.0000E+00  0.2394E+02
      9.378  0.0000E+00  0.2394E+02
      9.485  0.0000E+00  0.2394E+02
      9.592  0.0000E+00  0.2394E+02
      9.699  0.0000E+00  0.2394E+02
      9.806  0.0000E+00  0.2394E+02
      9.913  0.2073E+01  0.2417E+02
     10.021  0.3140E+01  0.2450E+02
     10.128  0.0000E+00  0.2469E+02
     10.235  0.1786E+01  0.2488E+02
     10.342  0.1577E+01  0.2519E+02
     10.449  0.2349E+00  0.2522E+02
     10.556  0.7652E+00  0.2550E+02
     10.664  0.4332E-01  0.2557E+02
     10.771  0.0000E+00  0.2579E+02
     10.878  0.4222E+00  0.2583E+02
     10.985  0.1037E+01  0.2601E+02
     11.092  0.0000E+00  0.2601E+02
     11.200  0.2073E+01  0.2623E+02
     11.307  0.0000E+00  0.2623E+02
     11.414  0.4632E-03  0.2623E+02
     11.521  0.2764E+01  0.2658E+02
     11.628  0.7283E-01  0.2659E+02
     11.735  0.6911E+00  0.2688E+02
     11.843  0.0000E+00  0.2688E+02
     11.950  0.7388E+00  0.2696E+02
     12.057  0.0000E+00  0.2725E+02
     12.164  0.0000E+00  0.2725E+02
     12.271  0.2073E+01  0.2747E+02
     12.378  0.9269E-01  0.2748E+02
     12.486  0.0000E+00  0.2753E+02
     12.593  0.2418E+01  0.2779E+02
     12.700  0.3057E+01  0.2811E+02
     12.807  0.2041E+01  0.2834E+02
     12.914  0.0000E+00  0.2834E+02
     13.022  0.5184E+00  0.2840E+02
     13.129  0.1805E+00  0.2842E+02
     13.236  0.0000E+00  0.2845E+02
     13.343  0.0000E+00  0.2845E+02
     13.450  0.3110E+01  0.2879E+02
     13.557  0.2467E+01  0.2905E+02
     13.665  0.0000E+00  0.2906E+02
     13.772  0.2592E+00  0.2909E+02
     13.879  0.3110E+01  0.2943E+02
     13.986  0.2073E+01  0.2965E+02
     14.093  0.0000E+00  0.2965E+02
     14.201  0.0000E+00  0.2965E+02
     14.308  0.1165E-06  0.2965E+02
     14.415  0.2073E+01  0.2987E+02
     14.522  0.5525E-14  0.2987E+02
     14.629  0.2073E+01  0.3009E+02
     14.736  0.2084E-01  0.3009E+02
     14.844  0.2075E+01  0.3039E+02
     14.951  0.1242E-08  0.3044E+02
     15.058  0.2073E+01  0.3067E+02
     15.165  0.1043E+01  0.3078E+02
     15.272  0.0000E+00  0.3100E+02
     15.379  0.0000E+00  0.3100E+02
     15.487  0.0000E+00  0.3100E+02
     15.594  0.1478E+00  0.3102E+02
     15.701  0.2028E+01  0.3144E+02
     15.808  0.3143E+00  0.3148E+02
     15.915  0.3234E-01  0.3150E+02
     16.023  0.6407E-13  0.3172E+02
     16.130  0.2593E+00  0.3175E+02
     16.237  0.2262E-01  0.3186E+02
     16.344  0.0000E+00  0.3189E+02
     16.451  0.0000E+00  0.3189E+02
     16.558  0.0000E+00  0.3189E+02
     16.666  0.0000E+00  0.3189E+02
     16.773  0.0000E+00  0.3189E+02
     16.880  0.0000E+00  0.3189E+02
     16.987  0.3874E-11  0.3189E+02
     17.094  0.1037E+01  0.3200E+02
     17.201  0.0000E+00  0.3200E+02
     17.309  0.0000E+00  0.3200E+02
     17.416  0.0000E+00  0.3200E+02
     17.523  0.0000E+00  0.3200E+02
     17.630  0.0000E+00  0.3200E+02
     17.737  0.0000E+00  0.3200E+02
     17.845  0.0000E+00  0.3200E+02
     17.952  0.0000E+00  0.3200E+02
     18.059  0.0000E+00  0.3200E+02
     18.166  0.0000E+00  0.3200E+02
     18.273  0.0000E+00  0.3200E+02
     18.380  0.0000E+00  0.3200E+02
     18.488  0.0000E+00  0.3200E+02
     18.595  0.0000E+00  0.3200E+02
     18.59476523    -13.55836112  301      3.06748463      1.00000000
    -13.558  0.0000E+00  0.0000E+00  0.0000E+00
    -13.451  0.0000E+00  0.0000E+00  0.0000E+00
    -13.344  0.0000E+00  0.0000E+00  0.0000E+00
    -13.237  0.0000E+00  0.0000E+00  0.0000E+00
    -13.130  0.0000E+00  0.0000E+00  0.0000E+00
    -13.022  0.0000E+00  0.0000E+00  0.0000E+00
    -12.915  0.0000E+00  0.0000E+00  0.0000E+00
    -12.808  0.0000E+00  0.0000E+00  0.0000E+00
    -12.701  0.0000E+00  0.0000E+00  0.0000E+00
    -12.594  0.0000E+00  0.0000E+00  0.0000E+00
    -12.487  0.0000E+00  0.0000E+00  0.0000E+00
    -12.379  0.0000E+00  0.0000E+00  0.0000E+00
    -12.272  0.0000E+00  0.0000E+00  0.0000E+00
    -12.165  0.0000E+00  0.0000E+00  0.0000E+00
    -12.058  0.6166E-02  0.1452E-01  0.1267E+02
    -11.951  0.1280E-02  0.3619E-02  0.3094E+02
    -11.844  0.3054E-03  0.1143E-03  0.3309E+02
    -11.736  0.0000E+00  0.0000E+00  0.0000E+00
    -11.629  0.0000E+00  0.0000E+00  0.0000E+00
    -11.522  0.0000E+00  0.0000E+00  0.0000E+00
    -11.415  0.0000E+00  0.0000E+00  0.0000E+00
    -11.308  0.0000E+00  0.0000E+00  0.0000E+00
    -11.200  0.0000E+00  0.0000E+00  0.0000E+00
    -11.093  0.0000E+00  0.0000E+00  0.0000E+00
    -10.986  0.0000E+00  0.0000E+00  0.0000E+00
    -10.879  0.0000E+00  0.0000E+00  0.0000E+00
    -10.772  0.0000E+00  0.0000E+00  0.0000E+00
    -10.665  0.0000E+00  0.0000E+00  0.0000E+00
    -10.557  0.0000E+00  0.0000E+00  0.0000E+00
    -10.450  0.0000E+00  0.0000E+00  0.0000E+00
    -10.343  0.0000E+00  0.0000E+00  0.0000E+00
    -10.236  0.0000E+00  0.0000E+00  0.0000E+00
    -10.129  0.0000E+00  0.0000E+00  0.0000E+00
    -10.022  0.0000E+00  0.0000E+00  0.0000E+00
     -9.914  0.0000E+00  0.0000E+00  0.0000E+00
     -9.807  0.1630E-01  0.2096E-14  0.6023E-14
     -9.700  0.0000E+00  0.0000E+00  0.0000E+00
     -9.593  0.0000E+00  0.0000E+00  0.0000E+00
     -9.486  0.1225E+00  0.4037E-02  0.7890E-02
     -9.378  0.8960E-01  0.4164E-02  0.7161E-02
     -9.271  0.0000E+00  0.0000E+00  0.0000E+00
     -9.164  0.0000E+00  0.0000E+00  0.0000E+00
     -9.057  0.2094E-12  0.2030E-13  0.3134E-13
     -8.950  0.1621E+00  0.1572E-01  0.2426E-01
     -8.843  0.0000E+00  0.0000E+00  0.0000E+00
     -8.735  0.3223E-01  0.4789E-02  0.6356E-02
     -8.628  0.9634E-01  0.1446E-01  0.2141E-01
     -8.521  0.0000E+00  0.0000E+00  0.0000E+00
     -8.414  0.0000E+00  0.0000E+00  0.0000E+00
     -8.307  0.1492E-09  0.4433E-10  0.4417E-10
     -8.200  0.5730E-01  0.1702E-01  0.1696E-01
     -8.092  0.2177E+00  0.6611E-01  0.8182E-01
     -7.985  0.2252E+00  0.8776E-01  0.9662E-01
     -7.878  0.1764E+00  0.7695E-01  0.9076E-01
     -7.771  0.0000E+00  0.0000E+00  0.0000E+00
     -7.664  0.0000E+00  0.0000E+00  0.0000E+00
     -7.556  0.8880E-01  0.1055E+00  0.9189E-01
     -7.449  0.1194E+00  0.1566E+00  0.1530E+00
     -7.342  0.6828E-17  0.2382E-05  0.1772E-05
     -7.235  0.1006E-13  0.6378E-01  0.5347E-01
     -7.128  0.0000E+00  0.0000E+00  0.0000E+00
     -7.021  0.0000E+00  0.0000E+00  0.0000E+00
     -6.913  0.0000E+00  0.0000E+00  0.0000E+00
     -6.806  0.0000E+00  0.0000E+00  0.0000E+00
     -6.699  0.0000E+00  0.0000E+00  0.0000E+00
     -6.592  0.0000E+00  0.0000E+00  0.0000E+00
     -6.485  0.0000E+00  0.0000E+00  0.0000E+00
     -6.377  0.0000E+00  0.0000E+00  0.0000E+00
     -6.270  0.0000E+00  0.0000E+00  0.0000E+00
     -6.163  0.0000E+00  0.0000E+00  0.0000E+00
     -6.056  0.0000E+00  0.0000E+00  0.0000E+00
     -5.949  0.0000E+00  0.0000E+00  0.0000E+00
     -5.842  0.0000E+00  0.0000E+00  0.0000E+00
     -5.734  0.0000E+00  0.0000E+00  0.0000E+00
     -5.627  0.0000E+00  0.0000E+00  0.0000E+00
     -5.520  0.0000E+00  0.0000E+00  0.0000E+00
     -5.413  0.0000E+00  0.0000E+00  0.0000E+00
     -5.306  0.0000E+00  0.0000E+00  0.0000E+00
     -5.199  0.0000E+00  0.0000E+00  0.0000E+00
     -5.091  0.0000E+00  0.0000E+00  0.0000E+00
     -4.984  0.0000E+00  0.0000E+00  0.0000E+00
     -4.877  0.0000E+00  0.0000E+00  0.0000E+00
     -4.770  0.0000E+00  0.0000E+00  0.0000E+00
     -4.663  0.0000E+00  0.0000E+00  0.0000E+00
     -4.555  0.0000E+00  0.0000E+00  0.0000E+00
     -4.448  0.0000E+00  0.0000E+00  0.0000E+00
     -4.341  0.0000E+00  0.0000E+00  0.0000E+00
     -4.234  0.0000E+00  0.0000E+00  0.0000E+00
     -4.127  0.0000E+00  0.0000E+00  0.0000E+00
     -4.020  0.0000E+00  0.0000E+00  0.0000E+00
     -3.912  0.1203E+00  0.1437E-13  0.1456E-02
     -3.805  0.1912E+00  0.6134E-04  0.9429E-03
     -3.698  0.9628E-01  0.2356E-01  0.9878E-04
     -3.591  0.8852E+00  0.4594E-01  0.5603E-02
     -3.484  0.1532E+01  0.1428E+00  0.2510E-01
     -3.377  0.0000E+00  0.0000E+00  0.0000E+00
     -3.269  0.0000E+00  0.0000E+00  0.0000E+00
     -3.162  0.0000E+00  0.0000E+00  0.0000E+00
     -3.055  0.6173E+00  0.1216E+00  0.1723E-01
     -2.948  0.3485E-04  0.3405E-05  0.1244E-05
     -2.841  0.7393E+00  0.7225E-01  0.2638E-01
     -2.733  0.0000E+00  0.0000E+00  0.0000E+00
     -2.626  0.0000E+00  0.0000E+00  0.0000E+00
     -2.519  0.2844E-04  0.9475E-05  0.1584E-05
     -2.412  0.1767E+00  0.1525E-01  0.1062E-01
     -2.305  0.0000E+00  0.0000E+00  0.0000E+00
     -2.198  0.0000E+00  0.0000E+00  0.0000E+00
     -2.090  0.0000E+00  0.0000E+00  0.0000E+00
     -1.983  0.0000E+00  0.0000E+00  0.0000E+00
     -1.876  0.1642E-02  0.3697E-03  0.1252E-03
     -1.769  0.0000E+00  0.0000E+00  0.0000E+00
     -1.662  0.0000E+00  0.0000E+00  0.0000E+00
     -1.555  0.0000E+00  0.0000E+00  0.0000E+00
     -1.447  0.0000E+00  0.0000E+00  0.0000E+00
     -1.340  0.0000E+00  0.0000E+00  0.0000E+00
     -1.233  0.1768E+00  0.4771E-01  0.1709E-01
     -1.126  0.2818E-18  0.1001E-16  0.5183E-18
     -1.019  0.5076E-02  0.1803E+00  0.9336E-02
     -0.911  0.0000E+00  0.0000E+00  0.0000E+00
     -0.804  0.6373E-13  0.4634E-12  0.3206E-13
     -0.697  0.4771E-01  0.3469E+00  0.2400E-01
     -0.590  0.0000E+00  0.0000E+00  0.0000E+00
     -0.483  0.3696E-14  0.1228E-12  0.1226E-13
     -0.376  0.5728E-02  0.1823E+00  0.1767E-01
     -0.268  0.4340E-01  0.5814E+00  0.2767E-01
     -0.161  0.0000E+00  0.0000E+00  0.0000E+00
     -0.054  0.0000E+00  0.0000E+00  0.0000E+00
      0.053  0.6491E-03  0.2089E-02  0.2192E-03
      0.160  0.5672E-01  0.1494E-01  0.7917E-02
      0.267  0.5706E-01  0.2533E+00  0.2104E-01
      0.375  0.0000E+00  0.0000E+00  0.0000E+00
      0.482  0.4451E-02  0.3998E+00  0.2981E-01
      0.589  0.3173E-15  0.4235E+00  0.2264E-01
      0.696  0.2194E-15  0.4866E-01  0.3468E-02
      0.803  0.1608E-03  0.1149E-02  0.1489E-03
      0.911  0.1206E-01  0.3907E+00  0.3921E-01
      1.018  0.3658E-07  0.2068E+00  0.1697E-01
      1.125  0.8615E-01  0.3350E+00  0.5009E-01
      1.232  0.0000E+00  0.0000E+00  0.0000E+00
      1.339  0.8997E-15  0.4012E+00  0.4378E-01
      1.446  0.0000E+00  0.0000E+00  0.0000E+00
      1.554  0.0000E+00  0.0000E+00  0.0000E+00
      1.661  0.0000E+00  0.0000E+00  0.0000E+00
      1.768  0.5754E-15  0.3816E+00  0.5720E-01
      1.875  0.1119E-23  0.4325E-10  0.9422E-11
      1.982  0.4450E-14  0.1720E+00  0.3746E-01
      2.089  0.0000E+00  0.0000E+00  0.0000E+00
      2.197  0.0000E+00  0.0000E+00  0.0000E+00
      2.304  0.0000E+00  0.0000E+00  0.0000E+00
      2.411  0.1751E-15  0.8791E-01  0.2390E-01
      2.518  0.2173E-22  0.4814E-08  0.1697E-08
      2.625  0.8636E-15  0.1913E+00  0.6743E-01
      2.733  0.0000E+00  0.0000E+00  0.0000E+00
      2.840  0.0000E+00  0.0000E+00  0.0000E+00
      2.947  0.9154E-15  0.2147E-01  0.1280E-01
      3.054  0.0000E+00  0.0000E+00  0.0000E+00
      3.161  0.0000E+00  0.0000E+00  0.0000E+00
      3.268  0.1303E-01  0.5794E-17  0.2745E-18
      3.376  0.0000E+00  0.0000E+00  0.0000E+00
      3.483  0.0000E+00  0.0000E+00  0.0000E+00
      3.590  0.0000E+00  0.0000E+00  0.0000E+00
      3.697  0.0000E+00  0.0000E+00  0.0000E+00
      3.804  0.6687E-01  0.1408E-01  0.4475E-02
      3.912  0.0000E+00  0.0000E+00  0.0000E+00
      4.019  0.8483E-01  0.2455E-01  0.4522E-02
      4.126  0.0000E+00  0.0000E+00  0.0000E+00
      4.233  0.3009E-25  0.5878E-11  0.1780E-11
      4.340  0.2061E-15  0.4027E-01  0.1220E-01
      4.447  0.1671E+00  0.1103E+00  0.2149E-01
      4.555  0.5020E-01  0.1693E-15  0.1243E-01
      4.662  0.2076E-02  0.2285E-02  0.1042E-02
      4.769  0.0000E+00  0.0000E+00  0.0000E+00
      4.876  0.0000E+00  0.0000E+00  0.0000E+00
      4.983  0.0000E+00  0.0000E+00  0.0000E+00
      5.090  0.1140E+00  0.1018E+00  0.4324E-01
      5.198  0.3363E+00  0.2003E+00  0.6432E-01
      5.305  0.3072E+00  0.1744E+00  0.3960E-01
      5.412  0.4681E+00  0.2886E+00  0.8835E-01
      5.519  0.4938E-01  0.3691E-01  0.2345E-01
      5.626  0.0000E+00  0.0000E+00  0.0000E+00
      5.734  0.0000E+00  0.0000E+00  0.0000E+00
      5.841  0.0000E+00  0.0000E+00  0.0000E+00
      5.948  0.3181E-01  0.1204E+00  0.2127E-02
      6.055  0.9033E-28  0.6911E-14  0.2759E-14
      6.162  0.9376E-02  0.1548E+00  0.6292E-01
      6.269  0.1065E-02  0.3923E-03  0.3412E-03
      6.377  0.1786E+00  0.4245E-01  0.3841E-01
      6.484  0.3310E+00  0.1313E+00  0.8382E-01
      6.591  0.3154E-04  0.8077E-03  0.2356E-04
      6.698  0.1337E+00  0.3634E+00  0.4709E-01
      6.805  0.0000E+00  0.0000E+00  0.0000E+00
      6.912  0.0000E+00  0.0000E+00  0.0000E+00
      7.020  0.0000E+00  0.0000E+00  0.0000E+00
      7.127  0.3058E-20  0.6773E-05  0.3996E-06
      7.234  0.8100E-03  0.8378E+00  0.1276E+00
      7.341  0.1359E+00  0.5204E+00  0.1258E+00
      7.448  0.2001E-15  0.4437E-01  0.3075E-02
      7.556  0.4213E-01  0.2882E+00  0.5866E-01
      7.663  0.0000E+00  0.0000E+00  0.0000E+00
      7.770  0.0000E+00  0.0000E+00  0.0000E+00
      7.877  0.2806E-18  0.2173E-15  0.7498E-16
      7.984  0.4213E-03  0.3262E+00  0.1126E+00
      8.091  0.0000E+00  0.0000E+00  0.0000E+00
      8.199  0.7309E-16  0.6933E+00  0.9653E-01
      8.306  0.0000E+00  0.0000E+00  0.0000E+00
      8.413  0.0000E+00  0.0000E+00  0.0000E+00
      8.520  0.2064E-01  0.4667E+00  0.1704E+00
      8.627  0.8019E-21  0.1418E-04  0.3721E-05
      8.734  0.1208E+00  0.4848E+00  0.1455E+00
      8.842  0.0000E+00  0.0000E+00  0.0000E+00
      8.949  0.1678E-16  0.2586E+00  0.4507E-01
      9.056  0.9841E-01  0.1463E+00  0.4540E-01
      9.163  0.0000E+00  0.0000E+00  0.0000E+00
      9.270  0.0000E+00  0.0000E+00  0.0000E+00
      9.378  0.0000E+00  0.0000E+00  0.0000E+00
      9.485  0.0000E+00  0.0000E+00  0.0000E+00
      9.592  0.0000E+00  0.0000E+00  0.0000E+00
      9.699  0.0000E+00  0.0000E+00  0.0000E+00
      9.806  0.0000E+00  0.0000E+00  0.0000E+00
      9.913  0.3825E-01  0.3158E+00  0.1097E+00
     10.021  0.8296E-01  0.4896E+00  0.1350E+00
     10.128  0.0000E+00  0.0000E+00  0.0000E+00
     10.235  0.1076E-01  0.4922E+00  0.8950E-01
     10.342  0.2377E-01  0.3347E+00  0.1023E+00
     10.449  0.9377E-02  0.4613E-01  0.9335E-02
     10.556  0.1222E-01  0.5643E-01  0.4338E-01
     10.664  0.2704E-03  0.1232E-01  0.2136E-02
     10.771  0.0000E+00  0.0000E+00  0.0000E+00
     10.878  0.6820E-16  0.1219E+00  0.1924E-01
     10.985  0.1274E-15  0.2279E-02  0.1396E+00
     11.092  0.0000E+00  0.0000E+00  0.0000E+00
     11.200  0.2751E-15  0.5076E+00  0.1110E+00
     11.307  0.0000E+00  0.0000E+00  0.0000E+00
     11.414  0.3409E-04  0.1863E-04  0.2259E-04
     11.521  0.6453E-01  0.3086E+00  0.2113E+00
     11.628  0.1922E-02  0.6995E-02  0.5103E-02
     11.735  0.8741E-01  0.7546E-01  0.2333E-02
     11.843  0.0000E+00  0.0000E+00  0.0000E+00
     11.950  0.6889E-12  0.3584E-01  0.9269E-01
     12.057  0.0000E+00  0.0000E+00  0.0000E+00
     12.164  0.0000E+00  0.0000E+00  0.0000E+00
     12.271  0.4341E-01  0.3947E-01  0.1642E+00
     12.378  0.1363E-01  0.1305E-01  0.4153E-03
     12.486  0.0000E+00  0.0000E+00  0.0000E+00
     12.593  0.2128E-11  0.1314E+00  0.3062E+00
     12.700  0.1829E-01  0.3157E+00  0.1993E+00
     12.807  0.4019E-01  0.3686E+00  0.8418E-01
     12.914  0.0000E+00  0.0000E+00  0.0000E+00
     13.022  0.1309E-10  0.1709E+00  0.1635E-01
     13.129  0.7850E-03  0.1380E-04  0.3236E-01
     13.236  0.0000E+00  0.0000E+00  0.0000E+00
     13.343  0.0000E+00  0.0000E+00  0.0000E+00
     13.450  0.1660E+00  0.4146E+00  0.1258E+00
     13.557  0.1149E+00  0.2400E+00  0.1500E+00
     13.665  0.0000E+00  0.0000E+00  0.0000E+00
     13.772  0.2283E-01  0.1186E-09  0.1955E-02
     13.879  0.4294E-02  0.2347E+00  0.3722E+00
     13.986  0.4945E-02  0.5093E+00  0.1953E+00
     14.093  0.0000E+00  0.0000E+00  0.0000E+00
     14.201  0.0000E+00  0.0000E+00  0.0000E+00
     14.308  0.7806E-08  0.5852E-08  0.4900E-08
     14.415  0.1389E+00  0.1041E+00  0.8717E-01
     14.522  0.2257E-15  0.4259E-15  0.3765E-15
     14.629  0.8472E-01  0.1598E+00  0.1413E+00
     14.736  0.3524E-07  0.3102E-02  0.9053E-03
     14.844  0.8661E-08  0.2639E+00  0.1507E+00
     14.951  0.6255E-11  0.7156E-10  0.1428E-09
     15.058  0.1044E-01  0.1194E+00  0.2383E+00
     15.165  0.2897E-09  0.3193E+00  0.5785E-01
     15.272  0.0000E+00  0.0000E+00  0.0000E+00
     15.379  0.0000E+00  0.0000E+00  0.0000E+00
     15.487  0.0000E+00  0.0000E+00  0.0000E+00
     15.594  0.2840E-03  0.3498E-01  0.8157E-02
     15.701  0.1802E-01  0.6278E+00  0.8338E-01
     15.808  0.1305E-01  0.9694E-01  0.1297E-02
     15.915  0.6825E-03  0.5735E-02  0.1418E-02
     16.023  0.1359E-18  0.2583E-13  0.2872E-14
     16.130  0.1507E-05  0.1045E+00  0.1163E-01
     16.237  0.8482E-09  0.9607E-03  0.3353E-02
     16.344  0.0000E+00  0.0000E+00  0.0000E+00
     16.451  0.0000E+00  0.0000E+00  0.0000E+00
     16.558  0.0000E+00  0.0000E+00  0.0000E+00
     16.666  0.0000E+00  0.0000E+00  0.0000E+00
     16.773  0.0000E+00  0.0000E+00  0.0000E+00
     16.880  0.0000E+00  0.0000E+00  0.0000E+00
     16.987  0.7047E-13  0.7201E-12  0.2529E-13
     17.094  0.1886E-01  0.1927E+00  0.6767E-02
     17.201  0.0000E+00  0.0000E+00  0.0000E+00
     17.309  0.0000E+00  0.0000E+00  0.0000E+00
     17.416  0.0000E+00  0.0000E+00  0.0000E+00
     17.523  0.0000E+00  0.0000E+00  0.0000E+00
     17.630  0.0000E+00  0.0000E+00  0.0000E+00
     17.737  0.0000E+00  0.0000E+00  0.0000E+00
     17.845  0.0000E+00  0.0000E+00  0.0000E+00
     17.952  0.0000E+00  0.0000E+00  0.0000E+00
     18.059  0.0000E+00  0.0000E+00  0.0000E+00
     18.166  0.0000E+00  0.0000E+00  0.0000E+00
     18.273  0.0000E+00  0.0000E+00  0.0000E+00
     18.380  0.0000E+00  0.0000E+00  0.0000E+00
     18.488  0.0000E+00  0.0000E+00  0.0000E+00
     18.595  0.0000E+00  0.0000E+00  0.0000E+00
     18.59476523    -13.55836112  301      3.06748463      1.00000000
    -13.558  0.0000E+00  0.0000E+00  0.0000E+00
    -13.451  0.0000E+00  0.0000E+00  0.0000E+00
    -13.344  0.0000E+00  0.0000E+00  0.0000E+00
    -13.237  0.0000E+00  0.0000E+00  0.0000E+00
    -13.130  0.0000E+00  0.0000E+00  0.0000E+00
    -13.022  0.0000E+00  0.0000E+00  0.0000E+00
    -12.915  0.0000E+00  0.0000E+00  0.0000E+00
    -12.808  0.0000E+00  0.0000E+00  0.0000E+00
    -12.701  0.0000E+00  0.0000E+00  0.0000E+00
    -12.594  0.0000E+00  0.0000E+00  0.0000E+00
    -12.487  0.0000E+00  0.0000E+00  0.0000E+00
    -12.379  0.0000E+00  0.0000E+00  0.0000E+00
    -12.272  0.0000E+00  0.0000E+00  0.0000E+00
    -12.165  0.0000E+00  0.0000E+00  0.0000E+00
    -12.058  0.3098E+00  0.3202E-02  0.1151E-02
    -11.951  0.1088E-01  0.7691E-01  0.1242E-01
    -11.844  0.5097E-03  0.2657E-02  0.6381E-02
    -11.736  0.0000E+00  0.0000E+00  0.0000E+00
    -11.629  0.0000E+00  0.0000E+00  0.0000E+00
    -11.522  0.0000E+00  0.0000E+00  0.0000E+00
    -11.415  0.0000E+00  0.0000E+00  0.0000E+00
    -11.308  0.0000E+00  0.0000E+00  0.0000E+00
    -11.200  0.0000E+00  0.0000E+00  0.0000E+00
    -11.093  0.0000E+00  0.0000E+00  0.0000E+00
    -10.986  0.0000E+00  0.0000E+00  0.0000E+00
    -10.879  0.0000E+00  0.0000E+00  0.0000E+00
    -10.772  0.0000E+00  0.0000E+00  0.0000E+00
    -10.665  0.0000E+00  0.0000E+00  0.0000E+00
    -10.557  0.0000E+00  0.0000E+00  0.0000E+00
    -10.450  0.0000E+00  0.0000E+00  0.0000E+00
    -10.343  0.0000E+00  0.0000E+00  0.0000E+00
    -10.236  0.0000E+00  0.0000E+00  0.0000E+00
    -10.129  0.0000E+00  0.0000E+00  0.0000E+00
    -10.022  0.0000E+00  0.0000E+00  0.0000E+00
     -9.914  0.0000E+00  0.0000E+00  0.0000E+00
     -9.807  0.3621E-01  0.2588E-14  0.4550E-14
     -9.700  0.0000E+00  0.0000E+00  0.0000E+00
     -9.593  0.0000E+00  0.0000E+00  0.0000E+00
     -9.486  0.2928E+00  0.1948E-02  0.6493E-04
     -9.378  0.2207E+00  0.1960E-02  0.5810E-04
     -9.271  0.0000E+00  0.0000E+00  0.0000E+00
     -9.164  0.0000E+00  0.0000E+00  0.0000E+00
     -9.057  0.5869E-12  0.7968E-14  0.3302E-15
     -8.950  0.4544E+00  0.6169E-02  0.2556E-03
     -8.843  0.0000E+00  0.0000E+00  0.0000E+00
     -8.735  0.1024E+00  0.1621E-02  0.7408E-04
     -8.628  0.3146E+00  0.4092E-02  0.3202E-03
     -8.521  0.0000E+00  0.0000E+00  0.0000E+00
     -8.414  0.0000E+00  0.0000E+00  0.0000E+00
     -8.307  0.6414E-09  0.1150E-10  0.5086E-12
     -8.200  0.2463E+00  0.4416E-02  0.1953E-03
     -8.092  0.1016E+01  0.1198E-01  0.1165E-02
     -7.985  0.1208E+01  0.1525E-01  0.1207E-02
     -7.878  0.1066E+01  0.7843E-02  0.1378E-02
     -7.771  0.0000E+00  0.0000E+00  0.0000E+00
     -7.664  0.0000E+00  0.0000E+00  0.0000E+00
     -7.556  0.1121E+01  0.8559E-02  0.7821E-03
     -7.449  0.1741E+01  0.7311E-02  0.1109E-02
     -7.342  0.2189E-04  0.1327E-16  0.1337E-07
     -7.235  0.6171E+00  0.6039E-05  0.1544E-03
     -7.128  0.0000E+00  0.0000E+00  0.0000E+00
     -7.021  0.0000E+00  0.0000E+00  0.0000E+00
     -6.913  0.0000E+00  0.0000E+00  0.0000E+00
     -6.806  0.0000E+00  0.0000E+00  0.0000E+00
     -6.699  0.0000E+00  0.0000E+00  0.0000E+00
     -6.592  0.0000E+00  0.0000E+00  0.0000E+00
     -6.485  0.0000E+00  0.0000E+00  0.0000E+00
     -6.377  0.0000E+00  0.0000E+00  0.0000E+00
     -6.270  0.0000E+00  0.0000E+00  0.0000E+00
     -6.163  0.0000E+00  0.0000E+00  0.0000E+00
     -6.056  0.0000E+00  0.0000E+00  0.0000E+00
     -5.949  0.0000E+00  0.0000E+00  0.0000E+00
     -5.842  0.0000E+00  0.0000E+00  0.0000E+00
     -5.734  0.0000E+00  0.0000E+00  0.0000E+00
     -5.627  0.0000E+00  0.0000E+00  0.0000E+00
     -5.520  0.0000E+00  0.0000E+00  0.0000E+00
     -5.413  0.0000E+00  0.0000E+00  0.0000E+00
     -5.306  0.0000E+00  0.0000E+00  0.0000E+00
     -5.199  0.0000E+00  0.0000E+00  0.0000E+00
     -5.091  0.0000E+00  0.0000E+00  0.0000E+00
     -4.984  0.0000E+00  0.0000E+00  0.0000E+00
     -4.877  0.0000E+00  0.0000E+00  0.0000E+00
     -4.770  0.0000E+00  0.0000E+00  0.0000E+00
     -4.663  0.0000E+00  0.0000E+00  0.0000E+00
     -4.555  0.0000E+00  0.0000E+00  0.0000E+00
     -4.448  0.0000E+00  0.0000E+00  0.0000E+00
     -4.341  0.0000E+00  0.0000E+00  0.0000E+00
     -4.234  0.0000E+00  0.0000E+00  0.0000E+00
     -4.127  0.0000E+00  0.0000E+00  0.0000E+00
     -4.020  0.0000E+00  0.0000E+00  0.0000E+00