    2    2    1    1
  0.2258839E+02  0.3997699E-09  0.3997699E-09  0.3997699E-09  0.5000000E-15
  1.000000000000000E-004
  CAR 
 Name                                    
     18   1158     16
 
  0.0000000E+00  0.0000000E+00  0.0000000E+00  0.4629630E-02
    1      -11.988882   1.000000
    2      -11.988882   1.000000
    3      -11.988882   1.000000
    4      -11.909020   1.000000
    5      -11.909020   1.000000
    6       -9.823527   1.000000
    7        2.941034   1.000000
    8        2.941034   1.000000
    9        2.941034   1.000000
   10        3.270740   0.000000
   11        6.608208   0.000000
   12        6.608208   0.000000
   13        6.608208   0.000000
   14       10.277997   0.000000
   15       13.096761   0.000000
   16       13.096762   0.000000
 
  0.1666667E+00  0.0000000E+00  0.0000000E+00  0.3703704E-01
    1      -12.010305   1.000000
    2      -11.983018   1.000000
    3      -11.983018   1.000000
    4      -11.909220   1.000000
    5      -11.909220   1.000000
    6       -9.503892   1.000000
    7        0.168958   1.000000
    8        2.556740   1.000000
    9        2.556741   1.000000
   10        4.444133   0.000000
   11        7.156456   0.000000
   12        7.156456   0.000000
   13        7.512259   0.000000
   14       11.665671   0.000000
   15       11.959524   0.000000
   16       11.959524   0.000000
 
  0.3333333E+00  0.0000000E+00  0.0000000E+00  0.3703704E-01
    1      -12.048212   1.000000
    2      -11.973241   1.000000
    3      -11.973241   1.000000
    4      -11.907566   1.000000
    5      -11.907566   1.000000
    6       -8.676751   1.000000
    7       -2.493864   1.000000
    8        2.008259   1.000000
    9        2.008259   1.000000
   10        4.019267   0.000000
   11        7.575789   0.000000
   12        7.575789   0.000000
   13       10.032969   0.000000
   14       11.498027   0.000000
   15       12.568883   0.000000
   16       12.568883   0.000000
 
  0.5000000E+00  0.0000000E+00  0.0000000E+00  0.1851852E-01
    1      -12.065400   1.000000
    2      -11.969607   1.000000
    3      -11.969607   1.000000
    4      -11.905450   1.000000
    5      -11.905450   1.000000
    6       -8.058179   1.000000
    7       -3.755332   1.000000
    8        1.792827   1.000000
    9        1.792828   1.000000
   10        3.800577   0.000000
   11        7.516485   0.000000
   12        7.516485   0.000000
   13       10.498001   0.000000
   14       13.142928   0.000000
   15       14.749635   0.000000
   16       14.749711   0.000000
 
  0.1666667E+00  0.1666667E+00  0.0000000E+00  0.2777778E-01
    1      -12.022057   1.000000
    2      -11.977194   1.000000
    3      -11.977194   1.000000
    4      -11.914278   1.000000
    5      -11.905863   1.000000
    6       -9.397183   1.000000
    7        0.163227   1.000000
    8        1.919108   1.000000
    9        1.919108   1.000000
   10        5.365604   0.000000
   11        5.927559   0.000000
   12        8.155345   0.000000
   13        8.155345   0.000000
   14       10.331039   0.000000
   15       12.384999   0.000000
   16       13.544398   0.000000
 
  0.3333333E+00  0.1666667E+00  0.0000000E+00  0.1111111E+00
    1      -12.051478   1.000000
    2      -11.968681   1.000000
    3      -11.966252   1.000000
    4      -11.917139   1.000000
    5      -11.903463   1.000000
    6       -8.726712   1.000000
    7       -1.856621   1.000000
    8        1.052539   1.000000
    9        1.360559   1.000000
   10        5.338335   0.000000
   11        6.616203   0.000000
   12        8.494235   0.000000
   13        8.949583   0.000000
   14       11.641055   0.000000
   15       13.545939   0.000000
   16       13.851657   0.000000
 
  0.5000000E+00  0.1666667E+00  0.0000000E+00  0.1111111E+00
    1      -12.069648   1.000000
    2      -11.965710   1.000000
    3      -11.961621   1.000000
    4      -11.912965   1.000000
    5      -11.904018   1.000000
    6       -7.927167   1.000000
    7       -3.506133   1.000000
    8        0.268268   1.000000
    9        1.291336   1.000000
   10        5.157668   0.000000
   11        7.311961   0.000000
   12        8.655640   0.000000
   13        9.869886   0.000000
   14       12.642309   0.000000
   15       14.345197   0.000000
   16       14.779032   0.000000
 
 -0.3333333E+00  0.1666667E+00  0.0000000E+00  0.1111111E+00
    1      -12.063071   1.000000
    2      -11.967031   1.000000
    3      -11.965483   1.000000
    4      -11.909477   1.000000
    5      -11.908019   1.000000
    6       -8.153924   1.000000
    7       -3.088651   1.000000
    8        0.070770   1.000000
    9        1.732152   1.000000
   10        5.298900   0.000000
   11        7.573029   0.000000
   12        8.195624   0.000000
   13        9.947395   0.000000
   14       11.953490   0.000000
   15       12.791954   0.000000
   16       14.577326   0.000000
 
 -0.1666667E+00  0.1666667E+00  0.0000000E+00  0.5555556E-01
    1      -12.036100   1.000000
    2      -11.976224   1.000000
    3      -11.973044   1.000000
    4      -11.912003   1.000000
    5      -11.907117   1.000000
    6       -9.007435   1.000000
    7       -1.236775   1.000000
    8        0.820937   1.000000
    9        2.410177   1.000000
   10        5.415222   0.000000
   11        7.325665   0.000000
   12        7.456470   0.000000
   13        8.490820   0.000000
   14       10.927136   0.000000
   15       12.688454   0.000000
   16       13.404380   0.000000
 
  0.3333333E+00  0.3333333E+00  0.0000000E+00  0.2777778E-01
    1      -12.074686   1.000000
    2      -11.952992   1.000000
    3      -11.952992   1.000000
    4      -11.927279   1.000000
    5      -11.899542   1.000000
    6       -8.265386   1.000000
    7       -2.475316   1.000000
    8        0.701299   1.000000
    9        0.701299   1.000000
   10        4.399824   0.000000
   11        5.469227   0.000000
   12       10.879674   0.000000
   13       10.879674   0.000000
   14       11.435987   0.000000
   15       14.862860   0.000000
   16       15.806252   0.000000
 
  0.5000000E+00  0.3333333E+00  0.0000000E+00  0.1111111E+00
    1      -12.086220   1.000000
    2      -11.950882   1.000000
    3      -11.946870   1.000000
    4      -11.926868   1.000000
    5      -11.899675   1.000000
    6       -7.572489   1.000000
    7       -3.526080   1.000000
    8       -0.362186   1.000000
    9        0.547904   1.000000
   10        4.677884   0.000000
   11        6.174005   0.000000
   12       10.457857   0.000000
   13       11.165452   0.000000
   14       13.423933   0.000000
   15       15.184591   0.000000
   16       15.686722   0.000000
 
 -0.3333333E+00  0.3333333E+00  0.0000000E+00  0.5555556E-01
    1      -12.078748   1.000000
    2      -11.959200   1.000000
    3      -11.952011   1.000000
    4      -11.917449   1.000000
    5      -11.905870   1.000000
    6       -7.507809   1.000000
    7       -3.575300   1.000000
    8       -1.066614   1.000000
    9        0.973186   1.000000
   10        5.068033   0.000000
   11        8.717890   0.000000
   12       10.041169   0.000000
   13       10.329171   0.000000
   14       10.558188   0.000000
   15       12.565063   0.000000
   16       17.035534   0.000000
 
  0.5000000E+00  0.5000000E+00  0.0000000E+00  0.1388889E-01
    1      -12.096855   1.000000
    2      -11.940473   1.000000
    3      -11.940473   1.000000
    4      -11.934447   1.000000
    5      -11.896384   1.000000
    6       -7.316442   1.000000
    7       -3.938077   1.000000
    8        0.248226   1.000000
    9        0.248226   1.000000
   10        4.277604   0.000000
   11        4.488599   0.000000
   12       12.980696   0.000000
   13       12.980696   0.000000
   14       13.730489   0.000000
   15       16.073617   0.000000
   16       16.246470   0.000000
 
  0.5000000E+00  0.3333333E+00  0.1666667E+00  0.1111111E+00
    1      -12.071210   1.000000
    2      -11.962251   1.000000
    3      -11.955267   1.000000
    4      -11.919487   1.000000
    5      -11.903191   1.000000
    6       -8.013234   1.000000
    7       -2.920218   1.000000
    8       -0.302335   1.000000
    9        0.871955   1.000000
   10        6.288453   0.000000
   11        6.687521   0.000000
   12        7.933588   0.000000
   13       10.678055   0.000000
   14       12.243705   0.000000
   15       13.945033   0.000000
   16       15.930573   0.000000
 
 -0.3333333E+00  0.3333333E+00  0.1666667E+00  0.1111111E+00
    1      -12.078432   1.000000
    2      -11.961738   1.000000
    3      -11.950318   1.000000
    4      -11.917241   1.000000
    5      -11.905557   1.000000
    6       -7.506761   1.000000
    7       -3.612129   1.000000
    8       -0.754833   1.000000
    9        0.461380   1.000000
   10        6.454904   0.000000
   11        7.192820   0.000000
   12        9.052762   0.000000
   13       10.229457   0.000000
   14       11.476707   0.000000
   15       14.993740   0.000000
   16       15.604176   0.000000
 
 -0.3333333E+00  0.5000000E+00  0.1666667E+00  0.5555556E-01
    1      -12.087339   1.000000
    2      -11.953830   1.000000
    3      -11.944079   1.000000
    4      -11.924237   1.000000
    5      -11.902029   1.000000
    6       -7.272944   1.000000
    7       -3.803061   1.000000
    8       -0.432689   1.000000
    9       -0.292022   1.000000
   10        6.107716   0.000000
   11        6.301613   0.000000
   12        9.946634   0.000000
   13       10.242001   0.000000
   14       13.841396   0.000000
   15       15.085568   0.000000
   16       16.156578   0.000000
 
  0.0000000E+00  0.0000000E+00  0.0000000E+00  0.0000000E+00
    1      -11.988882   1.000000
    2      -11.988882   1.000000
    3      -11.988882   1.000000
    4      -11.909020   1.000000
    5      -11.909020   1.000000
    6       -9.823527   1.000000
    7        2.941034   1.000000
    8        2.941034   1.000000
    9        2.941034   1.000000
   10        3.270740   0.000000
   11        6.608208   0.000000
   12        6.608208   0.000000
   13        6.608208   0.000000
   14       10.277997   0.000000
   15       13.096761   0.000000
   16       13.096761   0.000000
 
  0.1831500E-02  0.0000000E+00  0.1831500E-02  0.0000000E+00
    1      -11.988887   1.000000
    2      -11.988881   1.000000
    3      -11.988881   1.000000
    4      -11.909020   1.000000
    5      -11.909019   1.000000
    6       -9.823475   1.000000
    7        2.937779   1.000000
    8        2.940848   1.000000
    9        2.940848   1.000000
   10        3.273988   0.000000
   11        6.607991   0.000000
   12        6.608459   0.000000
   13        6.608459   0.000000
   14       10.278336   0.000000
   15       13.095389   0.000000
   16       13.096815   0.000000
 
  0.3663000E-02  0.0000000E+00  0.3663000E-02  0.0000000E+00
    1      -11.988902   1.000000
    2      -11.988876   1.000000
    3      -11.988876   1.000000
    4      -11.909022   1.000000
    5      -11.909018   1.000000
    6       -9.823318   1.000000
    7        2.928370   1.000000
    8        2.940290   1.000000
    9        2.940290   1.000000
   10        3.283376   0.000000
   11        6.607341   0.000000
   12        6.609211   0.000000
   13        6.609211   0.000000
   14       10.279352   0.000000
   15       13.091299   0.000000
   16       13.096979   0.000000
 
  0.5494510E-02  0.0000000E+00  0.5494510E-02  0.0000000E+00
    1      -11.988926   1.000000
    2      -11.988869   1.000000
    3      -11.988868   1.000000
    4      -11.909025   1.000000
    5      -11.909016   1.000000
    6       -9.823054   1.000000
    7        2.913710   1.000000
    8        2.939359   1.000000
    9        2.939359   1.000000
   10        3.298001   0.000000
   11        6.606258   0.000000
   12        6.610463   0.000000
   13        6.610463   0.000000
   14       10.281044   0.000000
   15       13.084521   0.000000
   16       13.097255   0.000000
 
  0.7326010E-02  0.0000000E+00  0.7326010E-02  0.0000000E+00
    1      -11.988960   1.000000
    2      -11.988858   1.000000
    3      -11.988858   1.000000
    4      -11.909029   1.000000
    5      -11.909013   1.000000
    6       -9.822685   1.000000
    7        2.894888   1.000000
    8        2.938058   1.000000
    9        2.938058   1.000000
   10        3.316773   0.000000
   11        6.604745   0.000000
   12        6.612216   0.000000
   13        6.612216   0.000000
   14       10.283411   0.000000
   15       13.075143   0.000000
   16       13.097629   0.000000
 
  0.9157510E-02  0.0000000E+00  0.9157510E-02  0.0000000E+00
    1      -11.989004   1.000000
    2      -11.988844   1.000000
    3      -11.988844   1.000000
    4      -11.909035   1.000000
    5      -11.909010   1.000000
    6       -9.822210   1.000000
    7        2.872911   1.000000
    8        2.936387   1.000000
    9        2.936387   1.000000
   10        3.338685   0.000000
   11        6.602801   0.000000
   12        6.614467   0.000000
   13        6.614467   0.000000
   14       10.286451   0.000000
   15       13.063266   0.000000
   16       13.098115   0.000000
 
  0.1098901E-01  0.0000000E+00  0.1098901E-01  0.0000000E+00
    1      -11.989057   1.000000
    2      -11.988828   1.000000
    3      -11.988828   1.000000
    4      -11.909042   1.000000
    5      -11.909005   1.000000
    6       -9.821629   1.000000
    7        2.848586   1.000000
    8        2.934348   1.000000
    9        2.934348   1.000000
   10        3.362930   0.000000
   11        6.600431   0.000000
   12        6.617215   0.000000
   13        6.617215   0.000000
   14       10.290161   0.000000
   15       13.049016   0.000000
   16       13.098710   0.000000
 
  0.1282051E-01  0.0000000E+00  0.1282051E-01  0.0000000E+00
    1      -11.989121   1.000000
    2      -11.988808   1.000000
    3      -11.988808   1.000000
    4      -11.909049   1.000000
    5      -11.909000   1.000000
    6       -9.820942   1.000000
    7        2.822518   1.000000
    8        2.931942   1.000000
    9        2.931942   1.000000
   10        3.388903   0.000000
   11        6.597637   0.000000
   12        6.620458   0.000000
   13        6.620458   0.000000
   14       10.294538   0.000000
   15       13.032528   0.000000
   16       13.099414   0.000000
 
  0.1465201E-01  0.0000000E+00  0.1465201E-01  0.0000000E+00
    1      -11.989193   1.000000
    2      -11.988785   1.000000
    3      -11.988785   1.000000
    4      -11.909058   1.000000
    5      -11.908993   1.000000
    6       -9.820149   1.000000
    7        2.795145   1.000000
    8        2.929172   1.000000
    9        2.929172   1.000000
   10        3.416164   0.000000
   11        6.594423   0.000000
   12        6.624195   0.000000
   13        6.624195   0.000000
   14       10.299579   0.000000
   15       13.013949   0.000000
   16       13.100244   0.000000
 
  0.1648352E-01  0.0000000E+00  0.1648352E-01  0.0000000E+00
    1      -11.989276   1.000000
    2      -11.988759   1.000000
    3      -11.988759   1.000000
    4      -11.909069   1.000000
    5      -11.908986   1.000000
    6       -9.819251   1.000000
    7        2.766785   1.000000
    8        2.926040   1.000000
    9        2.926041   1.000000
   10        3.444396   0.000000
   11        6.590792   0.000000
   12        6.628422   0.000000
   13        6.628422   0.000000
   14       10.305280   0.000000
   15       12.993423   0.000000
   16       13.101148   0.000000
 
  0.1831502E-01  0.0000000E+00  0.1831502E-01  0.0000000E+00
    1      -11.989368   1.000000
    2      -11.988731   1.000000
    3      -11.988731   1.000000
    4      -11.909080   1.000000
    5      -11.908979   1.000000
    6       -9.818247   1.000000
    7        2.737666   1.000000
    8        2.922550   1.000000
    9        2.922550   1.000000
   10        3.473368   0.000000
   11        6.586749   0.000000
   12        6.633137   0.000000
   13        6.633137   0.000000
   14       10.311635   0.000000
   15       12.971107   0.000000
   16       13.102191   0.000000
 
  0.2014652E-01  0.0000000E+00  0.2014652E-01  0.0000000E+00
    1      -11.989470   1.000000
    2      -11.988699   1.000000
    3      -11.988699   1.000000
    4      -11.909093   1.000000
    5      -11.908970   1.000000
    6       -9.817137   1.000000
    7        2.707958   1.000000
    8        2.918703   1.000000
    9        2.918703   1.000000
   10        3.502913   0.000000
   11        6.582298   0.000000
   12        6.638336   0.000000
   13        6.638337   0.000000
   14       10.318640   0.000000
   15       12.947145   0.000000
   16       13.103314   0.000000
 
  0.2197802E-01  0.0000000E+00  0.2197802E-01  0.0000000E+00
    1      -11.989581   1.000000
    2      -11.988665   1.000000
    3      -11.988665   1.000000
    4      -11.909108   1.000000
    5      -11.908960   1.000000
    6       -9.815921   1.000000
    7        2.677778   1.000000
    8        2.914501   1.000000
    9        2.914501   1.000000
   10        3.532903   0.000000
   11        6.577445   0.000000
   12        6.644015   0.000000
   13        6.644015   0.000000
   14       10.326289   0.000000
   15       12.921665   0.000000
   16       13.104559   0.000000
 
  0.2380952E-01  0.0000000E+00  0.2380952E-01  0.0000000E+00
    1      -11.989702   1.000000
    2      -11.988627   1.000000
    3      -11.988627   1.000000
    4      -11.909123   1.000000
    5      -11.908950   1.000000
    6       -9.814600   1.000000
    7        2.647231   1.000000
    8        2.909952   1.000000
    9        2.909952   1.000000
   10        3.563247   0.000000
   11        6.572196   0.000000
   12        6.650173   0.000000
   13        6.650173   0.000000
   14       10.334576   0.000000
   15       12.894832   0.000000
   16       13.105913   0.000000
 
  0.2564103E-01  0.0000000E+00  0.2564103E-01  0.0000000E+00
    1      -11.989832   1.000000
    2      -11.988586   1.000000
    3      -11.988586   1.000000
    4      -11.909140   1.000000
    5      -11.908939   1.000000
    6       -9.813173   1.000000
    7        2.616383   1.000000
    8        2.905058   1.000000
    9        2.905058   1.000000
   10        3.593870   0.000000
   11        6.566557   0.000000
   12        6.656806   0.000000
   13        6.656806   0.000000
   14       10.343496   0.000000
   15       12.866756   0.000000
   16       13.107377   0.000000
 
  0.2747253E-01  0.0000000E+00  0.2747253E-01  0.0000000E+00
    1      -11.989972   1.000000
    2      -11.988543   1.000000
    3      -11.988543   1.000000
    4      -11.909157   1.000000
    5      -11.908927   1.000000
    6       -9.811642   1.000000
    7        2.585287   1.000000
    8        2.899821   1.000000
    9        2.899821   1.000000
   10        3.624714   0.000000
   11        6.560534   0.000000
   12        6.663907   0.000000
   13        6.663907   0.000000
   14       10.353036   0.000000
   15       12.837555   0.000000
   16       13.108944   0.000000
 
  0.2930403E-01  0.0000000E+00  0.2930403E-01  0.0000000E+00
    1      -11.990121   1.000000
    2      -11.988496   1.000000
    3      -11.988496   1.000000
    4      -11.909175   1.000000
    5      -11.908914   1.000000
    6       -9.810004   1.000000
    7        2.553992   1.000000
    8        2.894249   1.000000
    9        2.894249   1.000000
   10        3.655738   0.000000
   11        6.554134   0.000000
   12        6.671474   0.000000
   13        6.671474   0.000000
   14       10.363198   0.000000
   15       12.807339   0.000000
   16       13.110622   0.000000
 
  0.3113553E-01  0.0000000E+00  0.3113553E-01  0.0000000E+00
    1      -11.990280   1.000000
    2      -11.988446   1.000000
    3      -11.988446   1.000000
    4      -11.909194   1.000000
    5      -11.908901   1.000000
    6       -9.808261   1.000000
    7        2.522528   1.000000
    8        2.888344   1.000000
    9        2.888345   1.000000
   10        3.686905   0.000000
   11        6.547365   0.000000
   12        6.679502   0.000000
   13        6.679502   0.000000
   14       10.373970   0.000000
   15       12.776208   0.000000
   16       13.112410   0.000000
 
  0.3296703E-01  0.0000000E+00  0.3296703E-01  0.0000000E+00
    1      -11.990448   1.000000
    2      -11.988393   1.000000
    3      -11.988393   1.000000
    4      -11.909215   1.000000
    5      -11.908886   1.000000
    6       -9.806412   1.000000
    7        2.490924   1.000000
    8        2.882112   1.000000
    9        2.882112   1.000000
   10        3.718186   0.000000
   11        6.540235   0.000000
   12        6.687986   0.000000
   13        6.687987   0.000000
   14       10.385344   0.000000
   15       12.744254   0.000000
   16       13.114306   0.000000
 
  0.3479854E-01  0.0000000E+00  0.3479854E-01  0.0000000E+00
    1      -11.990625   1.000000
    2      -11.988337   1.000000
    3      -11.988337   1.000000
    4      -11.909237   1.000000
    5      -11.908871   1.000000
    6       -9.804458   1.000000
    7        2.459203   1.000000
    8        2.875557   1.000000
    9        2.875558   1.000000
   10        3.749556   0.000000
   11        6.532750   0.000000
   12        6.696922   0.000000
   13        6.696922   0.000000
   14       10.397312   0.000000
   15       12.711561   0.000000
   16       13.116310   0.000000
 
  0.3663004E-01  0.0000000E+00  0.3663004E-01  0.0000000E+00
    1      -11.990811   1.000000
    2      -11.988278   1.000000
    3      -11.988278   1.000000
    4      -11.909260   1.000000
    5      -11.908855   1.000000
    6       -9.802399   1.000000
    7        2.427383   1.000000
    8        2.868685   1.000000
    9        2.868685   1.000000
   10        3.780995   0.000000
   11        6.524919   0.000000
   12        6.706303   0.000000
   13        6.706303   0.000000
   14       10.409865   0.000000
   15       12.678207   0.000000
   16       13.118425   0.000000
 
  0.3846154E-01  0.0000000E+00  0.3846154E-01  0.0000000E+00
    1      -11.991006   1.000000
    2      -11.988217   1.000000
    3      -11.988217   1.000000
    4      -11.909284   1.000000
    5      -11.908840   1.000000
    6       -9.800235   1.000000
    7        2.395477   1.000000
    8        2.861497   1.000000
    9        2.861497   1.000000
   10        3.812486   0.000000
   11        6.516749   0.000000
   12        6.716123   0.000000
   13        6.716123   0.000000
   14       10.422993   0.000000
   15       12.644258   0.000000
   16       13.120630   0.000000
 
  0.4029304E-01  0.0000000E+00  0.4029304E-01  0.0000000E+00
    1      -11.991211   1.000000
    2      -11.988152   1.000000
    3      -11.988152   1.000000
    4      -11.909310   1.000000
    5      -11.908822   1.000000
    6       -9.797966   1.000000
    7        2.363503   1.000000
    8        2.854005   1.000000
    9        2.854006   1.000000
   10        3.844014   0.000000
   11        6.508251   0.000000
   12        6.726379   0.000000
   13        6.726379   0.000000
   14       10.436689   0.000000
   15       12.609788   0.000000
   16       13.122959   0.000000
 
  0.4212454E-01  0.0000000E+00  0.4212454E-01  0.0000000E+00
    1      -11.991424   1.000000
    2      -11.988083   1.000000
    3      -11.988083   1.000000
    4      -11.909337   1.000000
    5      -11.908803   1.000000
    6       -9.795592   1.000000
    7        2.331469   1.000000
    8        2.846212   1.000000
    9        2.846213   1.000000
   10        3.875566   0.000000
   11        6.499432   0.000000
   12        6.737065   0.000000
   13        6.737065   0.000000
   14       10.450941   0.000000
   15       12.574851   0.000000
   16       13.125396   0.000000
 
  0.4395605E-01  0.0000000E+00  0.4395605E-01  0.0000000E+00
    1      -11.991646   1.000000
    2      -11.988012   1.000000
    3      -11.988012   1.000000
    4      -11.909366   1.000000
    5      -11.908784   1.000000
    6       -9.793114   1.000000
    7        2.299381   1.000000
    8        2.838124   1.000000
    9        2.838124   1.000000
   10        3.907130   0.000000
   11        6.490301   0.000000
   12        6.748173   0.000000
   13        6.748173   0.000000
   14       10.465740   0.000000
   15       12.539463   0.000000
   16       13.127941   0.000000
 
  0.4578755E-01  0.0000000E+00  0.4578755E-01  0.0000000E+00
    1      -11.991877   1.000000
    2      -11.987938   1.000000
    3      -11.987938   1.000000
    4      -11.909396   1.000000
    5      -11.908764   1.000000
    6       -9.790530   1.000000
    7        2.267254   1.000000
    8        2.829746   1.000000
    9        2.829746   1.000000
   10        3.938698   0.000000
   11        6.480868   0.000000
   12        6.759700   0.000000
   13        6.759700   0.000000
   14       10.481077   0.000000
   15       12.503755   0.000000
   16       13.130595   0.000000
 
  0.4761905E-01  0.0000000E+00  0.4761905E-01  0.0000000E+00
    1      -11.992117   1.000000
    2      -11.987861   1.000000
    3      -11.987861   1.000000
    4      -11.909426   1.000000
    5      -11.908743   1.000000
    6       -9.787842   1.000000
    7        2.235090   1.000000
    8        2.821084   1.000000
    9        2.821084   1.000000
   10        3.970261   0.000000
   11        6.471142   0.000000
   12        6.771638   0.000000
   13        6.771638   0.000000
   14       10.496941   0.000000
   15       12.467733   0.000000
   16       13.133356   0.000000
 
  0.4945055E-01  0.0000000E+00  0.4945055E-01  0.0000000E+00
    1      -11.992366   1.000000
    2      -11.987781   1.000000
    3      -11.987781   1.000000
    4      -11.909458   1.000000
    5      -11.908721   1.000000
    6       -9.785050   1.000000
    7        2.202897   1.000000
    8        2.812145   1.000000
    9        2.812145   1.000000
   10        4.001809   0.000000
   11        6.461131   0.000000
   12        6.783981   0.000000
   13        6.783981   0.000000
   14       10.513320   0.000000
   15       12.431439   0.000000
   16       13.136227   0.000000
 
  0.5128205E-01  0.0000000E+00  0.5128205E-01  0.0000000E+00
    1      -11.992623   1.000000
    2      -11.987698   1.000000
    3      -11.987698   1.000000
    4      -11.909491   1.000000
    5      -11.908699   1.000000
    6       -9.782153   1.000000
    7        2.170678   1.000000
    8        2.802933   1.000000
    9        2.802934   1.000000
   10        4.033334   0.000000
   11        6.450845   0.000000
   12        6.796724   0.000000
   13        6.796724   0.000000
   14       10.530203   0.000000
   15       12.394914   0.000000
   16       13.139205   0.000000
 
  0.5311355E-01  0.0000000E+00  0.5311355E-01  0.0000000E+00
    1      -11.992889   1.000000
    2      -11.987612   1.000000
    3      -11.987612   1.000000
    4      -11.909526   1.000000
    5      -11.908675   1.000000
    6       -9.779152   1.000000
    7        2.138439   1.000000
    8        2.793457   1.000000
    9        2.793457   1.000000
   10        4.064829   0.000000
   11        6.440293   0.000000
   12        6.809861   0.000000
   13        6.809861   0.000000
   14       10.547580   0.000000
   15       12.358196   0.000000
   16       13.142291   0.000000
 
  0.5494506E-01  0.0000000E+00  0.5494506E-01  0.0000000E+00
    1      -11.993164   1.000000
    2      -11.987524   1.000000
    3      -11.987524   1.000000
    4      -11.909561   1.000000
    5      -11.908651   1.000000
    6       -9.776046   1.000000
    7        2.106184   1.000000
    8        2.783721   1.000000
    9        2.783721   1.000000
   10        4.096288   0.000000
   11        6.429486   0.000000
   12        6.823384   0.000000
   13        6.823384   0.000000
   14       10.565439   0.000000
   15       12.321319   0.000000
   16       13.145486   0.000000
 
  0.5677656E-01  0.0000000E+00  0.5677656E-01  0.0000000E+00
    1      -11.993446   1.000000
    2      -11.987432   1.000000
    3      -11.987432   1.000000
    4      -11.909596   1.000000
    5      -11.908626   1.000000
    6       -9.772837   1.000000
    7        2.073916   1.000000
    8        2.773731   1.000000
    9        2.773732   1.000000
   10        4.127705   0.000000
   11        6.418433   0.000000
   12        6.837288   0.000000
   13        6.837288   0.000000
   14       10.583766   0.000000
   15       12.284319   0.000000
   16       13.148789   0.000000
 
  0.5860806E-01  0.0000000E+00  0.5860806E-01  0.0000000E+00
    1      -11.993738   1.000000
    2      -11.987337   1.000000
    3      -11.987337   1.000000
    4      -11.909634   1.000000
    5      -11.908601   1.000000
    6       -9.769523   1.000000
    7        2.041638   1.000000
    8        2.763495   1.000000
    9        2.763495   1.000000
   10        4.159071   0.000000
   11        6.407143   0.000000
   12        6.851566   0.000000
   13        6.851566   0.000000
   14       10.602550   0.000000
   15       12.247226   0.000000
   16       13.152199   0.000000
 
  0.6043956E-01  0.0000000E+00  0.6043956E-01  0.0000000E+00
    1      -11.994037   1.000000
    2      -11.987240   1.000000
    3      -11.987239   1.000000
    4      -11.909674   1.000000
    5      -11.908574   1.000000
    6       -9.766106   1.000000
    7        2.009353   1.000000
    8        2.753018   1.000000
    9        2.753019   1.000000
   10        4.190382   0.000000
   11        6.395625   0.000000
   12        6.866212   0.000000
   13        6.866212   0.000000
   14       10.621776   0.000000
   15       12.210070   0.000000
   16       13.155719   0.000000
 
  0.6227106E-01  0.0000000E+00  0.6227106E-01  0.0000000E+00
    1      -11.994345   1.000000
    2      -11.987139   1.000000
    3      -11.987139   1.000000
    4      -11.909714   1.000000
    5      -11.908547   1.000000