       N       E                     dE             d eps       ncg     rms          ort
DAV:   1     0.479006659855E+04    0.47901E+04   -0.21198E+05 16092   0.156E+03
DAV:   2     0.155869329469E+04   -0.32314E+04   -0.29913E+04 16092   0.318E+02
DAV:   3     0.969744991320E+03   -0.58895E+03   -0.57097E+03 16092   0.153E+02
DAV:   4     0.927400052922E+03   -0.42345E+02   -0.41831E+02 16092   0.419E+01
DAV:   5     0.925734854974E+03   -0.16652E+01   -0.16592E+01 16092   0.877E+00
SDA:   6    -0.186993578883E+03   -0.11127E+04   -0.16592E+01 16092   0.594E+03 0.000E+00
CGA:   7    -0.215525280186E+03   -0.28532E+02   -0.34807E+03 16092   0.106E+04-0.571E+03
CGA:   8    -0.437474548617E+03   -0.22195E+03   -0.22254E+03 16092   0.152E+03 0.304E+02
CGA:   9    -0.468747874780E+03   -0.31273E+02   -0.31342E+02 16092   0.471E+02 0.179E+01
CGA:  10    -0.480044476156E+03   -0.11297E+02   -0.11288E+02 16092   0.116E+02 0.408E+00
CGA:  11    -0.483713083173E+03   -0.36686E+01   -0.36558E+01 16092   0.363E+01 0.893E-01
CGA:  12    -0.484812077281E+03   -0.10990E+01   -0.10976E+01 16092   0.135E+01 0.183E-01
CGA:  13    -0.485194183024E+03   -0.38211E+00   -0.38188E+00 16092   0.511E+00 0.497E-02
CGA:  14    -0.485341593658E+03   -0.14741E+00   -0.14741E+00 16092   0.140E+00-0.641E-03
CGA:  15    -0.485387753210E+03   -0.46160E-01   -0.46144E-01 16092   0.349E-01 0.193E-03
CGA:  16    -0.485398628683E+03   -0.10875E-01   -0.10860E-01 16092   0.152E-01 0.201E-03
CGA:  17    -0.485402392053E+03   -0.37634E-02   -0.37644E-02 16092   0.552E-02-0.199E-03
CGA:  18    -0.485404256070E+03   -0.18640E-02   -0.18610E-02 16092   0.162E-02 0.269E-04
CGA:  19    -0.485404915490E+03   -0.65942E-03   -0.66052E-03 16092   0.577E-03-0.762E-05
CGA:  20    -0.485405144791E+03   -0.22930E-03   -0.22553E-03 16092   0.212E-03 0.272E-04
CGA:  21    -0.485405230452E+03   -0.85661E-04   -0.86336E-04 16092   0.125E-03-0.535E-05
CGA:  22    -0.485405260327E+03   -0.29875E-04   -0.30154E-04 16092   0.464E-04 0.135E-04
CGA:  23    -0.485405280916E+03   -0.20589E-04   -0.21029E-04 16092   0.249E-04-0.310E-05
CGA:  24    -0.485405288629E+03   -0.77124E-05   -0.77234E-05 16092   0.131E-04-0.188E-06
CGA:  25    -0.485405292216E+03   -0.35871E-05   -0.35887E-05 16092   0.545E-05 0.100E-05
CGA:  26    -0.485405294400E+03   -0.21843E-05   -0.29668E-05 16092   0.873E-05-0.342E-05
CGA:  27    -0.485405295254E+03   -0.85367E-06   -0.11570E-05 16092   0.151E-05 0.195E-05
   1 F= -.48540530E+03 E0= -.48540530E+03  d E =-.246518E-21  mag=     0.0000     0.0000     0.0000
