  96  96   0   0
  0.2080188E+02  0.1257760E-08  0.1245754E-08  0.1274818E-08  0.5000000E-15
  1.000000000000000E-004
  CAR 
 MAPbI3-Cubic                            
      8.93064223    -19.57757468  301      1.44723529      1.00000000
    -19.578  0.0000E+00  0.0000E+00
    -19.483  0.0000E+00  0.0000E+00
    -19.388  0.0000E+00  0.0000E+00
    -19.292  0.0000E+00  0.0000E+00
    -19.197  0.0000E+00  0.0000E+00
    -19.102  0.0000E+00  0.0000E+00
    -19.007  0.0000E+00  0.0000E+00
    -18.912  0.0000E+00  0.0000E+00
    -18.817  0.0000E+00  0.0000E+00
    -18.722  0.0000E+00  0.0000E+00
    -18.627  0.0000E+00  0.0000E+00
    -18.532  0.0000E+00  0.0000E+00
    -18.437  0.0000E+00  0.0000E+00
    -18.342  0.0000E+00  0.0000E+00
    -18.247  0.0000E+00  0.1600E+02
    -18.152  0.0000E+00  0.1600E+02
    -18.057  0.0000E+00  0.1600E+02
    -17.962  0.0000E+00  0.1600E+02
    -17.867  0.0000E+00  0.1600E+02
    -17.772  0.0000E+00  0.1600E+02
    -17.677  0.0000E+00  0.1600E+02
    -17.582  0.0000E+00  0.1600E+02
    -17.487  0.0000E+00  0.1600E+02
    -17.392  0.0000E+00  0.1600E+02
    -17.297  0.0000E+00  0.1600E+02
    -17.202  0.0000E+00  0.1600E+02
    -17.107  0.0000E+00  0.1600E+02
    -17.012  0.0000E+00  0.1600E+02
    -16.917  0.0000E+00  0.1600E+02
    -16.822  0.0000E+00  0.1600E+02
    -16.727  0.0000E+00  0.1600E+02
    -16.632  0.0000E+00  0.1600E+02
    -16.537  0.0000E+00  0.1600E+02
    -16.442  0.0000E+00  0.1600E+02
    -16.347  0.0000E+00  0.1600E+02
    -16.252  0.0000E+00  0.1600E+02
    -16.157  0.0000E+00  0.1600E+02
    -16.062  0.0000E+00  0.1600E+02
    -15.967  0.0000E+00  0.1600E+02
    -15.872  0.0000E+00  0.1600E+02
    -15.776  0.0000E+00  0.1600E+02
    -15.681  0.0000E+00  0.1600E+02
    -15.586  0.0000E+00  0.1600E+02
    -15.491  0.0000E+00  0.1600E+02
    -15.396  0.0000E+00  0.1600E+02
    -15.301  0.0000E+00  0.1600E+02
    -15.206  0.0000E+00  0.1600E+02
    -15.111  0.0000E+00  0.1600E+02
    -15.016  0.3274E+02  0.8000E+02
    -14.921  0.0000E+00  0.9600E+02
    -14.826  0.0000E+00  0.9600E+02
    -14.731  0.0000E+00  0.9600E+02
    -14.636  0.0000E+00  0.9600E+02
    -14.541  0.0000E+00  0.9600E+02
    -14.446  0.0000E+00  0.9600E+02
    -14.351  0.0000E+00  0.9600E+02
    -14.256  0.0000E+00  0.9600E+02
    -14.161  0.0000E+00  0.9600E+02
    -14.066  0.0000E+00  0.9600E+02
    -13.971  0.0000E+00  0.9600E+02
    -13.876  0.0000E+00  0.9600E+02
    -13.781  0.0000E+00  0.9600E+02
    -13.686  0.0000E+00  0.9600E+02
    -13.591  0.0000E+00  0.9600E+02
    -13.496  0.0000E+00  0.9600E+02
    -13.401  0.0000E+00  0.9600E+02
    -13.306  0.0000E+00  0.9600E+02
    -13.211  0.0000E+00  0.9600E+02
    -13.116  0.0000E+00  0.9600E+02
    -13.021  0.0000E+00  0.9600E+02
    -12.926  0.0000E+00  0.9600E+02
    -12.831  0.0000E+00  0.9600E+02
    -12.736  0.0000E+00  0.9600E+02
    -12.641  0.0000E+00  0.9600E+02
    -12.546  0.0000E+00  0.9600E+02
    -12.451  0.0000E+00  0.9600E+02
    -12.355  0.0000E+00  0.9600E+02
    -12.260  0.0000E+00  0.9600E+02
    -12.165  0.0000E+00  0.9600E+02
    -12.070  0.0000E+00  0.9600E+02
    -11.975  0.0000E+00  0.9600E+02
    -11.880  0.0000E+00  0.9600E+02
    -11.785  0.0000E+00  0.9600E+02
    -11.690  0.0000E+00  0.9600E+02
    -11.595  0.0000E+00  0.9600E+02
    -11.500  0.0000E+00  0.9600E+02
    -11.405  0.0000E+00  0.9600E+02
    -11.310  0.1824E+02  0.1057E+03
    -11.215  0.0000E+00  0.1120E+03
    -11.120  0.0000E+00  0.1120E+03
    -11.025  0.0000E+00  0.1120E+03
    -10.930  0.0000E+00  0.1120E+03
    -10.835  0.7795E+00  0.1121E+03
    -10.740  0.3720E-04  0.1134E+03
    -10.645  0.4678E+01  0.1172E+03
    -10.550  0.3469E+01  0.1228E+03
    -10.455  0.8005E-02  0.1280E+03
    -10.360  0.3118E+01  0.1299E+03
    -10.265  0.5730E+01  0.1377E+03
    -10.170  0.3117E+01  0.1425E+03
    -10.075  0.3128E+01  0.1448E+03
     -9.980  0.4583E+01  0.1552E+03
     -9.885  0.0000E+00  0.1600E+03
     -9.790  0.0000E+00  0.1600E+03
     -9.695  0.0000E+00  0.1600E+03
     -9.600  0.0000E+00  0.1600E+03
     -9.505  0.0000E+00  0.1600E+03
     -9.410  0.0000E+00  0.1600E+03
     -9.315  0.0000E+00  0.1600E+03
     -9.220  0.0000E+00  0.1600E+03
     -9.125  0.0000E+00  0.1600E+03
     -9.030  0.0000E+00  0.1600E+03
     -8.935  0.0000E+00  0.1600E+03
     -8.839  0.0000E+00  0.1600E+03
     -8.744  0.0000E+00  0.1600E+03
     -8.649  0.0000E+00  0.1600E+03
     -8.554  0.0000E+00  0.1600E+03
     -8.459  0.0000E+00  0.1600E+03
     -8.364  0.0000E+00  0.1600E+03
     -8.269  0.0000E+00  0.1600E+03
     -8.174  0.0000E+00  0.1600E+03
     -8.079  0.0000E+00  0.1600E+03
     -7.984  0.0000E+00  0.1600E+03
     -7.889  0.0000E+00  0.1600E+03
     -7.794  0.0000E+00  0.1600E+03
     -7.699  0.1094E+02  0.1733E+03
     -7.604  0.0000E+00  0.1920E+03
     -7.509  0.0000E+00  0.1920E+03
     -7.414  0.0000E+00  0.1920E+03
     -7.319  0.0000E+00  0.1920E+03
     -7.224  0.0000E+00  0.1920E+03
     -7.129  0.0000E+00  0.1920E+03
     -7.034  0.0000E+00  0.1921E+03
     -6.939  0.9895E-07  0.1921E+03
     -6.844  0.0000E+00  0.1925E+03
     -6.749  0.0000E+00  0.1934E+03
     -6.654  0.0000E+00  0.1941E+03
     -6.559  0.5718E+00  0.1945E+03
     -6.464  0.0000E+00  0.1964E+03
     -6.369  0.0000E+00  0.1987E+03
     -6.274  0.7099E-08  0.1997E+03
     -6.179  0.3118E+01  0.2012E+03
     -6.084  0.0000E+00  0.2033E+03
     -5.989  0.4668E+01  0.2051E+03
     -5.894  0.1318E+01  0.2064E+03
     -5.799  0.6233E+01  0.2146E+03
     -5.704  0.0000E+00  0.2226E+03
     -5.609  0.0000E+00  0.2235E+03
     -5.514  0.0000E+00  0.2239E+03
     -5.418  0.0000E+00  0.2239E+03
     -5.323  0.0000E+00  0.2240E+03
     -5.228  0.0000E+00  0.2240E+03
     -5.133  0.0000E+00  0.2240E+03
     -5.038  0.0000E+00  0.2240E+03
     -4.943  0.0000E+00  0.2240E+03
     -4.848  0.0000E+00  0.2240E+03
     -4.753  0.0000E+00  0.2240E+03
     -4.658  0.0000E+00  0.2240E+03
     -4.563  0.0000E+00  0.2240E+03
     -4.468  0.0000E+00  0.2240E+03
     -4.373  0.0000E+00  0.2240E+03
     -4.278  0.0000E+00  0.2240E+03
     -4.183  0.0000E+00  0.2240E+03
     -4.088  0.0000E+00  0.2240E+03
     -3.993  0.0000E+00  0.2240E+03
     -3.898  0.0000E+00  0.2240E+03
     -3.803  0.0000E+00  0.2240E+03
     -3.708  0.0000E+00  0.2240E+03
     -3.613  0.1535E+01  0.2244E+03
     -3.518  0.2972E+02  0.2493E+03
     -3.423  0.0000E+00  0.2560E+03
     -3.328  0.0000E+00  0.2560E+03
     -3.233  0.0000E+00  0.2560E+03
     -3.138  0.0000E+00  0.2560E+03
     -3.043  0.0000E+00  0.2560E+03
     -2.948  0.0000E+00  0.2560E+03
     -2.853  0.0000E+00  0.2560E+03
     -2.758  0.0000E+00  0.2560E+03
     -2.663  0.0000E+00  0.2560E+03
     -2.568  0.0000E+00  0.2560E+03
     -2.473  0.0000E+00  0.2560E+03
     -2.378  0.0000E+00  0.2560E+03
     -2.283  0.0000E+00  0.2560E+03
     -2.188  0.0000E+00  0.2560E+03
     -2.093  0.1870E+01  0.2566E+03
     -1.998  0.3378E+01  0.2589E+03
     -1.902  0.9975E+00  0.2617E+03
     -1.807  0.3224E+01  0.2640E+03
     -1.712  0.1286E+01  0.2664E+03
     -1.617  0.3119E+01  0.2692E+03
     -1.522  0.5656E+01  0.2731E+03
     -1.427  0.3118E+01  0.2766E+03
     -1.332  0.9005E+00  0.2792E+03
     -1.237  0.9459E-04  0.2799E+03
     -1.142  0.0000E+00  0.2800E+03
     -1.047  0.9028E-05  0.2800E+03
     -0.952  0.2048E-04  0.2813E+03
     -0.857  0.5335E+01  0.2858E+03
     -0.762  0.6227E+01  0.2933E+03
     -0.667  0.8027E+01  0.2991E+03
     -0.572  0.1559E+01  0.3031E+03
     -0.477  0.2434E+01  0.3062E+03
     -0.382  0.4677E+01  0.3106E+03
     -0.287  0.7314E+01  0.3155E+03
     -0.192  0.4587E+01  0.3220E+03
     -0.097  0.3464E+01  0.3293E+03
     -0.002  0.1559E+01  0.3347E+03
      0.093  0.3161E+01  0.3414E+03
      0.188  0.6252E+01  0.3493E+03
      0.283  0.1559E+01  0.3586E+03
      0.378  0.1501E+00  0.3654E+03
      0.473  0.1108E+02  0.3736E+03
      0.568  0.1278E+02  0.3825E+03
      0.663  0.9354E+01  0.3889E+03
      0.758  0.4625E+01  0.3934E+03
      0.853  0.0000E+00  0.3961E+03
      0.948  0.2339E+01  0.3979E+03
      1.043  0.0000E+00  0.3993E+03
      1.138  0.4223E-06  0.3993E+03
      1.233  0.0000E+00  0.3998E+03
      1.328  0.0000E+00  0.3999E+03
      1.423  0.0000E+00  0.4000E+03
      1.519  0.0000E+00  0.4000E+03
      1.614  0.0000E+00  0.4000E+03
      1.709  0.0000E+00  0.4000E+03
      1.804  0.0000E+00  0.4000E+03
      1.899  0.0000E+00  0.4000E+03
      1.994  0.0000E+00  0.4000E+03
      2.089  0.0000E+00  0.4000E+03
      2.184  0.0000E+00  0.4000E+03
      2.279  0.0000E+00  0.4000E+03
      2.374  0.0000E+00  0.4000E+03
      2.469  0.0000E+00  0.4000E+03
      2.564  0.0000E+00  0.4000E+03
      2.659  0.0000E+00  0.4000E+03
      2.754  0.0000E+00  0.4000E+03
      2.849  0.0000E+00  0.4000E+03
      2.944  0.0000E+00  0.4000E+03
      3.039  0.2339E+01  0.4007E+03
      3.134  0.0000E+00  0.4007E+03
      3.229  0.0000E+00  0.4024E+03
      3.324  0.2339E+01  0.4033E+03
      3.419  0.1558E+01  0.4042E+03
      3.514  0.0000E+00  0.4059E+03
      3.609  0.0000E+00  0.4067E+03
      3.704  0.0000E+00  0.4077E+03
      3.799  0.7853E+00  0.4084E+03
      3.894  0.0000E+00  0.4093E+03
      3.989  0.0000E+00  0.4107E+03
      4.084  0.0000E+00  0.4116E+03
      4.179  0.1559E+01  0.4141E+03
      4.274  0.3118E+01  0.4157E+03
      4.369  0.4677E+01  0.4181E+03
      4.464  0.3118E+01  0.4210E+03
      4.559  0.0000E+00  0.4227E+03
      4.654  0.0000E+00  0.4239E+03
      4.749  0.0000E+00  0.4240E+03
      4.844  0.0000E+00  0.4240E+03
      4.939  0.0000E+00  0.4240E+03
      5.035  0.0000E+00  0.4241E+03
      5.130  0.0000E+00  0.4242E+03
      5.225  0.0000E+00  0.4248E+03
      5.320  0.4954E+01  0.4271E+03
      5.415  0.3118E+01  0.4292E+03
      5.510  0.3118E+01  0.4327E+03
      5.605  0.1700E-05  0.4366E+03
      5.700  0.3030E+01  0.4390E+03
      5.795  0.3129E+01  0.4414E+03
      5.890  0.3898E+01  0.4428E+03
      5.985  0.2242E+01  0.4465E+03
      6.080  0.5733E+01  0.4500E+03
      6.175  0.7795E+01  0.4539E+03
      6.270  0.2062E+01  0.4588E+03
      6.365  0.6114E+01  0.4622E+03
      6.460  0.9353E+01  0.4667E+03
      6.555  0.4723E+01  0.4722E+03
      6.650  0.7795E+00  0.4764E+03
      6.745  0.4677E+01  0.4795E+03
      6.840  0.2578E+01  0.4834E+03
      6.935  0.6460E-04  0.4875E+03
      7.030  0.1637E+01  0.4903E+03
      7.125  0.5469E+01  0.4944E+03
      7.220  0.2455E+01  0.4988E+03
      7.315  0.5512E+01  0.5033E+03
      7.410  0.4975E-01  0.5067E+03
      7.505  0.3350E+01  0.5107E+03
      7.600  0.0000E+00  0.5119E+03
      7.695  0.0000E+00  0.5120E+03
      7.790  0.0000E+00  0.5120E+03
      7.885  0.0000E+00  0.5120E+03
      7.980  0.0000E+00  0.5120E+03
      8.075  0.0000E+00  0.5120E+03
      8.170  0.0000E+00  0.5120E+03
      8.265  0.0000E+00  0.5120E+03
      8.360  0.0000E+00  0.5120E+03
      8.456  0.0000E+00  0.5120E+03
      8.551  0.0000E+00  0.5120E+03
      8.646  0.0000E+00  0.5120E+03
      8.741  0.0000E+00  0.5120E+03
      8.836  0.0000E+00  0.5120E+03
      8.931  0.0000E+00  0.5120E+03
