 running on   24 total cores
 distrk:  each k-point on   24 cores,    1 groups
 distr:  one band on    3 cores,    8 groups
 using from now: INCAR     
 vasp.5.4.1 24Jun15 (build Nov 25 2015 16:01:35) complex                        
  
 POSCAR found type information on POSCAR  C  N  H  Pb I 
 POSCAR found :  5 types and      96 ions
 scaLAPACK will be used

 ----------------------------------------------------------------------------- 
|                                                                             |
|  ADVICE TO THIS USER RUNNING 'VASP/VAMP'   (HEAR YOUR MASTER'S VOICE ...):  |
|                                                                             |
|      You have a (more or less) 'large supercell' and for larger cells       |
|      it might be more efficient to use real space projection opertators     |
|      So try LREAL= Auto  in the INCAR   file.                               |
|      Mind: At the moment your POTCAR file does not contain real space       |
|       projectors, and has to be modified,  BUT if you                       |
|      want to do an extremely  accurate calculation you might also keep the  |
|      reciprocal projection scheme          (i.e. LREAL=.FALSE.)             |
|                                                                             |
 ----------------------------------------------------------------------------- 


 ----------------------------------------------------------------------------- 
|                                                                             |
|  ADVICE TO THIS USER RUNNING 'VASP/VAMP'   (HEAR YOUR MASTER'S VOICE ...):  |
|                                                                             |
|      You enforced a specific xc-type in the INCAR file,                     |
|      a different type was found on the POTCAR file                          |
|          I HOPE YOU KNOW, WHAT YOU ARE  DOING                               |
|                                                                             |
 ----------------------------------------------------------------------------- 

 LDA part: xc-table for Pade appr. of Perdew
 POSCAR, INCAR and KPOINTS ok, starting setup
 WARNING: small aliasing (wrap around) errors must be expected
 FFT: planning ...
 WAVECAR not read
 entering main loop
       N       E                     dE             d eps       ncg     rms          rms(c)
DAV:   1     0.360215006508E+04    0.36022E+04   -0.18948E+05  7176   0.170E+03
DAV:   2     0.197335025403E+03   -0.34048E+04   -0.32143E+04  8016   0.355E+02
DAV:   3    -0.398634718747E+03   -0.59597E+03   -0.58735E+03  9464   0.171E+02
DAV:   4    -0.438671385004E+03   -0.40037E+02   -0.39866E+02  9640   0.489E+01
DAV:   5    -0.440170567812E+03   -0.14992E+01   -0.14970E+01  9776   0.915E+00    0.297E+01
DAV:   6    -0.419552582307E+03    0.20618E+02   -0.41658E+01  9560   0.103E+01    0.157E+01
DAV:   7    -0.417075267225E+03    0.24773E+01   -0.14657E+01 10200   0.638E+00    0.783E+00
DAV:   8    -0.416904398514E+03    0.17087E+00   -0.30329E+00  8656   0.318E+00    0.183E+00
DAV:   9    -0.416832185393E+03    0.72213E-01   -0.74555E-01  9304   0.175E+00    0.726E-01
DAV:  10    -0.416844529391E+03   -0.12344E-01   -0.11331E-01  9048   0.608E-01    0.470E-01
DAV:  11    -0.416844176707E+03    0.35268E-03   -0.14270E-02  9800   0.271E-01    0.200E-01
DAV:  12    -0.416845548079E+03   -0.13714E-02   -0.89764E-03  9864   0.152E-01    0.103E-01
DAV:  13    -0.416845721711E+03   -0.17363E-03   -0.12319E-03  8448   0.754E-02    0.727E-02
DAV:  14    -0.416845763610E+03   -0.41898E-04   -0.27312E-04  8408   0.287E-02    0.318E-02
DAV:  15    -0.416845805961E+03   -0.42352E-04   -0.15301E-04  8264   0.204E-02    0.122E-02
DAV:  16    -0.416845809417E+03   -0.34555E-05   -0.12668E-05 10216   0.692E-03    0.121E-02
DAV:  17    -0.416845809151E+03    0.26537E-06   -0.38140E-06  8448   0.351E-03    0.516E-03
DAV:  18    -0.416845809269E+03   -0.11807E-06   -0.79657E-06  9072   0.448E-03    0.375E-03
DAV:  19    -0.416845809259E+03    0.10161E-07   -0.82546E-07  8080   0.210E-03    0.221E-03
DAV:  20    -0.416845809273E+03   -0.13664E-07   -0.46862E-07  8528   0.106E-03    0.396E-04
DAV:  21    -0.416845809301E+03   -0.27590E-07   -0.37660E-08  6216   0.448E-04    0.256E-04
DAV:  22    -0.416845809298E+03    0.23319E-08   -0.36577E-09  4872   0.214E-04
   1 F= -.41684581E+03 E0= -.41684581E+03  d E =0.000000E+00
Application 22054721 resources: utime ~167580s, stime ~96s, Rss ~640384, inblocks ~184890, outblocks ~194552
