  96  96   0   0
  0.2080188E+02  0.1257760E-08  0.1245754E-08  0.1274818E-08  0.5000000E-15
  1.000000000000000E-004
  CAR 
 MAPbI3-Cubic                            
     10.65442221    -19.71167185  301      1.59520415      1.00000000
    -19.712  0.0000E+00  0.0000E+00
    -19.610  0.0000E+00  0.0000E+00
    -19.509  0.0000E+00  0.0000E+00
    -19.408  0.0000E+00  0.0000E+00
    -19.307  0.0000E+00  0.0000E+00
    -19.206  0.0000E+00  0.0000E+00
    -19.104  0.0000E+00  0.0000E+00
    -19.003  0.0000E+00  0.0000E+00
    -18.902  0.0000E+00  0.0000E+00
    -18.801  0.0000E+00  0.0000E+00
    -18.699  0.0000E+00  0.0000E+00
    -18.598  0.0000E+00  0.0000E+00
    -18.497  0.0000E+00  0.0000E+00
    -18.396  0.0000E+00  0.0000E+00
    -18.295  0.0000E+00  0.1600E+02
    -18.193  0.0000E+00  0.1600E+02
    -18.092  0.0000E+00  0.1600E+02
    -17.991  0.0000E+00  0.1600E+02
    -17.890  0.0000E+00  0.1600E+02
    -17.788  0.0000E+00  0.1600E+02
    -17.687  0.0000E+00  0.1600E+02
    -17.586  0.0000E+00  0.1600E+02
    -17.485  0.0000E+00  0.1600E+02
    -17.384  0.0000E+00  0.1600E+02
    -17.282  0.0000E+00  0.1600E+02
    -17.181  0.0000E+00  0.1600E+02
    -17.080  0.0000E+00  0.1600E+02
    -16.979  0.0000E+00  0.1600E+02
    -16.878  0.0000E+00  0.1600E+02
    -16.776  0.0000E+00  0.1600E+02
    -16.675  0.0000E+00  0.1600E+02
    -16.574  0.0000E+00  0.1600E+02
    -16.473  0.0000E+00  0.1600E+02
    -16.371  0.0000E+00  0.4800E+02
    -16.270  0.0000E+00  0.4800E+02
    -16.169  0.0000E+00  0.4800E+02
    -16.068  0.0000E+00  0.4800E+02
    -15.967  0.0000E+00  0.4800E+02
    -15.865  0.0000E+00  0.4800E+02
    -15.764  0.0000E+00  0.4800E+02
    -15.663  0.0000E+00  0.4800E+02
    -15.562  0.0000E+00  0.4800E+02
    -15.460  0.0000E+00  0.4800E+02
    -15.359  0.0000E+00  0.4800E+02
    -15.258  0.0000E+00  0.4800E+02
    -15.157  0.0000E+00  0.4800E+02
    -15.056  0.0000E+00  0.4800E+02
    -14.954  0.0000E+00  0.4800E+02
    -14.853  0.0000E+00  0.4800E+02
    -14.752  0.0000E+00  0.4800E+02
    -14.651  0.0000E+00  0.4800E+02
    -14.549  0.0000E+00  0.4800E+02
    -14.448  0.0000E+00  0.4800E+02
    -14.347  0.0000E+00  0.4800E+02
    -14.246  0.0000E+00  0.4800E+02
    -14.145  0.0000E+00  0.4800E+02
    -14.043  0.0000E+00  0.4800E+02
    -13.942  0.0000E+00  0.4800E+02
    -13.841  0.4025E+02  0.8000E+02
    -13.740  0.0000E+00  0.9600E+02
    -13.638  0.0000E+00  0.9600E+02
    -13.537  0.0000E+00  0.9600E+02
    -13.436  0.0000E+00  0.9600E+02
    -13.335  0.0000E+00  0.9600E+02
    -13.234  0.0000E+00  0.9600E+02
    -13.132  0.0000E+00  0.9600E+02
    -13.031  0.0000E+00  0.9600E+02
    -12.930  0.0000E+00  0.9600E+02
    -12.829  0.0000E+00  0.9600E+02
    -12.727  0.0000E+00  0.9600E+02
    -12.626  0.0000E+00  0.9600E+02
    -12.525  0.0000E+00  0.9600E+02
    -12.424  0.0000E+00  0.9600E+02
    -12.323  0.0000E+00  0.9600E+02
    -12.221  0.0000E+00  0.9600E+02
    -12.120  0.0000E+00  0.9600E+02
    -12.019  0.0000E+00  0.9600E+02
    -11.918  0.0000E+00  0.9600E+02
    -11.816  0.0000E+00  0.9600E+02
    -11.715  0.0000E+00  0.9600E+02
    -11.614  0.0000E+00  0.9600E+02
    -11.513  0.0000E+00  0.9600E+02
    -11.412  0.2937E-07  0.9600E+02
    -11.310  0.0000E+00  0.1120E+03
    -11.209  0.0000E+00  0.1120E+03
    -11.108  0.0000E+00  0.1120E+03
    -11.007  0.0000E+00  0.1120E+03
    -10.906  0.0000E+00  0.1120E+03
    -10.804  0.1284E+01  0.1122E+03
    -10.703  0.0000E+00  0.1141E+03
    -10.602  0.5854E+01  0.1192E+03
    -10.501  0.5026E+01  0.1258E+03
    -10.399  0.1464E+01  0.1291E+03
    -10.298  0.5946E+00  0.1361E+03
    -10.197  0.7369E+01  0.1413E+03
    -10.096  0.7374E+00  0.1443E+03
     -9.995  0.2955E+01  0.1547E+03
     -9.893  0.1464E+01  0.1600E+03
     -9.792  0.0000E+00  0.1600E+03
     -9.691  0.0000E+00  0.1600E+03
     -9.590  0.0000E+00  0.1600E+03
     -9.488  0.0000E+00  0.1600E+03
     -9.387  0.0000E+00  0.1600E+03
     -9.286  0.0000E+00  0.1600E+03
     -9.185  0.0000E+00  0.1600E+03
     -9.084  0.0000E+00  0.1600E+03
     -8.982  0.0000E+00  0.1600E+03
     -8.881  0.0000E+00  0.1600E+03
     -8.780  0.0000E+00  0.1600E+03
     -8.679  0.0000E+00  0.1600E+03
     -8.577  0.0000E+00  0.1600E+03
     -8.476  0.0000E+00  0.1600E+03
     -8.375  0.0000E+00  0.1600E+03
     -8.274  0.0000E+00  0.1600E+03
     -8.173  0.0000E+00  0.1600E+03
     -8.071  0.0000E+00  0.1600E+03
     -7.970  0.0000E+00  0.1600E+03
     -7.869  0.0000E+00  0.1600E+03
     -7.768  0.8125E-16  0.1680E+03
     -7.666  0.5854E+01  0.1920E+03
     -7.565  0.0000E+00  0.1920E+03
     -7.464  0.0000E+00  0.1920E+03
     -7.363  0.0000E+00  0.1920E+03
     -7.262  0.0000E+00  0.1920E+03
     -7.160  0.0000E+00  0.1920E+03
     -7.059  0.0000E+00  0.1920E+03
     -6.958  0.2416E-04  0.1920E+03
     -6.857  0.0000E+00  0.1921E+03
     -6.755  0.0000E+00  0.1925E+03
     -6.654  0.0000E+00  0.1934E+03
     -6.553  0.0000E+00  0.1941E+03
     -6.452  0.2244E+01  0.1948E+03
     -6.351  0.0000E+00  0.1964E+03
     -6.249  0.1464E+01  0.1988E+03
     -6.148  0.1464E+01  0.2003E+03
     -6.047  0.1518E+01  0.2021E+03
     -5.946  0.4366E+01  0.2038E+03
     -5.844  0.1544E+02  0.2110E+03
     -5.743  0.7313E+00  0.2216E+03
     -5.642  0.0000E+00  0.2226E+03
     -5.541  0.0000E+00  0.2235E+03
     -5.440  0.7326E+00  0.2237E+03
     -5.338  0.0000E+00  0.2239E+03
     -5.237  0.0000E+00  0.2240E+03
     -5.136  0.0000E+00  0.2240E+03
     -5.035  0.0000E+00  0.2240E+03
     -4.934  0.0000E+00  0.2240E+03
     -4.832  0.0000E+00  0.2240E+03
     -4.731  0.0000E+00  0.2240E+03
     -4.630  0.0000E+00  0.2240E+03
     -4.529  0.0000E+00  0.2240E+03
     -4.427  0.0000E+00  0.2240E+03
     -4.326  0.0000E+00  0.2240E+03
     -4.225  0.0000E+00  0.2240E+03
     -4.124  0.0000E+00  0.2240E+03
     -4.023  0.0000E+00  0.2240E+03
     -3.921  0.0000E+00  0.2240E+03
     -3.820  0.0000E+00  0.2240E+03
     -3.719  0.0000E+00  0.2240E+03
     -3.618  0.1262E+02  0.2265E+03
     -3.516  0.0000E+00  0.2560E+03
     -3.415  0.0000E+00  0.2560E+03
     -3.314  0.0000E+00  0.2560E+03
     -3.213  0.0000E+00  0.2560E+03
     -3.112  0.0000E+00  0.2560E+03
     -3.010  0.0000E+00  0.2560E+03
     -2.909  0.0000E+00  0.2560E+03
     -2.808  0.0000E+00  0.2560E+03
     -2.707  0.0000E+00  0.2560E+03
     -2.605  0.0000E+00  0.2560E+03
     -2.504  0.0000E+00  0.2560E+03
     -2.403  0.0000E+00  0.2560E+03
     -2.302  0.0000E+00  0.2560E+03
     -2.201  0.1881E+01  0.2563E+03
     -2.099  0.1251E+01  0.2586E+03
     -1.998  0.8511E+00  0.2618E+03
     -1.897  0.1715E+01  0.2641E+03
     -1.796  0.2707E-01  0.2666E+03
     -1.694  0.4800E-06  0.2708E+03
     -1.593  0.4333E+01  0.2745E+03
     -1.492  0.1402E-09  0.2781E+03
     -1.391  0.8075E-04  0.2796E+03
     -1.290  0.7481E-13  0.2800E+03
     -1.188  0.2582E+01  0.2828E+03
     -1.087  0.0000E+00  0.2856E+03
     -0.986  0.4428E+01  0.2901E+03
     -0.885  0.1464E+01  0.2954E+03
     -0.783  0.1782E+01  0.2991E+03
     -0.682  0.1336E+01  0.3019E+03
     -0.581  0.2202E+01  0.3052E+03
     -0.480  0.1224E+01  0.3102E+03
     -0.379  0.5293E+01  0.3176E+03
     -0.277  0.3486E+01  0.3209E+03
     -0.176  0.5312E+01  0.3259E+03
     -0.075  0.8031E+01  0.3332E+03
      0.026  0.7139E+01  0.3420E+03
      0.128  0.4045E+01  0.3500E+03
      0.229  0.3431E+00  0.3531E+03
      0.330  0.6010E+01  0.3583E+03
      0.431  0.4860E+01  0.3626E+03
      0.532  0.1842E+01  0.3689E+03
      0.634  0.4398E+01  0.3762E+03
      0.735  0.4463E+01  0.3834E+03
      0.836  0.3479E+01  0.3910E+03
      0.937  0.7298E+00  0.3942E+03
      1.038  0.7305E+00  0.3964E+03
      1.140  0.6152E-01  0.3979E+03
      1.241  0.7299E+00  0.3993E+03
      1.342  0.0000E+00  0.3995E+03
      1.443  0.0000E+00  0.3999E+03
      1.545  0.0000E+00  0.3999E+03
      1.646  0.0000E+00  0.4000E+03
      1.747  0.0000E+00  0.4000E+03
      1.848  0.0000E+00  0.4000E+03
      1.949  0.0000E+00  0.4000E+03
      2.051  0.0000E+00  0.4000E+03
      2.152  0.0000E+00  0.4000E+03
      2.253  0.0000E+00  0.4001E+03
      2.354  0.1464E+01  0.4002E+03
      2.456  0.0000E+00  0.4003E+03
      2.557  0.0000E+00  0.4004E+03
      2.658  0.1493E-04  0.4006E+03
      2.759  0.0000E+00  0.4011E+03
      2.860  0.1464E+01  0.4018E+03
      2.962  0.0000E+00  0.4021E+03
      3.063  0.0000E+00  0.4028E+03
      3.164  0.1231E+01  0.4036E+03
      3.265  0.0000E+00  0.4044E+03
      3.367  0.6312E+00  0.4052E+03
      3.468  0.2174E+01  0.4063E+03
      3.569  0.2438E+01  0.4078E+03
      3.670  0.8357E-06  0.4090E+03
      3.771  0.0000E+00  0.4093E+03
      3.873  0.1464E+01  0.4104E+03
      3.974  0.0000E+00  0.4117E+03
      4.075  0.7318E+00  0.4131E+03
      4.176  0.1464E+01  0.4144E+03
      4.278  0.1440E+01  0.4158E+03
      4.379  0.2195E+01  0.4176E+03
      4.480  0.1183E+01  0.4197E+03
      4.581  0.0000E+00  0.4209E+03
      4.682  0.0000E+00  0.4220E+03
      4.784  0.0000E+00  0.4227E+03
      4.885  0.0000E+00  0.4236E+03
      4.986  0.1372E+01  0.4244E+03
      5.087  0.2057E-06  0.4252E+03
      5.189  0.0000E+00  0.4261E+03
      5.290  0.7338E+00  0.4273E+03
      5.391  0.2581E-02  0.4290E+03
      5.492  0.3266E+01  0.4315E+03
      5.593  0.2927E+01  0.4345E+03
      5.695  0.7318E+00  0.4373E+03
      5.796  0.5231E-10  0.4397E+03
      5.897  0.5111E+01  0.4427E+03
      5.998  0.4142E+01  0.4455E+03
      6.100  0.4254E+01  0.4490E+03
      6.201  0.5099E+01  0.4542E+03
      6.302  0.4464E+01  0.4582E+03
      6.403  0.5512E+01  0.4623E+03
      6.504  0.5939E+01  0.4691E+03
      6.606  0.2615E+01  0.4740E+03
      6.707  0.1358E+01  0.4776E+03
      6.808  0.7390E+00  0.4810E+03
      6.909  0.4579E+01  0.4854E+03
      7.010  0.4158E+01  0.4902E+03
      7.112  0.5533E+01  0.4937E+03
      7.213  0.2193E+01  0.4985E+03
      7.314  0.1469E+01  0.5029E+03
      7.415  0.4644E+01  0.5071E+03
      7.517  0.6766E+01  0.5119E+03
      7.618  0.3666E+01  0.5164E+03
      7.719  0.3033E+01  0.5225E+03
      7.820  0.5114E+01  0.5275E+03
      7.921  0.4561E+01  0.5339E+03
      8.023  0.4196E+01  0.5377E+03
      8.124  0.1467E+01  0.5421E+03
      8.225  0.1464E+01  0.5479E+03
      8.326  0.4614E+01  0.5530E+03
      8.428  0.1157E+01  0.5590E+03
      8.529  0.8007E+01  0.5667E+03
      8.630  0.4883E+01  0.5729E+03
      8.731  0.2195E+01  0.5784E+03
      8.832  0.8112E+01  0.5839E+03
      8.934  0.2632E+01  0.5896E+03
      9.035  0.1825E+01  0.5943E+03
      9.136  0.1474E+01  0.5980E+03
      9.237  0.7649E+00  0.5999E+03
      9.339  0.0000E+00  0.6000E+03
      9.440  0.0000E+00  0.6000E+03
      9.541  0.0000E+00  0.6000E+03
      9.642  0.0000E+00  0.6000E+03
      9.743  0.0000E+00  0.6000E+03
      9.845  0.0000E+00  0.6000E+03
      9.946  0.0000E+00  0.6000E+03
     10.047  0.0000E+00  0.6000E+03
     10.148  0.0000E+00  0.6000E+03
     10.250  0.0000E+00  0.6000E+03
     10.351  0.0000E+00  0.6000E+03
     10.452  0.0000E+00  0.6000E+03
     10.553  0.0000E+00  0.6000E+03
     10.654  0.0000E+00  0.6000E+03
