 vasp.5.4.1 24Jun15 (build Nov 25 2015 16:39:35) complex                        
  
 executed on         CrayXC-Intel date 2016.06.22  00:47:56
 running on  192 total cores
 distrk:  each k-point on  192 cores,    1 groups
 distr:  one band on NCORES_PER_BAND=  24 cores,    8 groups


--------------------------------------------------------------------------------------------------------


 INCAR:
 POTCAR:    PAW_PBE C 08Apr2002                   
 POTCAR:    PAW_PBE N 08Apr2002                   
 POTCAR:    PAW_PBE H 15Jun2001                   
 POTCAR:    PAW_PBE Pb_d 06Sep2000                
 POTCAR:    PAW_PBE I 08Apr2002                   
 POTCAR:    PAW_PBE C 08Apr2002                   
   VRHFIN =C: s2p2                                                              
   LEXCH  = PE                                                                  
   EATOM  =   147.1560 eV,   10.8157 Ry                                         
                                                                                
   TITEL  = PAW_PBE C 08Apr2002                                                 
   LULTRA =        F    use ultrasoft PP ?                                      
   IUNSCR =        1    unscreen: 0-lin 1-nonlin 2-no                           
   RPACOR =    1.200    partial core radius                                     
   POMASS =   12.011; ZVAL   =    4.000    mass and valenz                      
   RCORE  =    1.500    outmost cutoff radius                                   
   RWIGS  =    1.630; RWIGS  =    0.863    wigner-seitz radius (au A)           
   ENMAX  =  400.000; ENMIN  =  300.000 eV                                      
   ICORE  =        2    local potential                                         
   LCOR   =        T    correct aug charges                                     
   LPAW   =        T    paw PP                                                  
   EAUG   =  644.873                                                            
   DEXC   =    0.000                                                            
   RMAX   =    1.529    core radius for proj-oper                               
   RAUG   =    1.300    factor for augmentation sphere                          
   RDEP   =    1.501    radius for radial grids                                 
   RDEPT  =    1.300    core radius for aug-charge                              
                                                                                
   Atomic configuration                                                         
    4 entries                                                                   
     n  l   j            E        occ.                                          
     1  0  0.50      -273.3789   2.0000                                         
     2  0  0.50       -13.7508   2.0000                                         
     2  1  0.50        -5.2854   2.0000                                         
     3  2  1.50        -5.4423   0.0000                                         
   Description                                                                  
     l       E           TYP  RCUT    TYP  RCUT                                 
     0    -13.7508458     23  1.200                                             
     0     -8.2022199     23  1.200                                             
     1     -5.2854383     23  1.500                                             
     1     34.0145650     23  1.500                                             
     2     -5.4423304      7  1.500                                             
  local pseudopotential read in
  partial core-charges read in
  partial kinetic energy density read in
  atomic valenz-charges read in
  non local Contribution for L=           0  read in
    real space projection operators read in
  non local Contribution for L=           0  read in
    real space projection operators read in
  non local Contribution for L=           1  read in
    real space projection operators read in
  non local Contribution for L=           1  read in
    real space projection operators read in
    PAW grid and wavefunctions read in
 
   number of l-projection  operators is LMAX  =           4
   number of lm-projection operators is LMMAX =           8
 
 POTCAR:    PAW_PBE N 08Apr2002                   
   VRHFIN =N: s2p3                                                              
   LEXCH  = PE                                                                  
   EATOM  =   264.5486 eV,   19.4438 Ry                                         
                                                                                
   TITEL  = PAW_PBE N 08Apr2002                                                 
   LULTRA =        F    use ultrasoft PP ?                                      
   IUNSCR =        1    unscreen: 0-lin 1-nonlin 2-no                           
   RPACOR =    1.200    partial core radius                                     
   POMASS =   14.001; ZVAL   =    5.000    mass and valenz                      
   RCORE  =    1.500    outmost cutoff radius                                   
   RWIGS  =    1.400; RWIGS  =    0.741    wigner-seitz radius (au A)           
   ENMAX  =  400.000; ENMIN  =  300.000 eV                                      
   ICORE  =        2    local potential                                         
   LCOR   =        T    correct aug charges                                     
   LPAW   =        T    paw PP                                                  
   EAUG   =  627.112                                                            
   DEXC   =    0.000                                                            
   RMAX   =    1.529    core radius for proj-oper                               
   RAUG   =    1.300    factor for augmentation sphere                          
   RDEP   =    1.514    radius for radial grids                                 
   RDEPT  =    1.338    core radius for aug-charge                              
                                                                                
   Atomic configuration                                                         
    4 entries                                                                   
     n  l   j            E        occ.                                          
     1  0  0.50      -384.7179   2.0000                                         
     2  0  0.50       -18.5828   2.0000                                         
     2  1  0.50        -7.0898   3.0000                                         
     3  2  1.50        -6.8029   0.0000                                         
   Description                                                                  
     l       E           TYP  RCUT    TYP  RCUT                                 
     0    -18.5828119     23  1.200                                             
     0    -13.5018863     23  1.200                                             
     1     -7.0897853     23  1.500                                             
     1      9.5240782     23  1.500                                             
     2     -6.8029130      7  1.500                                             
  local pseudopotential read in
  partial core-charges read in
  partial kinetic energy density read in
  atomic valenz-charges read in
  non local Contribution for L=           0  read in
    real space projection operators read in
  non local Contribution for L=           0  read in
    real space projection operators read in
  non local Contribution for L=           1  read in
    real space projection operators read in
  non local Contribution for L=           1  read in
    real space projection operators read in
    PAW grid and wavefunctions read in
 
   number of l-projection  operators is LMAX  =           4
   number of lm-projection operators is LMMAX =           8
 
 POTCAR:    PAW_PBE H 15Jun2001                   
   VRHFIN =H: ultrasoft test                                                    
   LEXCH  = PE                                                                  
   EATOM  =    12.4884 eV,    0.9179 Ry                                         
                                                                                
   TITEL  = PAW_PBE H 15Jun2001                                                 
   LULTRA =        F    use ultrasoft PP ?                                      
   IUNSCR =        0    unscreen: 0-lin 1-nonlin 2-no                           
   RPACOR =    0.000    partial core radius                                     
   POMASS =    1.000; ZVAL   =    1.000    mass and valenz                      
   RCORE  =    1.100    outmost cutoff radius                                   
   RWIGS  =    0.700; RWIGS  =    0.370    wigner-seitz radius (au A)           
   ENMAX  =  250.000; ENMIN  =  200.000 eV                                      
   RCLOC  =    0.701    cutoff for local pot                                    
   LCOR   =        T    correct aug charges                                     
   LPAW   =        T    paw PP                                                  
   EAUG   =  400.000                                                            
   RMAX   =    1.123    core radius for proj-oper                               
   RAUG   =    1.200    factor for augmentation sphere                          
   RDEP   =    1.112    radius for radial grids                                 
   RDEPT  =    0.926    core radius for aug-charge                              
                                                                                
   Atomic configuration                                                         
    2 entries                                                                   
     n  l   j            E        occ.                                          
     1  0  0.50        -6.4927   1.0000                                         
     2  1  0.50        -3.4015   0.0000                                         
   Description                                                                  
     l       E           TYP  RCUT    TYP  RCUT                                 
     0     -6.4927494     23  1.100                                             
     0      6.8029130     23  1.100                                             
     1     -4.0817478     23  1.100                                             
  local pseudopotential read in
  atomic valenz-charges read in
  non local Contribution for L=           0  read in
    real space projection operators read in
  non local Contribution for L=           0  read in
    real space projection operators read in
  non local Contribution for L=           1  read in
    real space projection operators read in
    PAW grid and wavefunctions read in
 
   number of l-projection  operators is LMAX  =           3
   number of lm-projection operators is LMMAX =           5
 
 POTCAR:    PAW_PBE Pb_d 06Sep2000                
   VRHFIN =Pb:                                                                  
   LEXCH  = PE                                                                  
   EATOM  =  1661.6185 eV,  122.1255 Ry                                         
                                                                                
   TITEL  = PAW_PBE Pb_d 06Sep2000                                              
   LULTRA =        F    use ultrasoft PP ?                                      
   IUNSCR =        1    unscreen: 0-lin 1-nonlin 2-no                           
   RPACOR =    2.200    partial core radius                                     
   POMASS =  207.200; ZVAL   =   14.000    mass and valenz                      
   RCORE  =    2.500    outmost cutoff radius                                   
   RWIGS  =    3.260; RWIGS  =    1.725    wigner-seitz radius (au A)           
   ENMAX  =  237.835; ENMIN  =  178.376 eV                                      
   ICORE  =        3    local potential                                         
   LCOR   =        T    correct aug charges                                     
   LPAW   =        T    paw PP                                                  
   EAUG   =  391.914                                                            
   DEXC   =    0.000                                                            
   RMAX   =    2.565    core radius for proj-oper                               
   RAUG   =    1.300    factor for augmentation sphere                          
   RDEP   =    2.643    radius for radial grids                                 
   RDEPT  =    2.092    core radius for aug-charge                              
                                                                                
   Atomic configuration                                                         
   16 entries                                                                   
     n  l   j            E        occ.                                          
     1  0  0.50    -88091.8466   2.0000                                         
     2  0  0.50    -15753.4197   2.0000                                         
     2  1  1.50    -13508.1797   6.0000                                         
     3  0  0.50     -3781.7194   2.0000                                         
     3  1  1.50     -3138.2529   6.0000                                         
     3  2  2.50     -2483.2977  10.0000                                         
     4  0  0.50      -856.2895   2.0000                                         
     4  1  1.50      -645.4942   6.0000                                         
     4  2  2.50      -401.8768  10.0000                                         
     4  3  3.50      -132.9059  14.0000                                         
     5  0  0.50      -144.0950   2.0000                                         
     5  1  1.50       -85.7879   6.0000                                         
     5  2  2.50       -21.1769  10.0000                                         
     6  0  0.50       -12.0372   2.0000                                         
     6  1  1.50        -3.4971   2.0000                                         
     5  3  2.50        -2.7212   0.0000                                         
   Description                                                                  
     l       E           TYP  RCUT    TYP  RCUT                                 
     2    -21.1768523     23  2.500                                             
     2      1.3605826     23  2.500                                             
     0    -12.0371562     23  2.500                                             
     0     13.6058260     23  2.500                                             
     1     -3.4971339     23  2.500                                             
     1     13.6058260     23  2.500                                             
     3     -1.3605826      7  2.500                                             
  local pseudopotential read in
  partial core-charges read in
  partial kinetic energy density read in
  atomic valenz-charges read in
  non local Contribution for L=           2  read in
    real space projection operators read in
  non local Contribution for L=           2  read in
    real space projection operators read in
  non local Contribution for L=           0  read in
    real space projection operators read in
  non local Contribution for L=           0  read in
    real space projection operators read in
  non local Contribution for L=           1  read in
    real space projection operators read in
  non local Contribution for L=           1  read in
    real space projection operators read in
    PAW grid and wavefunctions read in
 
   number of l-projection  operators is LMAX  =           6
   number of lm-projection operators is LMMAX =          18
 
 POTCAR:    PAW_PBE I 08Apr2002                   
   VRHFIN =I : s2p5                                                             
   LEXCH  = PE                                                                  
   EATOM  =   315.8678 eV,   23.2156 Ry                                         
                                                                                
   TITEL  = PAW_PBE I 08Apr2002                                                 
   LULTRA =        F    use ultrasoft PP ?                                      
   IUNSCR =        1    unscreen: 0-lin 1-nonlin 2-no                           
   RPACOR =    2.200    partial core radius                                     
   POMASS =  126.904; ZVAL   =    7.000    mass and valenz                      
   RCORE  =    2.300    outmost cutoff radius                                   
   RWIGS  =    2.810; RWIGS  =    1.487    wigner-seitz radius (au A)           
   ENMAX  =  175.647; ENMIN  =  131.735 eV                                      
   ICORE  =        3    local potential                                         
   LCOR   =        T    correct aug charges                                     
   LPAW   =        T    paw PP                                                  
   EAUG   =  370.139                                                            
   DEXC   =    0.000                                                            
   RMAX   =    2.359    core radius for proj-oper                               
   RAUG   =    1.300    factor for augmentation sphere                          
   RDEP   =    2.392    radius for radial grids                                 
   RDEPT  =    2.170    core radius for aug-charge                              
                                                                                
   Atomic configuration                                                         
   13 entries                                                                   
     n  l   j            E        occ.                                          
     1  0  0.50    -32976.3739   2.0000                                         
     2  0  0.50     -5094.5933   2.0000                                         
     2  1  1.50     -4572.0131   6.0000                                         
     3  0  0.50     -1028.2813   2.0000                                         
     3  1  1.50      -859.0250   6.0000                                         
     3  2  2.50      -605.7620  10.0000                                         
     4  0  0.50      -180.5540   2.0000                                         
     4  1  1.50      -127.5306   6.0000                                         
     4  2  2.50       -50.2720  10.0000                                         
     5  0  0.50       -17.4058   2.0000                                         
     5  1  0.50        -7.0851   5.0000                                         
     5  2  1.50        -7.0750   0.0000                                         
     4  3  2.50        -7.0750   0.0000                                         
   Description                                                                  
     l       E           TYP  RCUT    TYP  RCUT                                 
     0    -17.4058016     23  2.300                                             
     0    -18.7663842     23  2.300                                             
     1     -7.0850686     23  2.300                                             
     1     -4.2150896     23  2.300                                             
     2     -7.0750295     23  2.300                                             
     3     -1.3605826     23  2.300                                             
  local pseudopotential read in
  partial core-charges read in
  partial kinetic energy density read in
  atomic valenz-charges read in
  non local Contribution for L=           0  read in
    real space projection operators read in
  non local Contribution for L=           0  read in
    real space projection operators read in
  non local Contribution for L=           1  read in
    real space projection operators read in
  non local Contribution for L=           1  read in
    real space projection operators read in
  non local Contribution for L=           2  read in
    real space projection operators read in
    PAW grid and wavefunctions read in
 
   number of l-projection  operators is LMAX  =           5
   number of lm-projection operators is LMMAX =          13
 

 ----------------------------------------------------------------------------- 
|                                                                             |
|  ADVICE TO THIS USER RUNNING 'VASP/VAMP'   (HEAR YOUR MASTER'S VOICE ...):  |
|                                                                             |
|      You have a (more or less) 'large supercell' and for larger cells       |
|      it might be more efficient to use real space projection opertators     |
|      So try LREAL= Auto  in the INCAR   file.                               |
|      Mind: At the moment your POTCAR file does not contain real space       |
|       projectors, and has to be modified,  BUT if you                       |
|      want to do an extremely  accurate calculation you might also keep the  |
|      reciprocal projection scheme          (i.e. LREAL=.FALSE.)             |
|                                                                             |
 ----------------------------------------------------------------------------- 


 ----------------------------------------------------------------------------- 
|                                                                             |
|  ADVICE TO THIS USER RUNNING 'VASP/VAMP'   (HEAR YOUR MASTER'S VOICE ...):  |
|                                                                             |
|      You enforced a specific xc-type in the INCAR file,                     |
|      a different type was found on the POTCAR file                          |
|          I HOPE YOU KNOW, WHAT YOU ARE  DOING                               |
|                                                                             |
 ----------------------------------------------------------------------------- 

  PAW_PBE C 08Apr2002                   :
 energy of atom  1       EATOM= -147.1560
 kinetic energy error for atom=    0.0032 (will be added to EATOM!!)
  PAW_PBE N 08Apr2002                   :
 energy of atom  2       EATOM= -264.5486
 kinetic energy error for atom=    0.0061 (will be added to EATOM!!)
  PAW_PBE H 15Jun2001                   :
 energy of atom  3       EATOM=  -12.4884
 kinetic energy error for atom=    0.0002 (will be added to EATOM!!)
  PAW_PBE Pb_d 06Sep2000                :
 energy of atom  4       EATOM=-1661.6185
 kinetic energy error for atom=    0.0012 (will be added to EATOM!!)
  PAW_PBE I 08Apr2002                   :
 energy of atom  5       EATOM= -315.8678
 kinetic energy error for atom=    0.0003 (will be added to EATOM!!)
 
 
 POSCAR: C N H Pb I                              
  positions in direct lattice
  No initial velocities read in
 exchange correlation table for  LEXCH =       14
   RHO(1)=    0.500       N(1)  =     2000
   RHO(2)=  100.500       N(2)  =     4000
 


--------------------------------------------------------------------------------------------------------


 ion  position               nearest neighbor table
   1  0.197  0.250  0.229-  17 1.10  25 1.10  33 1.10   9 1.48
   2  0.697  0.250  0.229-  18 1.10  26 1.10  34 1.10  10 1.48
   3  0.197  0.750  0.229-  19 1.10  27 1.10  35 1.10  11 1.48
   4  0.697  0.750  0.229-  20 1.10  28 1.10  36 1.10  12 1.48
   5  0.197  0.250  0.729-  21 1.10  29 1.10  37 1.10  13 1.48
   6  0.697  0.250  0.729-  22 1.10  30 1.10  38 1.10  14 1.48
   7  0.197  0.750  0.729-  23 1.10  31 1.10  39 1.10  15 1.48
   8  0.697  0.750  0.729-  24 1.10  32 1.10  40 1.10  16 1.48
   9  0.305  0.250  0.274-  57 1.04  41 1.05  49 1.05   1 1.48
  10  0.805  0.250  0.274-  58 1.04  42 1.05  50 1.05   2 1.48
  11  0.305  0.750  0.274-  59 1.04  43 1.05  51 1.05   3 1.48
  12  0.805  0.750  0.274-  60 1.04  44 1.05  52 1.05   4 1.48
  13  0.305  0.250  0.774-  61 1.04  45 1.05  53 1.05   5 1.48
  14  0.805  0.250  0.774-  62 1.04  46 1.05  54 1.05   6 1.48
  15  0.305  0.750  0.774-  63 1.04  47 1.05  55 1.05   7 1.48
  16  0.805  0.750  0.774-  64 1.04  48 1.05  56 1.05   8 1.48
  17  0.205  0.250  0.143-   1 1.10
  18  0.705  0.250  0.143-   2 1.10
  19  0.205  0.750  0.143-   3 1.10
  20  0.705  0.750  0.143-   4 1.10
  21  0.205  0.250  0.643-   5 1.10
  22  0.705  0.250  0.643-   6 1.10
  23  0.205  0.750  0.643-   7 1.10
  24  0.705  0.750  0.643-   8 1.10
  25  0.154  0.322  0.256-   1 1.10
  26  0.654  0.322  0.256-   2 1.10
  27  0.154  0.822  0.256-   3 1.10
  28  0.654  0.822  0.256-   4 1.10
  29  0.154  0.322  0.756-   5 1.10
  30  0.654  0.322  0.756-   6 1.10
  31  0.154  0.822  0.756-   7 1.10
  32  0.654  0.822  0.756-   8 1.10
  33  0.154  0.177  0.256-   1 1.10
  34  0.654  0.177  0.256-   2 1.10
  35  0.154  0.677  0.256-   3 1.10
  36  0.654  0.677  0.256-   4 1.10
  37  0.154  0.177  0.756-   5 1.10
  38  0.654  0.177  0.756-   6 1.10
  39  0.154  0.677  0.756-   7 1.10
  40  0.654  0.677  0.756-   8 1.10
  41  0.348  0.318  0.251-   9 1.05
  42  0.848  0.318  0.251-  10 1.05
  43  0.348  0.818  0.251-  11 1.05
  44  0.848  0.818  0.251-  12 1.05
  45  0.348  0.318  0.751-  13 1.05
  46  0.848  0.318  0.751-  14 1.05
  47  0.348  0.818  0.751-  15 1.05
  48  0.848  0.818  0.751-  16 1.05
  49  0.348  0.182  0.251-   9 1.05
  50  0.848  0.182  0.251-  10 1.05
  51  0.348  0.682  0.251-  11 1.05
  52  0.848  0.682  0.251-  12 1.05
  53  0.348  0.182  0.751-  13 1.05
  54  0.848  0.182  0.751-  14 1.05
  55  0.348  0.682  0.751-  15 1.05
  56  0.848  0.682  0.751-  16 1.05
  57  0.303  0.250  0.356-   9 1.04
  58  0.803  0.250  0.356-  10 1.04
  59  0.303  0.750  0.356-  11 1.04
  60  0.803  0.750  0.356-  12 1.04
  61  0.303  0.250  0.856-  13 1.04
  62  0.803  0.250  0.856-  14 1.04
  63  0.303  0.750  0.856-  15 1.04
  64  0.803  0.750  0.856-  16 1.04
  65  0.472  0.500  0.489-  90 3.08  87 3.14  85 3.14  77 3.17  73 3.22  89 3.25
  66  0.972  0.500  0.489-  89 3.08  88 3.14  86 3.14  78 3.17  74 3.22  90 3.25
  67  0.472  1.000  0.489-  92 3.08  85 3.14  87 3.14  79 3.17  75 3.22  91 3.25
  68  0.972  1.000  0.489-  91 3.08  86 3.14  88 3.14  80 3.17  76 3.22  92 3.25
  69  0.472  0.500  0.989-  94 3.08  83 3.14  81 3.14  73 3.17  77 3.22  93 3.25
  70  0.972  0.500  0.989-  93 3.08  84 3.14  82 3.14  74 3.17  78 3.22  94 3.25
  71  0.472  1.000  0.989-  96 3.08  81 3.14  83 3.14  75 3.17  79 3.22  95 3.25
  72  0.972  1.000  0.989-  95 3.08  82 3.14  84 3.14  76 3.17  80 3.22  96 3.25
  73  0.455  0.500  0.238-  69 3.17  65 3.22
  74  0.955  0.500  0.238-  70 3.17  66 3.22
  75  0.455  1.000  0.238-  71 3.17  67 3.22
  76  0.955  1.000  0.238-  72 3.17  68 3.22
  77  0.455  0.500  0.738-  65 3.17  69 3.22
  78  0.955  0.500  0.738-  66 3.17  70 3.22
  79  0.455  1.000  0.738-  67 3.17  71 3.22
  80  0.955  1.000  0.738-  68 3.17  72 3.22
  81  0.450  0.250  0.012-  71 3.14  69 3.14
  82  0.950  0.250  0.012-  72 3.14  70 3.14
  83  0.450  0.750  0.012-  69 3.14  71 3.14
  84  0.950  0.750  0.012-  70 3.14  72 3.14
  85  0.450  0.250  0.512-  67 3.14  65 3.14
  86  0.950  0.250  0.512-  68 3.14  66 3.14
  87  0.450  0.750  0.512-  65 3.14  67 3.14
  88  0.950  0.750  0.512-  66 3.14  68 3.14
  89  0.216  0.500  0.461-  66 3.08  65 3.25
  90  0.716  0.500  0.461-  65 3.08  66 3.25
  91  0.216  1.000  0.461-  68 3.08  67 3.25
  92  0.716  1.000  0.461-  67 3.08  68 3.25
  93  0.216  0.500  0.961-  70 3.08  69 3.25
  94  0.716  0.500  0.961-  69 3.08  70 3.25
  95  0.216  1.000  0.961-  72 3.08  71 3.25
  96  0.716  1.000  0.961-  71 3.08  72 3.25
 
  LATTYP: Found a triclinic cell.
 ALAT       =    17.8238589327
 B/A-ratio  =     0.6989248630
 C/A-ratio  =     1.0156975818
 COS(alpha) =     0.0001355172
 COS(beta)  =     0.5146378593
 COS(gamma) =     0.6988877578
  
  Lattice vectors:
  
 A1 = (  -0.1406063366, -12.4576271275, -12.7466742118)
 A2 = (  -0.0011956322, -12.4575380825,   0.0007464135)
 A3 = ( -12.7162481321,  -0.0020049566, -12.8856194186)


Analysis of symmetry for initial positions (statically):
=====================================================================
 Subroutine PRICEL returns following result:
 
  LATTYP: Found a triclinic cell.
 ALAT       =     6.2887984198
 B/A-ratio  =     2.2187879235
 C/A-ratio  =     1.0135626932
 COS(alpha) =     0.0099265352
 COS(beta)  =     0.0219221098
 COS(gamma) =     0.4504754319
  
  Lattice vectors:
  
 A1 = (  -6.2884187139,  -0.0009579558,  -0.0690993967)
 A2 = (  -6.2872230816,  12.4565801267,  -0.0698458102)
 A3 = (  -0.0697053522,  -0.0000445225,  -6.3737103126)
 
   4 primitive cells build up your supercell.
 

 Routine SETGRP: Setting up the symmetry group for a 
 triclinic supercell.


 Subroutine GETGRP returns: Found  1 space group operations
 (whereof  1 operations were pure point group operations)
 out of a pool of  2 trial point group operations.


The static configuration has the point symmetry C_1 .


Analysis of symmetry for dynamics (positions and initial velocities):
=====================================================================
 Subroutine PRICEL returns following result:
 
  LATTYP: Found a triclinic cell.
 ALAT       =     6.2887984198
 B/A-ratio  =     2.2187879235
 C/A-ratio  =     1.0135626932
 COS(alpha) =     0.0099265352
 COS(beta)  =     0.0219221098
 COS(gamma) =     0.4504754319
  
  Lattice vectors:
  
 A1 = (  -6.2884187139,  -0.0009579558,  -0.0690993967)
 A2 = (  -6.2872230816,  12.4565801267,  -0.0698458102)
 A3 = (  -0.0697053522,  -0.0000445225,  -6.3737103126)
 
   4 primitive cells build up your supercell.
 

 Routine SETGRP: Setting up the symmetry group for a 
 triclinic supercell.


 Subroutine GETGRP returns: Found  1 space group operations
 (whereof  1 operations were pure point group operations)
 out of a pool of  2 trial point group operations.


The dynamic configuration has the point symmetry C_1 .


Analysis of structural, dynamic, and magnetic symmetry:
=====================================================================
 Subroutine PRICEL returns following result:
 
  LATTYP: Found a triclinic cell.
 ALAT       =     6.2887984198
 B/A-ratio  =     2.2187879235
 C/A-ratio  =     1.0135626932
 COS(alpha) =     0.0099265352
 COS(beta)  =     0.0219221098
 COS(gamma) =     0.4504754319
  
  Lattice vectors:
  
 A1 = (  -6.2884187139,  -0.0009579558,  -0.0690993967)
 A2 = (  -6.2872230816,  12.4565801267,  -0.0698458102)
 A3 = (  -0.0697053522,  -0.0000445225,  -6.3737103126)
 
   4 primitive cells build up your supercell.
 

 Routine SETGRP: Setting up the symmetry group for a 
 triclinic supercell.


 Subroutine GETGRP returns: Found  1 space group operations
 (whereof  1 operations were pure point group operations)
 out of a pool of  2 trial point group operations.


The (compounded) configuration has the point symmetry C_1 .


 Subroutine INISYM returns: Found  1 space group operations
 (whereof  1 operations are pure point group operations),
 and found     4 'primitive' translations

 
 
 KPOINTS: Automatic 3x3x3                         

Automatic generation of k-mesh.
Space group operators:
 irot       det(A)        alpha          n_x          n_y          n_z        tau_x        tau_y        tau_z
    1     1.000000     0.000000     1.000000     0.000000     0.000000     0.000000     0.000000     0.000000
 
 Subroutine IBZKPT returns following result:
 ===========================================
 
 Found     27 irreducible k-points:
 
 Following reciprocal coordinates:
            Coordinates               Weight
  0.000000  0.000000  0.000000      1.000000
  0.333333 -0.000000 -0.000000      1.000000
 -0.333333  0.000000  0.000000      1.000000
  0.000000  0.333333 -0.000000      1.000000
  0.333333  0.333333  0.000000      1.000000
 -0.333333  0.333333  0.000000      1.000000
 -0.000000 -0.333333  0.000000      1.000000
  0.333333 -0.333333 -0.000000      1.000000
 -0.333333 -0.333333 -0.000000      1.000000
  0.000000  0.000000  0.333333      1.000000
  0.333333  0.000000  0.333333      1.000000
 -0.333333  0.000000  0.333333      1.000000
  0.000000  0.333333  0.333333      1.000000
  0.333333  0.333333  0.333333      1.000000
 -0.333333  0.333333  0.333333      1.000000
  0.000000 -0.333333  0.333333      1.000000
  0.333333 -0.333333  0.333333      1.000000
 -0.333333 -0.333333  0.333333      1.000000
  0.000000  0.000000 -0.333333      1.000000
  0.333333 -0.000000 -0.333333      1.000000
 -0.333333 -0.000000 -0.333333      1.000000
 -0.000000  0.333333 -0.333333      1.000000
  0.333333  0.333333 -0.333333      1.000000
 -0.333333  0.333333 -0.333333      1.000000
 -0.000000 -0.333333 -0.333333      1.000000
  0.333333 -0.333333 -0.333333      1.000000
 -0.333333 -0.333333 -0.333333      1.000000
 
 Following cartesian coordinates:
            Coordinates               Weight
  0.000000  0.000000  0.000000      1.000000
  0.026507 -0.000003 -0.000290      1.000000
 -0.026507  0.000003  0.000290      1.000000
 -0.000004  0.026758 -0.000000      1.000000
  0.026503  0.026755 -0.000290      1.000000
 -0.026511  0.026760  0.000290      1.000000
  0.000004 -0.026758  0.000000      1.000000
  0.026511 -0.026760 -0.000290      1.000000
 -0.026503 -0.026755  0.000290      1.000000
 -0.000287  0.000002  0.026152      1.000000
  0.026220 -0.000001  0.025862      1.000000
 -0.026794  0.000004  0.026442      1.000000
 -0.000291  0.026759  0.026152      1.000000
  0.026215  0.026757  0.025862      1.000000
 -0.026798  0.026762  0.026442      1.000000
 -0.000283 -0.026756  0.026152      1.000000
  0.026224 -0.026759  0.025862      1.000000
 -0.026790 -0.026753  0.026442      1.000000
  0.000287 -0.000002 -0.026152      1.000000
  0.026794 -0.000004 -0.026442      1.000000
 -0.026220  0.000001 -0.025862      1.000000
  0.000283  0.026756 -0.026152      1.000000
  0.026790  0.026753 -0.026442      1.000000
 -0.026224  0.026759 -0.025862      1.000000
  0.000291 -0.026759 -0.026152      1.000000
  0.026798 -0.026762 -0.026442      1.000000
 -0.026215 -0.026757 -0.025862      1.000000
 


--------------------------------------------------------------------------------------------------------




 Dimension of arrays:
   k-points           NKPTS =     27   k-points in BZ     NKDIM =     27   number of bands    NBANDS=    600
   number of dos      NEDOS =    301   number of ions     NIONS =     96
   non local maximal  LDIM  =      6   non local SUM 2l+1 LMDIM =     18
   total plane-waves  NPLWV = ******
   max r-space proj   IRMAX =      1   max aug-charges    IRDMAX= 314103
   dimension x,y,z NGX =   112 NGY =  108 NGZ =  112
   dimension x,y,z NGXF=   224 NGYF=  216 NGZF=  224
   support grid    NGXF=   448 NGYF=  432 NGZF=  448
   ions per type =               8   8  48   8  24
 NGX,Y,Z   is equivalent  to a cutoff of  14.80, 14.41, 14.61 a.u.
 NGXF,Y,Z  is equivalent  to a cutoff of  29.61, 28.83, 29.21 a.u.


 I would recommend the setting:
   dimension x,y,z NGX =   109 NGY =  107 NGZ =  110
 SYSTEM =  MAPbI3-Cubic                            
 POSCAR =  C N H Pb I                              

 Startparameter for this run:
   NWRITE =      2    write-flag & timer
   PREC   = accura    normal or accurate (medium, high low for compatibility)
   ISTART =      0    job   : 0-new  1-cont  2-samecut
   ICHARG =      2    charge: 1-file 2-atom 10-const
   ISPIN  =      1    spin polarized calculation?
   LNONCOLLINEAR =      T non collinear calculations
   LSORBIT =      T    spin-orbit coupling
   INIWAV =      1    electr: 0-lowe 1-rand  2-diag
   LASPH  =      F    aspherical Exc in radial PAW
   METAGGA=      F    non-selfconsistent MetaGGA calc.

 Electronic Relaxation 1
   ENCUT  =  700.0 eV  51.45 Ry    7.17 a.u.  27.13 26.87 27.50*2*pi/ulx,y,z
   ENINI  =  700.0     initial cutoff
   ENAUG  =  644.9 eV  augmentation charge cutoff
   NELM   =     60;   NELMIN=  2; NELMDL= -5     # of ELM steps 
   EDIFF  = 0.1E-07   stopping-criterion for ELM
   LREAL  =      F    real-space projection
   NLSPLINE    = F    spline interpolate recip. space projectors
   LCOMPAT=      F    compatible to vasp.4.4
   GGA_COMPAT  = T    GGA compatible to vasp.4.4-vasp.4.6
   LMAXPAW     = -100 max onsite density
   LMAXMIX     =    2 max onsite mixed and CHGCAR
   VOSKOWN=      0    Vosko Wilk Nusair interpolation
   ROPT   =    0.00000   0.00000   0.00000   0.00000
   ROPT   =    0.00000
 Ionic relaxation
   EDIFFG = 0.1E-06   stopping-criterion for IOM
   NSW    =      0    number of steps for IOM
   NBLOCK =      1;   KBLOCK =      1    inner block; outer block 
   IBRION =     -1    ionic relax: 0-MD 1-quasi-New 2-CG
   NFREE  =      0    steps in history (QN), initial steepest desc. (CG)
   ISIF   =      2    stress and relaxation
   IWAVPR =     10    prediction:  0-non 1-charg 2-wave 3-comb
   ISYM   =      2    0-nonsym 1-usesym 2-fastsym
   LCORR  =      T    Harris-Foulkes like correction to forces

   POTIM  = 0.5000    time-step for ionic-motion
   TEIN   =    0.0    initial temperature
   TEBEG  =    0.0;   TEEND  =   0.0 temperature during run
   SMASS  =  -3.00    Nose mass-parameter (am)
   estimated Nose-frequenzy (Omega)   =  0.10E-29 period in steps =****** mass=  -0.362E-26a.u.
   SCALEE = 1.0000    scale energy and forces
   NPACO  =    256;   APACO  = 16.0  distance and # of slots for P.C.
   PSTRESS=    0.0 pullay stress

  Mass of Ions in am
   POMASS =  12.01 14.00  1.00207.20126.90
  Ionic Valenz
   ZVAL   =   4.00  5.00  1.00 14.00  7.00
  Atomic Wigner-Seitz radii
   RWIGS  =  -1.00 -1.00 -1.00 -1.00 -1.00
  virtual crystal weights 
   VCA    =   1.00  1.00  1.00  1.00  1.00
   NELECT =     400.0000    total number of electrons
   NUPDOWN=      -1.0000    fix difference up-down

 DOS related values:
   EMIN   =  10.00;   EMAX   =-10.00  energy-range for DOS
   EFERMI =   0.00
   ISMEAR =     0;   SIGMA  =   0.00  broadening in eV -4-tet -1-fermi 0-gaus

 Electronic relaxation 2 (details)
   IALGO  =     38    algorithm
   LDIAG  =      T    sub-space diagonalisation (order eigenvalues)
   LSUBROT=      F    optimize rotation matrix (better conditioning)
   TURBO    =      0    0=normal 1=particle mesh
   IRESTART =      0    0=no restart 2=restart with 2 vectors
   NREBOOT  =      0    no. of reboots
   NMIN     =      0    reboot dimension
   EREF     =   0.00    reference energy to select bands
   IMIX   =      4    mixing-type and parameters
     AMIX     =   0.40;   BMIX     =  1.00
     AMIX_MAG =   1.60;   BMIX_MAG =  1.00
     AMIN     =   0.10
     WC   =   100.;   INIMIX=   1;  MIXPRE=   1;  MAXMIX= -45

 Intra band minimization:
   WEIMIN = 0.0000     energy-eigenvalue tresh-hold
   EBREAK =  0.42E-11  absolut break condition
   DEPER  =   0.30     relativ break condition  

   TIME   =   0.40     timestep for ELM

  volume/ion in A,a.u.               =      20.80       140.38
  Fermi-wavevector in a.u.,A,eV,Ry     =   0.957863  1.810099 12.483376  0.917502
  Thomas-Fermi vector in A             =   2.086919
 
 Write flags
   LWAVE  =      F    write WAVECAR
   LCHARG =      F    write CHGCAR
   LVTOT  =      F    write LOCPOT, total local potential
   LVHAR  =      F    write LOCPOT, Hartree potential only
   LELF   =      F    write electronic localiz. function (ELF)
   LORBIT =      0    0 simple, 1 ext, 2 COOP (PROOUT)


 Dipole corrections
   LMONO  =      F    monopole corrections only (constant potential shift)
   LDIPOL =      F    correct potential (dipole corrections)
   IDIPOL =      0    1-x, 2-y, 3-z, 4-all directions 
   EPSILON=  1.0000000 bulk dielectric constant

 Core level calculations are selected ICORELEVEL =  1
 Exchange correlation treatment:
   GGA     =    PS    GGA type
   LEXCH   =    14    internal setting for exchange type
   VOSKOWN=      0    Vosko Wilk Nusair interpolation
   LHFCALC =     F    Hartree Fock is set to
   LHFONE  =     F    Hartree Fock one center treatment
   AEXX    =    0.0000 exact exchange contribution

 Linear response parameters
   LEPSILON=     F    determine dielectric tensor
   LRPA    =     F    only Hartree local field effects (RPA)
   LNABLA  =     F    use nabla operator in PAW spheres
   LVEL    =     F    velocity operator in full k-point grid
   LINTERFAST=   F  fast interpolation
   KINTER  =     0    interpolate to denser k-point grid
   CSHIFT  =0.1000    complex shift for real part using Kramers Kronig
   OMEGAMAX=  -1.0    maximum frequency
   DEG_THRESHOLD= 0.2000000E-02 threshold for treating states as degnerate
   RTIME   =    0.100 relaxation time in fs

 Orbital magnetization related:
   ORBITALMAG=     F  switch on orbital magnetization
   LCHIMAG   =     F  perturbation theory with respect to B field
   DQ        =  0.001000  dq finite difference perturbation B field



--------------------------------------------------------------------------------------------------------


 Static calculation
 charge density and potential will be updated during run
 non collinear spin polarized calculation
 Variant of blocked Davidson
 Davidson routine will perform the subspace rotation
 perform sub-space diagonalisation
    after iterative eigenvector-optimisation
 modified Broyden-mixing scheme, WC =      100.0
 initial mixing is a Kerker type mixing with AMIX =  0.4000 and BMIX =      1.0000
 Hartree-type preconditioning will be used
 using additional bands          400
 reciprocal scheme for non local part
 use partial core corrections
 calculate Harris-corrections to forces 
   (improved forces if not selfconsistent)
 use gradient corrections 
 use of overlap-Matrix (Vanderbilt PP)
 Gauss-broadening in eV      SIGMA  =   0.00


--------------------------------------------------------------------------------------------------------


  energy-cutoff  :      700.00
  volume of cell :     1996.98
      direct lattice vectors                 reciprocal lattice vectors
    12.576837428  0.001915912  0.138198793     0.079520802 -0.000007684 -0.000869670
     0.001195632 12.457538083 -0.000746413    -0.000012224  0.080272684 -0.000000427
     0.139410704  0.000089045 12.747420625    -0.000862111  0.000004784  0.078456671

  length of vectors
    12.577596840 12.457538162 12.748182927     0.079525558  0.080272685  0.078461408


 
 k-points in units of 2pi/SCALE and weight: Automatic 3x3x3                         
   0.00000000  0.00000000  0.00000000       0.037
   0.02650693 -0.00000256 -0.00028989       0.037
  -0.02650693  0.00000256  0.00028989       0.037
  -0.00000407  0.02675756 -0.00000014       0.037
   0.02650286  0.02675500 -0.00029003       0.037
  -0.02651101  0.02676012  0.00028975       0.037
   0.00000407 -0.02675756  0.00000014       0.037
   0.02651101 -0.02676012 -0.00028975       0.037
  -0.02650286 -0.02675500  0.00029003       0.037
  -0.00028737  0.00000159  0.02615222       0.037
   0.02621956 -0.00000097  0.02586233       0.037
  -0.02679430  0.00000416  0.02644211       0.037
  -0.00029144  0.02675916  0.02615208       0.037
   0.02621549  0.02675659  0.02586219       0.037
  -0.02679838  0.02676172  0.02644197       0.037
  -0.00028330 -0.02675597  0.02615237       0.037
   0.02622364 -0.02675853  0.02586248       0.037
  -0.02679023 -0.02675341  0.02644226       0.037
   0.00028737 -0.00000159 -0.02615222       0.037
   0.02679430 -0.00000416 -0.02644211       0.037
  -0.02621956  0.00000097 -0.02586233       0.037
   0.00028330  0.02675597 -0.02615237       0.037
   0.02679023  0.02675341 -0.02644226       0.037
  -0.02622364  0.02675853 -0.02586248       0.037
   0.00029144 -0.02675916 -0.02615208       0.037
   0.02679838 -0.02676172 -0.02644197       0.037
  -0.02621549 -0.02675659 -0.02586219       0.037
 
 k-points in reciprocal lattice and weights: Automatic 3x3x3                         
   0.00000000  0.00000000  0.00000000       0.037
   0.33333333 -0.00000000 -0.00000000       0.037
  -0.33333333  0.00000000  0.00000000       0.037
   0.00000000  0.33333333 -0.00000000       0.037
   0.33333333  0.33333333  0.00000000       0.037
  -0.33333333  0.33333333  0.00000000       0.037
  -0.00000000 -0.33333333  0.00000000       0.037
   0.33333333 -0.33333333 -0.00000000       0.037
  -0.33333333 -0.33333333 -0.00000000       0.037
   0.00000000  0.00000000  0.33333333       0.037
   0.33333333  0.00000000  0.33333333       0.037
  -0.33333333  0.00000000  0.33333333       0.037
   0.00000000  0.33333333  0.33333333       0.037
   0.33333333  0.33333333  0.33333333       0.037
  -0.33333333  0.33333333  0.33333333       0.037
   0.00000000 -0.33333333  0.33333333       0.037
   0.33333333 -0.33333333  0.33333333       0.037
  -0.33333333 -0.33333333  0.33333333       0.037
   0.00000000  0.00000000 -0.33333333       0.037
   0.33333333 -0.00000000 -0.33333333       0.037
  -0.33333333 -0.00000000 -0.33333333       0.037
  -0.00000000  0.33333333 -0.33333333       0.037
   0.33333333  0.33333333 -0.33333333       0.037
  -0.33333333  0.33333333 -0.33333333       0.037
  -0.00000000 -0.33333333 -0.33333333       0.037
   0.33333333 -0.33333333 -0.33333333       0.037
  -0.33333333 -0.33333333 -0.33333333       0.037
 
 position of ions in fractional coordinates (direct lattice) 
   0.19699413  0.24990828  0.22891535
   0.69699413  0.24990828  0.22891535
   0.19699413  0.74990828  0.22891535
   0.69699413  0.74990828  0.22891535
   0.19699413  0.24990828  0.72891535
   0.69699413  0.24990828  0.72891535
   0.19699413  0.74990828  0.72891535
   0.69699413  0.74990828  0.72891535
   0.30453722  0.25000364  0.27388430
   0.80453722  0.25000364  0.27388430
   0.30453722  0.75000364  0.27388430
   0.80453722  0.75000364  0.27388430
   0.30453722  0.25000364  0.77388430
   0.80453722  0.25000364  0.77388430
   0.30453722  0.75000364  0.77388430
   0.80453722  0.75000364  0.77388430
   0.20507517  0.24982110  0.14288863
   0.70507517  0.24982110  0.14288863
   0.20507517  0.74982110  0.14288863
   0.70507517  0.74982110  0.14288863
   0.20507517  0.24982110  0.64288863
   0.70507517  0.24982110  0.64288863
   0.20507517  0.74982110  0.64288863
   0.70507517  0.74982110  0.64288863
   0.15433781  0.32235219  0.25551532
   0.65433781  0.32235219  0.25551532
   0.15433781  0.82235219  0.25551532
   0.65433781  0.82235219  0.25551532
   0.15433781  0.32235219  0.75551532
   0.65433781  0.32235219  0.75551532
   0.15433781  0.82235219  0.75551532
   0.65433781  0.82235219  0.75551532
   0.15444283  0.17747607  0.25565071
   0.65444283  0.17747607  0.25565071
   0.15444283  0.67747607  0.25565071
   0.65444283  0.67747607  0.25565071
   0.15444283  0.17747607  0.75565071
   0.65444283  0.17747607  0.75565071
   0.15444283  0.67747607  0.75565071
   0.65444283  0.67747607  0.75565071
   0.34813458  0.31787428  0.25075649
   0.84813458  0.31787428  0.25075649
   0.34813458  0.81787428  0.25075649
   0.84813458  0.81787428  0.25075649
   0.34813458  0.31787428  0.75075649
   0.84813458  0.31787428  0.75075649
   0.34813458  0.81787428  0.75075649
   0.84813458  0.81787428  0.75075649
   0.34820530  0.18210489  0.25089090
   0.84820530  0.18210489  0.25089090
   0.34820530  0.68210489  0.25089090
   0.84820530  0.68210489  0.25089090
   0.34820530  0.18210489  0.75089090
   0.84820530  0.18210489  0.75089090
   0.34820530  0.68210489  0.75089090
   0.84820530  0.68210489  0.75089090
   0.30317007  0.25009352  0.35560924
   0.80317007  0.25009352  0.35560924
   0.30317007  0.75009352  0.35560924
   0.80317007  0.75009352  0.35560924
   0.30317007  0.25009352  0.85560924
   0.80317007  0.25009352  0.85560924
   0.30317007  0.75009352  0.85560924
   0.80317007  0.75009352  0.85560924
   0.47244178  0.49998979  0.48881145
   0.97244178  0.49998979  0.48881145
   0.47244178  0.99998979  0.48881145
   0.97244178  0.99998979  0.48881145
   0.47244178  0.49998979  0.98881145
   0.97244178  0.49998979  0.98881145
   0.47244178  0.99998979  0.98881145
   0.97244178  0.99998979  0.98881145
   0.45474367  0.49999105  0.23757274
   0.95474367  0.49999105  0.23757274
   0.45474367  0.99999105  0.23757274
   0.95474367  0.99999105  0.23757274
   0.45474367  0.49999105  0.73757274
   0.95474367  0.49999105  0.73757274
   0.45474367  0.99999105  0.73757274
   0.95474367  0.99999105  0.73757274
   0.44963544  0.24997901  0.01183222
   0.94963544  0.24997901  0.01183222
   0.44963544  0.74997901  0.01183222
   0.94963544  0.74997901  0.01183222
   0.44963544  0.24997901  0.51183222
   0.94963544  0.24997901  0.51183222
   0.44963544  0.74997901  0.51183222
   0.94963544  0.74997901  0.51183222
   0.21617144  0.49999744  0.46123970
   0.71617144  0.49999744  0.46123970
   0.21617144  0.99999744  0.46123970
   0.71617144  0.99999744  0.46123970
   0.21617144  0.49999744  0.96123970
   0.71617144  0.49999744  0.96123970
   0.21617144  0.99999744  0.96123970
   0.71617144  0.99999744  0.96123970
 
 position of ions in cartesian coordinates  (Angst):
   2.50977523  3.11363966  2.94511813
   8.79819394  3.11459762  3.01421752
   2.51037304  9.34240870  2.94474492
   8.79879176  9.34336666  3.01384432
   2.57948058  3.11368418  9.31882844
   8.86789929  3.11464214  9.38792784
   2.58007840  9.34245323  9.31845523
   8.86849711  9.34341118  9.38755463
   3.86859641  3.11503773  3.53321840
  10.15701512  3.11599568  3.60231780
   3.86919422  9.34380677  3.53284519
  10.15761294  9.34476473  3.60194459
   3.93830176  3.11508225  9.90692871
  10.22672047  3.11604021  9.97602811
   3.93889958  9.34385129  9.90655551
  10.22731829  9.34480925  9.97565490
   2.59941594  3.11256145  1.84961609
   8.88783465  3.11351941  1.91871549
   2.60001375  9.34133049  1.84924288
   8.88843247  9.34228845  1.91834228
   2.66912129  3.11260597  8.22332640
   8.95754000  3.11356393  8.29242580
   2.66971911  9.34137501  8.22295319
   8.95813782  9.34233297  8.29205259
   1.97708849  4.01603309  3.27824994
   8.26550720  4.01699105  3.34734934
   1.97768630 10.24480213  3.27787673
   8.26610502 10.24576009  3.34697613
   2.04679384  4.01607761  9.65196025
   8.33521255  4.01703557  9.72105965
   2.04739166 10.24484666  9.65158705
   8.33581037 10.24580461  9.72068644
   1.97825505  2.21123361  3.28009843
   8.26667377  2.21219156  3.34919783
   1.97885287  8.44000265  3.27972523
   8.26727158  8.44096060  3.34882462
   2.04796040  2.21127813  9.65380875
   8.33637912  2.21223609  9.72290814
   2.04855822  8.44004717  9.65343554
   8.33697693  8.44100513  9.72253494
   4.41377018  3.96062031  3.24437298
  10.70218890  3.96157826  3.31347237
   4.41436800 10.18938935  3.24399977
  10.70278671 10.19034731  3.31309917
   4.48347553  3.96066483  9.61808329
  10.77189425  3.96162279  9.68718269
   4.48407335 10.18943387  9.61771008
  10.77249206 10.19039183  9.68680948
   4.41451606  2.26926804  3.24619746
  10.70293477  2.27022600  3.31529685
   4.41511388  8.49803708  3.24582425
  10.70353259  8.49899504  3.31492365
   4.48422141  2.26931256  9.61990777
  10.77264013  2.27027052  9.68900717
   4.48481923  8.49808161  9.61953456
  10.77323794  8.49903956  9.68863396
   3.86279548  3.11616208  4.57481169
  10.15121419  3.11712004  4.64391108
   3.86339329  9.34493112  4.57443848
  10.15181201  9.34588908  4.64353788
   3.93250083  3.11620661 10.94852200
  10.22091954  3.11716456 11.01762139
   3.93309864  9.34497565 10.94814879
  10.22151736  9.34593360 11.01724819
   6.01056676  6.22959059  6.29600281
  12.29898548  6.23054855  6.36510220
   6.01116458 12.45835963  6.29562960
  12.29958329 12.45931759  6.36472900
   6.08027211  6.22963512 12.66971312
  12.36869083  6.23059307 12.73881252
   6.08086993 12.45840416 12.66933991
  12.36928864 12.45936211 12.73843931
   5.75295525  6.22954994  3.09091150
  12.04137397  6.23050790  3.16001089
   5.75355307 12.45831898  3.09053829
  12.04197178 12.45927694  3.15963769
   5.82266060  6.22959447  9.46462181
  12.11107932  6.23055242  9.53372121
   5.82325842 12.45836351  9.46424860
  12.11167713 12.45932146  9.53334800
   5.65694025  3.11498556  0.21278274
  11.94535896  3.11594351  0.28188214
   5.65753806  9.34375460  0.21240954
  11.94595678  9.34471256  0.28150893
   5.72664560  3.11503008  6.58649306
  12.01506431  3.11598804  6.65559245
   5.72724341  9.34379912  6.58611985
  12.01566213  9.34475708  6.65521925
   2.78365260  6.22919234  5.90911792
   9.07207132  6.23015030  5.97821731
   2.78425042 12.45796138  5.90874471
   9.07266913 12.45891934  5.97784411
   2.85335795  6.22923686 12.28282823
   9.14177667  6.23019482 12.35192762
   2.85395577 12.45800590 12.28245502
   9.14237448 12.45896386 12.35155442
 
 Euler angles ALPHA=     0.0000000  BETA=     0.0000000

 transformation matrix from SAXIS to cartesian coordinates
 ---------------------------------------------------------
     1.0000000 m_x     0.0000000 m_y     0.0000000 m_z
     0.0000000 m_x     1.0000000 m_y     0.0000000 m_z
     0.0000000 m_x     0.0000000 m_y     1.0000000 m_z

 transformation matrix from cartesian coordinates to SAXIS
 ---------------------------------------------------------
     1.0000000 m_x     0.0000000 m_y     0.0000000 m_z
     0.0000000 m_x     1.0000000 m_y     0.0000000 m_z
     0.0000000 m_x     0.0000000 m_y     1.0000000 m_z




--------------------------------------------------------------------------------------------------------


 k-point  1 :   0.0000 0.0000 0.0000  plane waves:  168014
 k-point  2 :   0.3333-0.0000-0.0000  plane waves:  168006
 k-point  3 :  -0.3333 0.0000 0.0000  plane waves:  168006
 k-point  4 :   0.0000 0.3333-0.0000  plane waves:  167990
 k-point  5 :   0.3333 0.3333 0.0000  plane waves:  168036
 k-point  6 :  -0.3333 0.3333 0.0000  plane waves:  168038
 k-point  7 :  -0.0000-0.3333 0.0000  plane waves:  167990
 k-point  8 :   0.3333-0.3333-0.0000  plane waves:  168038
 k-point  9 :  -0.3333-0.3333-0.0000  plane waves:  168036
 k-point 10 :   0.0000 0.0000 0.3333  plane waves:  167920
 k-point 11 :   0.3333 0.0000 0.3333  plane waves:  167874
 k-point 12 :  -0.3333 0.0000 0.3333  plane waves:  167964
 k-point 13 :   0.0000 0.3333 0.3333  plane waves:  167968
 k-point 14 :   0.3333 0.3333 0.3333  plane waves:  168024
 k-point 15 :  -0.3333 0.3333 0.3333  plane waves:  167940
 k-point 16 :   0.0000-0.3333 0.3333  plane waves:  167954
 k-point 17 :   0.3333-0.3333 0.3333  plane waves:  168026
 k-point 18 :  -0.3333-0.3333 0.3333  plane waves:  167946
 k-point 19 :   0.0000 0.0000-0.3333  plane waves:  167920
 k-point 20 :   0.3333-0.0000-0.3333  plane waves:  167964
 k-point 21 :  -0.3333-0.0000-0.3333  plane waves:  167874
 k-point 22 :  -0.0000 0.3333-0.3333  plane waves:  167954
 k-point 23 :   0.3333 0.3333-0.3333  plane waves:  167946
 k-point 24 :  -0.3333 0.3333-0.3333  plane waves:  168026
 k-point 25 :  -0.0000-0.3333-0.3333  plane waves:  167968
 k-point 26 :   0.3333-0.3333-0.3333  plane waves:  167940
 k-point 27 :  -0.3333-0.3333-0.3333  plane waves:  168024

 maximum and minimum number of plane-waves per node :      7122     6820

 maximum number of plane-waves:    168038
 maximum index in each direction: 
   IXMAX=   27   IYMAX=   27   IZMAX=   27
   IXMIN=  -27   IYMIN=  -27   IZMIN=  -27

 NGX is ok and might be reduce to 110
 WARNING: aliasing errors must be expected set NGY to 110 to avoid them
 NGZ is ok and might be reduce to 110
 aliasing errors are usually negligible using standard VASP settings
 and one can safely disregard these warnings

 parallel 3D FFT for wavefunctions:
    minimum data exchange during FFTs selected (reduces bandwidth)
 parallel 3D FFT for charge:
    minimum data exchange during FFTs selected (reduces bandwidth)


 total amount of memory used by VASP on root node   392927. kBytes
========================================================================

   base      :      30000. kBytes
   nonl-proj :      73667. kBytes
   fftplans  :      22714. kBytes
   grid      :      35610. kBytes
   one-center:        248. kBytes
   wavefun   :     230688. kBytes
 
     INWAV:  cpu time    0.0000: real time    0.0000
 Broyden mixing: mesh for mixing (old mesh)
   NGX = 55   NGY = 53   NGZ = 55
  (NGX  =224   NGY  =216   NGZ  =224)
  gives a total of 160325 points

 initial charge density was supplied:
 charge density of overlapping atoms calculated
 number of electron     400.0000000 magnetization      96.0000000     96.0000000     96.0000000
 keeping initial charge density in first step


--------------------------------------------------------------------------------------------------------


 Maximum index for augmentation-charges         5136 (set IRDMAX)


--------------------------------------------------------------------------------------------------------


 First call to EWALD:  gamma=   0.141
 Maximum number of real-space cells 3x 3x 3
 Maximum number of reciprocal cells 3x 3x 3

 FEWALD executed in parallel
    FEWALD:  cpu time    0.0040: real time    0.0043


----------------------------------------- Iteration    1(   1)  ---------------------------------------


    POTLOK:  cpu time    0.5680: real time    0.5703
    SETDIJ:  cpu time    2.1241: real time    2.1241
     EDDAV:  cpu time  239.5070: real time  239.6647
       DOS:  cpu time    0.0080: real time    0.0069
    --------------------------------------------
      LOOP:  cpu time  242.2111: real time  242.8304

 eigenvalue-minimisations  : 32544
 total energy-change (2. order) : 0.4234282E+04  (-0.1930946E+05)
 number of electron     400.0000000 magnetization      96.0000000     96.0000000     96.0000000
 augmentation part      400.0000000 magnetization      96.0000000     96.0000000     96.0000000

 Free energy of the ion-electron system (eV)
  ---------------------------------------------------
  alpha Z        PSCENC =       370.05370877
  Ewald energy   TEWEN  =    -15504.44764173
  -Hartree energ DENC   =     -8139.72641594
  -exchange      EXHF   =         0.00000000
  -V(xc)+E(xc)   XCENC  =       674.32143332
  PAW double counting   =     20172.90621935   -19413.33347658
  entropy T*S    EENTRO =        -0.00001042
  eigenvalues    EBANDS =      1325.50106728
  atomic energy  EATOM  =     24749.00668030
  Solvation  Ediel_sol  =         0.00000000
  ---------------------------------------------------
  free energy    TOTEN  =      4234.28156435 eV

  energy without entropy =     4234.28157478  energy(sigma->0) =     4234.28156957


--------------------------------------------------------------------------------------------------------




----------------------------------------- Iteration    1(   2)  ---------------------------------------


     EDDAV:  cpu time  255.8880: real time  256.0574
       DOS:  cpu time    0.0080: real time    0.0070
    --------------------------------------------
      LOOP:  cpu time  255.8960: real time  256.9414

 eigenvalue-minimisations  : 35600
 total energy-change (2. order) :-0.3388151E+04  (-0.3138273E+04)
 number of electron     400.0000000 magnetization      96.0000000     96.0000000     96.0000000
 augmentation part      400.0000000 magnetization      96.0000000     96.0000000     96.0000000

 Free energy of the ion-electron system (eV)
  ---------------------------------------------------
  alpha Z        PSCENC =       370.05370877
  Ewald energy   TEWEN  =    -15504.44764173
  -Hartree energ DENC   =     -8139.72641594
  -exchange      EXHF   =         0.00000000
  -V(xc)+E(xc)   XCENC  =       674.32143332
  PAW double counting   =     20172.90621935   -19413.33347658
  entropy T*S    EENTRO =        -0.00001990
  eigenvalues    EBANDS =     -2062.65026145
  atomic energy  EATOM  =     24749.00668030
  Solvation  Ediel_sol  =         0.00000000
  ---------------------------------------------------
  free energy    TOTEN  =       846.13022614 eV

  energy without entropy =      846.13024604  energy(sigma->0) =      846.13023609


--------------------------------------------------------------------------------------------------------




----------------------------------------- Iteration    1(   3)  ---------------------------------------


     EDDAV:  cpu time  301.4988: real time  301.6959
       DOS:  cpu time    0.0040: real time    0.0068
    --------------------------------------------
      LOOP:  cpu time  301.5068: real time  301.7557

 eigenvalue-minimisations  : 43992
 total energy-change (2. order) :-0.6105990E+03  (-0.5903167E+03)
 number of electron     400.0000000 magnetization      96.0000000     96.0000000     96.0000000
 augmentation part      400.0000000 magnetization      96.0000000     96.0000000     96.0000000

 Free energy of the ion-electron system (eV)
  ---------------------------------------------------
  alpha Z        PSCENC =       370.05370877
  Ewald energy   TEWEN  =    -15504.44764173
  -Hartree energ DENC   =     -8139.72641594
  -exchange      EXHF   =         0.00000000
  -V(xc)+E(xc)   XCENC  =       674.32143332
  PAW double counting   =     20172.90621935   -19413.33347658
  entropy T*S    EENTRO =        -0.00002197
  eigenvalues    EBANDS =     -2673.24923352
  atomic energy  EATOM  =     24749.00668030
  Solvation  Ediel_sol  =         0.00000000
  ---------------------------------------------------
  free energy    TOTEN  =       235.53125201 eV

  energy without entropy =      235.53127397  energy(sigma->0) =      235.53126299


--------------------------------------------------------------------------------------------------------




----------------------------------------- Iteration    1(   4)  ---------------------------------------


     EDDAV:  cpu time  302.5869: real time  302.7852
       DOS:  cpu time    0.0040: real time    0.0066
    --------------------------------------------
      LOOP:  cpu time  302.5949: real time  302.8252

 eigenvalue-minimisations  : 44168
 total energy-change (2. order) :-0.4576235E+02  (-0.4470671E+02)
 number of electron     400.0000000 magnetization      96.0000000     96.0000000     96.0000000
 augmentation part      400.0000000 magnetization      96.0000000     96.0000000     96.0000000

 Free energy of the ion-electron system (eV)
  ---------------------------------------------------
  alpha Z        PSCENC =       370.05370877
  Ewald energy   TEWEN  =    -15504.44764173
  -Hartree energ DENC   =     -8139.72641594
  -exchange      EXHF   =         0.00000000
  -V(xc)+E(xc)   XCENC  =       674.32143332
  PAW double counting   =     20172.90621935   -19413.33347658
  entropy T*S    EENTRO =        -0.00019533
  eigenvalues    EBANDS =     -2719.01141010
  atomic energy  EATOM  =     24749.00668030
  Solvation  Ediel_sol  =         0.00000000
  ---------------------------------------------------
  free energy    TOTEN  =       189.76890207 eV

  energy without entropy =      189.76909740  energy(sigma->0) =      189.76899973


--------------------------------------------------------------------------------------------------------




----------------------------------------- Iteration    1(   5)  ---------------------------------------


     EDDAV:  cpu time  335.5610: real time  335.7846
       DOS:  cpu time    0.0080: real time    0.0076
    CHARGE:  cpu time   11.7607: real time   11.7652
    MIXING:  cpu time    0.0160: real time    0.0167
    --------------------------------------------
      LOOP:  cpu time  347.3497: real time  347.6341

 eigenvalue-minimisations  : 50256
 total energy-change (2. order) :-0.2294661E+01  (-0.2283740E+01)
 number of electron     399.9999999 magnetization      67.0888864     67.0858334     67.0869217
 augmentation part        7.0118186 magnetization      63.4771962     63.4849416     63.4816204

 Broyden mixing:
  rms(total) = 0.97782E+01    rms(broyden)= 0.97781E+01
  rms(prec ) = 0.10258E+02
  weight for this iteration     100.00

 Free energy of the ion-electron system (eV)
  ---------------------------------------------------
  alpha Z        PSCENC =       370.05370877
  Ewald energy   TEWEN  =    -15504.44764173
  -Hartree energ DENC   =     -8139.72641594
  -exchange      EXHF   =         0.00000000
  -V(xc)+E(xc)   XCENC  =       674.32143332
  PAW double counting   =     20172.90621935   -19413.33347658
  entropy T*S    EENTRO =        -0.00088794
  eigenvalues    EBANDS =     -2721.30537858
  atomic energy  EATOM  =     24749.00668030
  Solvation  Ediel_sol  =         0.00000000
  ---------------------------------------------------
  free energy    TOTEN  =       187.47424097 eV

  energy without entropy =      187.47512891  energy(sigma->0) =      187.47468494


--------------------------------------------------------------------------------------------------------




----------------------------------------- Iteration    1(   6)  ---------------------------------------


    POTLOK:  cpu time    0.5640: real time    0.5632
    SETDIJ:  cpu time    2.1401: real time    2.1420
     EDDAV:  cpu time  262.5964: real time  262.7691
       DOS:  cpu time    0.0040: real time    0.0053
    CHARGE:  cpu time   12.0648: real time   12.0724
    MIXING:  cpu time    0.0160: real time    0.0155
    --------------------------------------------
      LOOP:  cpu time  277.3853: real time  277.6342

 eigenvalue-minimisations  : 36848
 total energy-change (2. order) :-0.1325647E+03  (-0.1512556E+03)
 number of electron     399.9999999 magnetization      50.0182331     50.0139482     50.0174369
 augmentation part        5.9419480 magnetization      50.7955439     50.8004398     50.7924158

 Broyden mixing:
  rms(total) = 0.47578E+01    rms(broyden)= 0.47577E+01
  rms(prec ) = 0.49311E+01
  weight for this iteration     100.00

 eigenvalues of (default mixing * dielectric matrix)
  average eigenvalue GAMMA=   0.7687
  0.7687

 Free energy of the ion-electron system (eV)
  ---------------------------------------------------
  alpha Z        PSCENC =       370.05370877
  Ewald energy   TEWEN  =    -15504.44764173
  -Hartree energ DENC   =     -8499.25006918
  -exchange      EXHF   =         0.00000000
  -V(xc)+E(xc)   XCENC  =       691.48417598
  PAW double counting   =     24217.52929832   -23480.71273051
  entropy T*S    EENTRO =        -0.00000000
  eigenvalues    EBANDS =     -2488.75389058
  atomic energy  EATOM  =     24749.00668030
  Solvation  Ediel_sol  =         0.00000000
  ---------------------------------------------------
  free energy    TOTEN  =        54.90953138 eV

  energy without entropy =       54.90953138  energy(sigma->0) =       54.90953138


--------------------------------------------------------------------------------------------------------




----------------------------------------- Iteration    1(   7)  ---------------------------------------


    POTLOK:  cpu time    0.5600: real time    0.5589
    SETDIJ:  cpu time    2.1761: real time    2.1769
     EDDAV:  cpu time  275.8372: real time  276.0216
       DOS:  cpu time    0.0080: real time    0.0077
    CHARGE:  cpu time   12.0728: real time   12.0803
    MIXING:  cpu time    0.0160: real time    0.0162
    --------------------------------------------
      LOOP:  cpu time  290.6702: real time  290.9557

 eigenvalue-minimisations  : 39216
 total energy-change (2. order) :-0.1508950E+03  (-0.1593999E+02)
 number of electron     399.9999999 magnetization      33.6911062     33.6841170     33.6938216
 augmentation part        5.6476815 magnetization      34.7277976     34.7346711     34.7175526

 Broyden mixing:
  rms(total) = 0.27938E+01    rms(broyden)= 0.27938E+01
  rms(prec ) = 0.29375E+01
  weight for this iteration     100.00

 eigenvalues of (default mixing * dielectric matrix)
  average eigenvalue GAMMA=   0.8504
  0.8504  0.8504

 Free energy of the ion-electron system (eV)
  ---------------------------------------------------
  alpha Z        PSCENC =       370.05370877
  Ewald energy   TEWEN  =    -15504.44764173
  -Hartree energ DENC   =     -8549.51774372
  -exchange      EXHF   =         0.00000000
  -V(xc)+E(xc)   XCENC  =       591.66260176
  PAW double counting   =     26724.62255381   -25987.95535102
  entropy T*S    EENTRO =        -0.00002128
  eigenvalues    EBANDS =     -2489.41024475
  atomic energy  EATOM  =     24749.00668030
  Solvation  Ediel_sol  =         0.00000000
  ---------------------------------------------------
  free energy    TOTEN  =       -95.98545785 eV

  energy without entropy =      -95.98543657  energy(sigma->0) =      -95.98544721


--------------------------------------------------------------------------------------------------------




----------------------------------------- Iteration    1(   8)  ---------------------------------------


    POTLOK:  cpu time    0.5800: real time    0.5804
    SETDIJ:  cpu time    2.1601: real time    2.1606
     EDDAV:  cpu time  264.9566: real time  265.1377
       DOS:  cpu time    0.0040: real time    0.0034
    CHARGE:  cpu time   12.0328: real time   12.0387
    MIXING:  cpu time    0.0160: real time    0.0170
    --------------------------------------------
      LOOP:  cpu time  279.7535: real time  279.9492

 eigenvalue-minimisations  : 37216
 total energy-change (2. order) :-0.1101398E+03  (-0.6449889E+01)
 number of electron     399.9999999 magnetization      15.1946990     15.1827719     15.1973584
 augmentation part        6.7071085 magnetization      16.3498401     16.3570570     16.3525587

 Broyden mixing:
  rms(total) = 0.17973E+01    rms(broyden)= 0.17973E+01
  rms(prec ) = 0.18481E+01
  weight for this iteration     100.00

 eigenvalues of (default mixing * dielectric matrix)
  average eigenvalue GAMMA=   1.0234
  1.4718  0.9652  0.6333

 Free energy of the ion-electron system (eV)
  ---------------------------------------------------
  alpha Z        PSCENC =       370.05370877
  Ewald energy   TEWEN  =    -15504.44764173
  -Hartree energ DENC   =     -8584.22387092
  -exchange      EXHF   =         0.00000000
  -V(xc)+E(xc)   XCENC  =       527.59218102
  PAW double counting   =     28784.09233417   -28049.58321713
  entropy T*S    EENTRO =        -0.00000000
  eigenvalues    EBANDS =     -2498.61544294
  atomic energy  EATOM  =     24749.00668030
  Solvation  Ediel_sol  =         0.00000000
  ---------------------------------------------------
  free energy    TOTEN  =      -206.12526845 eV

  energy without entropy =     -206.12526845  energy(sigma->0) =     -206.12526845


--------------------------------------------------------------------------------------------------------




----------------------------------------- Iteration    1(   9)  ---------------------------------------


    POTLOK:  cpu time    0.5640: real time    0.5662
    SETDIJ:  cpu time    2.1681: real time    2.1704
     EDDAV:  cpu time  262.7284: real time  262.9008
       DOS:  cpu time    0.0040: real time    0.0036
    CHARGE:  cpu time   12.0768: real time   12.0843
    MIXING:  cpu time    0.0160: real time    0.0167
    --------------------------------------------
      LOOP:  cpu time  277.5613: real time  277.7595

 eigenvalue-minimisations  : 36744
 total energy-change (2. order) :-0.1318176E+03  (-0.1247718E+02)
 number of electron     399.9999999 magnetization      10.0827267     10.0691306     10.0819253
 augmentation part        7.9748168 magnetization      10.8747593     10.8812489     10.8866915

 Broyden mixing:
  rms(total) = 0.89287E+00    rms(broyden)= 0.89286E+00
  rms(prec ) = 0.94641E+00
  weight for this iteration     100.00

 eigenvalues of (default mixing * dielectric matrix)
  average eigenvalue GAMMA=   1.0882
  1.8540  1.1021  0.6984  0.6984

 Free energy of the ion-electron system (eV)
  ---------------------------------------------------
  alpha Z        PSCENC =       370.05370877
  Ewald energy   TEWEN  =    -15504.44764173
  -Hartree energ DENC   =     -8615.78185061
  -exchange      EXHF   =         0.00000000
  -V(xc)+E(xc)   XCENC  =       462.13922472
  PAW double counting   =     30880.55300073   -30147.16595695
  entropy T*S    EENTRO =         0.00000000
  eigenvalues    EBANDS =     -2532.30003725
  atomic energy  EATOM  =     24749.00668030
  Solvation  Ediel_sol  =         0.00000000
  ---------------------------------------------------
  free energy    TOTEN  =      -337.94287202 eV

  energy without entropy =     -337.94287202  energy(sigma->0) =     -337.94287202


--------------------------------------------------------------------------------------------------------




----------------------------------------- Iteration    1(  10)  ---------------------------------------


    POTLOK:  cpu time    0.5800: real time    0.5814
    SETDIJ:  cpu time    2.1401: real time    2.1437
     EDDAV:  cpu time  266.3806: real time  266.5563
       DOS:  cpu time    0.0040: real time    0.0042
    CHARGE:  cpu time   12.0488: real time   12.0564
    MIXING:  cpu time    0.0200: real time    0.0169
    --------------------------------------------
      LOOP:  cpu time  281.1776: real time  281.4050

 eigenvalue-minimisations  : 37464
 total energy-change (2. order) :-0.4612893E+02  (-0.4947204E+01)
 number of electron     399.9999999 magnetization       6.4573713      6.4470764      6.4549898
 augmentation part        8.2688537 magnetization       6.9665323      6.9642162      6.9698082

 Broyden mixing:
  rms(total) = 0.66418E+00    rms(broyden)= 0.66417E+00
  rms(prec ) = 0.74298E+00
  weight for this iteration     100.00

 eigenvalues of (default mixing * dielectric matrix)
  average eigenvalue GAMMA=   1.1357
  1.7013  1.7013  0.8314  0.8314  0.6131

 Free energy of the ion-electron system (eV)
  ---------------------------------------------------
  alpha Z        PSCENC =       370.05370877
  Ewald energy   TEWEN  =    -15504.44764173
  -Hartree energ DENC   =     -8600.85634009
  -exchange      EXHF   =         0.00000000
  -V(xc)+E(xc)   XCENC  =       442.72591911
  PAW double counting   =     31183.32108812   -30448.35075844
  entropy T*S    EENTRO =         0.00000000
  eigenvalues    EBANDS =     -2575.52445328
  atomic energy  EATOM  =     24749.00668030
  Solvation  Ediel_sol  =         0.00000000
  ---------------------------------------------------
  free energy    TOTEN  =      -384.07179724 eV

  energy without entropy =     -384.07179724  energy(sigma->0) =     -384.07179724


--------------------------------------------------------------------------------------------------------




----------------------------------------- Iteration    1(  11)  ---------------------------------------


    POTLOK:  cpu time    0.5640: real time    0.5654
    SETDIJ:  cpu time    2.1521: real time    2.1535
     EDDAV:  cpu time  269.7769: real time  269.9549
       DOS:  cpu time    0.0040: real time    0.0034
    CHARGE:  cpu time   12.1088: real time   12.1147
    MIXING:  cpu time    0.0160: real time    0.0170
    --------------------------------------------
      LOOP:  cpu time  284.6218: real time  284.8320

 eigenvalue-minimisations  : 38104
 total energy-change (2. order) :-0.2533096E+02  (-0.3322490E+01)
 number of electron     399.9999999 magnetization       3.0862545      3.0798118      3.0840085
 augmentation part        8.1024144 magnetization       3.3148869      3.3106870      3.3131238

 Broyden mixing:
  rms(total) = 0.38383E+00    rms(broyden)= 0.38383E+00
  rms(prec ) = 0.43552E+00
  weight for this iteration     100.00

 eigenvalues of (default mixing * dielectric matrix)
  average eigenvalue GAMMA=   1.2064
  2.0491  2.0491  0.9520  0.9520  0.6608  0.5755

 Free energy of the ion-electron system (eV)
  ---------------------------------------------------
  alpha Z        PSCENC =       370.05370877
  Ewald energy   TEWEN  =    -15504.44764173
  -Hartree energ DENC   =     -8548.28542005
  -exchange      EXHF   =         0.00000000
  -V(xc)+E(xc)   XCENC  =       429.32690576
  PAW double counting   =     31089.95408825   -30351.64715513
  entropy T*S    EENTRO =         0.00000000
  eigenvalues    EBANDS =     -2643.36392182
  atomic energy  EATOM  =     24749.00668030
  Solvation  Ediel_sol  =         0.00000000
  ---------------------------------------------------
  free energy    TOTEN  =      -409.40275565 eV

  energy without entropy =     -409.40275565  energy(sigma->0) =     -409.40275565


--------------------------------------------------------------------------------------------------------




----------------------------------------- Iteration    1(  12)  ---------------------------------------


    POTLOK:  cpu time    0.5680: real time    0.5668
    SETDIJ:  cpu time    2.1481: real time    2.1499
     EDDAV:  cpu time  281.6096: real time  281.7949
       DOS:  cpu time    0.0040: real time    0.0040
    CHARGE:  cpu time   12.0928: real time   12.1036
    MIXING:  cpu time    0.0200: real time    0.0168
    --------------------------------------------
      LOOP:  cpu time  296.4425: real time  296.6572

 eigenvalue-minimisations  : 40224
 total energy-change (2. order) :-0.1186819E+02  (-0.1847452E+01)
 number of electron     399.9999999 magnetization       2.5437823      2.5385630      2.5421689
 augmentation part        7.9074686 magnetization       2.6049979      2.5992060      2.6022063

 Broyden mixing:
  rms(total) = 0.25589E+00    rms(broyden)= 0.25589E+00
  rms(prec ) = 0.29414E+00
  weight for this iteration     100.00

 eigenvalues of (default mixing * dielectric matrix)
  average eigenvalue GAMMA=   1.1552
  2.0802  2.0802  0.9864  0.9864  0.6772  0.6772  0.5989

 Free energy of the ion-electron system (eV)
  ---------------------------------------------------
  alpha Z        PSCENC =       370.05370877
  Ewald energy   TEWEN  =    -15504.44764173
  -Hartree energ DENC   =     -8499.99716165
  -exchange      EXHF   =         0.00000000
  -V(xc)+E(xc)   XCENC  =       422.69201989
  PAW double counting   =     30946.68428767   -30205.55894439
  entropy T*S    EENTRO =         0.00000000
  eigenvalues    EBANDS =     -2699.70389092
  atomic energy  EATOM  =     24749.00668030
  Solvation  Ediel_sol  =         0.00000000
  ---------------------------------------------------
  free energy    TOTEN  =      -421.27094206 eV

  energy without entropy =     -421.27094206  energy(sigma->0) =     -421.27094206


--------------------------------------------------------------------------------------------------------




----------------------------------------- Iteration    1(  13)  ---------------------------------------


    POTLOK:  cpu time    0.5680: real time    0.5673
    SETDIJ:  cpu time    2.1401: real time    2.1420
     EDDAV:  cpu time  282.0136: real time  282.2024
       DOS:  cpu time    0.0040: real time    0.0041
    CHARGE:  cpu time   12.1088: real time   12.1150
    MIXING:  cpu time    0.0160: real time    0.0172
    --------------------------------------------
      LOOP:  cpu time  296.8506: real time  297.0802

 eigenvalue-minimisations  : 40432
 total energy-change (2. order) :-0.1470025E+01  (-0.2281353E+00)
 number of electron     399.9999999 magnetization       1.7374804      1.7344561      1.7366406
 augmentation part        7.9081631 magnetization       1.7881763      1.7860718      1.7876341

 Broyden mixing:
  rms(total) = 0.20920E+00    rms(broyden)= 0.20920E+00
  rms(prec ) = 0.24500E+00
  weight for this iteration     100.00

 eigenvalues of (default mixing * dielectric matrix)
  average eigenvalue GAMMA=   1.1756
  2.2001  2.2001  1.0288  1.0288  0.8774  0.8774  0.6214  0.5711

 Free energy of the ion-electron system (eV)
  ---------------------------------------------------
  alpha Z        PSCENC =       370.05370877
  Ewald energy   TEWEN  =    -15504.44764173
  -Hartree energ DENC   =     -8489.24953621
[...]
     0.0000000     0.0000000     0.0000000     0.0000000     0.0000000     0.0000000     0.0000000
     0.0000000     0.0000000     0.0000000     0.0000000     0.0000000     0.0000000     0.0000000
     0.0000000     0.0000000     0.0000000     0.0000000     0.0000000     0.0000000     0.0000000
     0.0000000     0.0000000     0.0000000     0.0000000     0.0000000     0.0000000     0.0000000

 Ion:   82  E_soc:     -0.2797133
 l=   1
     0.0000000    -0.0483779    -0.0485192
    -0.0483779     0.0000000    -0.0429826
    -0.0485192    -0.0429826     0.0000000
 l=   2
     0.0000000    -0.0000104     0.0000000    -0.0000032     0.0000245
    -0.0000104     0.0000000     0.0000054    -0.0000025     0.0000136
     0.0000000     0.0000054     0.0000000    -0.0000033     0.0000000
    -0.0000032    -0.0000025    -0.0000033     0.0000000    -0.0000011
     0.0000245     0.0000136     0.0000000    -0.0000011     0.0000000
 l=   3
     0.0000000     0.0000000     0.0000000     0.0000000     0.0000000     0.0000000     0.0000000
     0.0000000     0.0000000     0.0000000     0.0000000     0.0000000     0.0000000     0.0000000
     0.0000000     0.0000000     0.0000000     0.0000000     0.0000000     0.0000000     0.0000000
     0.0000000     0.0000000     0.0000000     0.0000000     0.0000000     0.0000000     0.0000000
     0.0000000     0.0000000     0.0000000     0.0000000     0.0000000     0.0000000     0.0000000
     0.0000000     0.0000000     0.0000000     0.0000000     0.0000000     0.0000000     0.0000000
     0.0000000     0.0000000     0.0000000     0.0000000     0.0000000     0.0000000     0.0000000

 Ion:   83  E_soc:     -0.2797133
 l=   1
     0.0000000    -0.0483779    -0.0485192
    -0.0483779     0.0000000    -0.0429826
    -0.0485192    -0.0429826     0.0000000
 l=   2
     0.0000000    -0.0000104     0.0000000    -0.0000032     0.0000245
    -0.0000104     0.0000000     0.0000054    -0.0000025     0.0000136
     0.0000000     0.0000054     0.0000000    -0.0000033     0.0000000
    -0.0000032    -0.0000025    -0.0000033     0.0000000    -0.0000011
     0.0000245     0.0000136     0.0000000    -0.0000011     0.0000000
 l=   3
     0.0000000     0.0000000     0.0000000     0.0000000     0.0000000     0.0000000     0.0000000
     0.0000000     0.0000000     0.0000000     0.0000000     0.0000000     0.0000000     0.0000000
     0.0000000     0.0000000     0.0000000     0.0000000     0.0000000     0.0000000     0.0000000
     0.0000000     0.0000000     0.0000000     0.0000000     0.0000000     0.0000000     0.0000000
     0.0000000     0.0000000     0.0000000     0.0000000     0.0000000     0.0000000     0.0000000
     0.0000000     0.0000000     0.0000000     0.0000000     0.0000000     0.0000000     0.0000000
     0.0000000     0.0000000     0.0000000     0.0000000     0.0000000     0.0000000     0.0000000

 Ion:   84  E_soc:     -0.2797133
 l=   1
     0.0000000    -0.0483779    -0.0485192
    -0.0483779     0.0000000    -0.0429826
    -0.0485192    -0.0429826     0.0000000
 l=   2
     0.0000000    -0.0000104     0.0000000    -0.0000032     0.0000245
    -0.0000104     0.0000000     0.0000054    -0.0000025     0.0000136
     0.0000000     0.0000054     0.0000000    -0.0000033     0.0000000
    -0.0000032    -0.0000025    -0.0000033     0.0000000    -0.0000011
     0.0000245     0.0000136     0.0000000    -0.0000011     0.0000000
 l=   3
     0.0000000     0.0000000     0.0000000     0.0000000     0.0000000     0.0000000     0.0000000
     0.0000000     0.0000000     0.0000000     0.0000000     0.0000000     0.0000000     0.0000000
     0.0000000     0.0000000     0.0000000     0.0000000     0.0000000     0.0000000     0.0000000
     0.0000000     0.0000000     0.0000000     0.0000000     0.0000000     0.0000000     0.0000000
     0.0000000     0.0000000     0.0000000     0.0000000     0.0000000     0.0000000     0.0000000
     0.0000000     0.0000000     0.0000000     0.0000000     0.0000000     0.0000000     0.0000000
     0.0000000     0.0000000     0.0000000     0.0000000     0.0000000     0.0000000     0.0000000

 Ion:   85  E_soc:     -0.2797133
 l=   1
     0.0000000    -0.0483779    -0.0485192
    -0.0483779     0.0000000    -0.0429826
    -0.0485192    -0.0429826     0.0000000
 l=   2
     0.0000000    -0.0000104     0.0000000    -0.0000032     0.0000245
    -0.0000104     0.0000000     0.0000054    -0.0000025     0.0000136
     0.0000000     0.0000054     0.0000000    -0.0000033     0.0000000
    -0.0000032    -0.0000025    -0.0000033     0.0000000    -0.0000011
     0.0000245     0.0000136     0.0000000    -0.0000011     0.0000000
 l=   3
     0.0000000     0.0000000     0.0000000     0.0000000     0.0000000     0.0000000     0.0000000
     0.0000000     0.0000000     0.0000000     0.0000000     0.0000000     0.0000000     0.0000000
     0.0000000     0.0000000     0.0000000     0.0000000     0.0000000     0.0000000     0.0000000
     0.0000000     0.0000000     0.0000000     0.0000000     0.0000000     0.0000000     0.0000000
     0.0000000     0.0000000     0.0000000     0.0000000     0.0000000     0.0000000     0.0000000
     0.0000000     0.0000000     0.0000000     0.0000000     0.0000000     0.0000000     0.0000000
     0.0000000     0.0000000     0.0000000     0.0000000     0.0000000     0.0000000     0.0000000

 Ion:   86  E_soc:     -0.2797133
 l=   1
     0.0000000    -0.0483779    -0.0485192
    -0.0483779     0.0000000    -0.0429826
    -0.0485192    -0.0429826     0.0000000
 l=   2
     0.0000000    -0.0000104     0.0000000    -0.0000032     0.0000245
    -0.0000104     0.0000000     0.0000054    -0.0000025     0.0000136
     0.0000000     0.0000054     0.0000000    -0.0000033     0.0000000
    -0.0000032    -0.0000025    -0.0000033     0.0000000    -0.0000011
     0.0000245     0.0000136     0.0000000    -0.0000011     0.0000000
 l=   3
     0.0000000     0.0000000     0.0000000     0.0000000     0.0000000     0.0000000     0.0000000
     0.0000000     0.0000000     0.0000000     0.0000000     0.0000000     0.0000000     0.0000000
     0.0000000     0.0000000     0.0000000     0.0000000     0.0000000     0.0000000     0.0000000
     0.0000000     0.0000000     0.0000000     0.0000000     0.0000000     0.0000000     0.0000000
     0.0000000     0.0000000     0.0000000     0.0000000     0.0000000     0.0000000     0.0000000
     0.0000000     0.0000000     0.0000000     0.0000000     0.0000000     0.0000000     0.0000000
     0.0000000     0.0000000     0.0000000     0.0000000     0.0000000     0.0000000     0.0000000

 Ion:   87  E_soc:     -0.2797133
 l=   1
     0.0000000    -0.0483779    -0.0485192
    -0.0483779     0.0000000    -0.0429826
    -0.0485192    -0.0429826     0.0000000
 l=   2
     0.0000000    -0.0000104     0.0000000    -0.0000032     0.0000245
    -0.0000104     0.0000000     0.0000054    -0.0000025     0.0000136
     0.0000000     0.0000054     0.0000000    -0.0000033     0.0000000
    -0.0000032    -0.0000025    -0.0000033     0.0000000    -0.0000011
     0.0000245     0.0000136     0.0000000    -0.0000011     0.0000000
 l=   3
     0.0000000     0.0000000     0.0000000     0.0000000     0.0000000     0.0000000     0.0000000
     0.0000000     0.0000000     0.0000000     0.0000000     0.0000000     0.0000000     0.0000000
     0.0000000     0.0000000     0.0000000     0.0000000     0.0000000     0.0000000     0.0000000
     0.0000000     0.0000000     0.0000000     0.0000000     0.0000000     0.0000000     0.0000000
     0.0000000     0.0000000     0.0000000     0.0000000     0.0000000     0.0000000     0.0000000
     0.0000000     0.0000000     0.0000000     0.0000000     0.0000000     0.0000000     0.0000000
     0.0000000     0.0000000     0.0000000     0.0000000     0.0000000     0.0000000     0.0000000

 Ion:   88  E_soc:     -0.2797133
 l=   1
     0.0000000    -0.0483779    -0.0485192
    -0.0483779     0.0000000    -0.0429826
    -0.0485192    -0.0429826     0.0000000
 l=   2
     0.0000000    -0.0000104     0.0000000    -0.0000032     0.0000245
    -0.0000104     0.0000000     0.0000054    -0.0000025     0.0000136
     0.0000000     0.0000054     0.0000000    -0.0000033     0.0000000
    -0.0000032    -0.0000025    -0.0000033     0.0000000    -0.0000011
     0.0000245     0.0000136     0.0000000    -0.0000011     0.0000000
 l=   3
     0.0000000     0.0000000     0.0000000     0.0000000     0.0000000     0.0000000     0.0000000
     0.0000000     0.0000000     0.0000000     0.0000000     0.0000000     0.0000000     0.0000000
     0.0000000     0.0000000     0.0000000     0.0000000     0.0000000     0.0000000     0.0000000
     0.0000000     0.0000000     0.0000000     0.0000000     0.0000000     0.0000000     0.0000000
     0.0000000     0.0000000     0.0000000     0.0000000     0.0000000     0.0000000     0.0000000
     0.0000000     0.0000000     0.0000000     0.0000000     0.0000000     0.0000000     0.0000000
     0.0000000     0.0000000     0.0000000     0.0000000     0.0000000     0.0000000     0.0000000

 Ion:   89  E_soc:     -0.2859869
 l=   1
     0.0000000    -0.0429539    -0.0495476
    -0.0429539     0.0000000    -0.0505151
    -0.0495476    -0.0505151     0.0000000
 l=   2
     0.0000000    -0.0000023     0.0000000    -0.0000086     0.0000209
    -0.0000023     0.0000000    -0.0000024    -0.0000025    -0.0000014
     0.0000000    -0.0000024     0.0000000     0.0000056     0.0000000
    -0.0000086    -0.0000025     0.0000056     0.0000000     0.0000139
     0.0000209    -0.0000014     0.0000000     0.0000139     0.0000000
 l=   3
     0.0000000     0.0000000     0.0000000     0.0000000     0.0000000     0.0000000     0.0000000
     0.0000000     0.0000000     0.0000000     0.0000000     0.0000000     0.0000000     0.0000000
     0.0000000     0.0000000     0.0000000     0.0000000     0.0000000     0.0000000     0.0000000
     0.0000000     0.0000000     0.0000000     0.0000000     0.0000000     0.0000000     0.0000000
     0.0000000     0.0000000     0.0000000     0.0000000     0.0000000     0.0000000     0.0000000
     0.0000000     0.0000000     0.0000000     0.0000000     0.0000000     0.0000000     0.0000000
     0.0000000     0.0000000     0.0000000     0.0000000     0.0000000     0.0000000     0.0000000

 Ion:   90  E_soc:     -0.2859869
 l=   1
     0.0000000    -0.0429539    -0.0495476
    -0.0429539     0.0000000    -0.0505151
    -0.0495476    -0.0505151     0.0000000
 l=   2
     0.0000000    -0.0000023     0.0000000    -0.0000086     0.0000209
    -0.0000023     0.0000000    -0.0000024    -0.0000025    -0.0000014
     0.0000000    -0.0000024     0.0000000     0.0000056     0.0000000
    -0.0000086    -0.0000025     0.0000056     0.0000000     0.0000139
     0.0000209    -0.0000014     0.0000000     0.0000139     0.0000000
 l=   3
     0.0000000     0.0000000     0.0000000     0.0000000     0.0000000     0.0000000     0.0000000
     0.0000000     0.0000000     0.0000000     0.0000000     0.0000000     0.0000000     0.0000000
     0.0000000     0.0000000     0.0000000     0.0000000     0.0000000     0.0000000     0.0000000
     0.0000000     0.0000000     0.0000000     0.0000000     0.0000000     0.0000000     0.0000000
     0.0000000     0.0000000     0.0000000     0.0000000     0.0000000     0.0000000     0.0000000
     0.0000000     0.0000000     0.0000000     0.0000000     0.0000000     0.0000000     0.0000000
     0.0000000     0.0000000     0.0000000     0.0000000     0.0000000     0.0000000     0.0000000

 Ion:   91  E_soc:     -0.2859869
 l=   1
     0.0000000    -0.0429539    -0.0495476
    -0.0429539     0.0000000    -0.0505151
    -0.0495476    -0.0505151     0.0000000
 l=   2
     0.0000000    -0.0000023     0.0000000    -0.0000086     0.0000209
    -0.0000023     0.0000000    -0.0000024    -0.0000025    -0.0000014
     0.0000000    -0.0000024     0.0000000     0.0000056     0.0000000
    -0.0000086    -0.0000025     0.0000056     0.0000000     0.0000139
     0.0000209    -0.0000014     0.0000000     0.0000139     0.0000000
 l=   3
     0.0000000     0.0000000     0.0000000     0.0000000     0.0000000     0.0000000     0.0000000
     0.0000000     0.0000000     0.0000000     0.0000000     0.0000000     0.0000000     0.0000000
     0.0000000     0.0000000     0.0000000     0.0000000     0.0000000     0.0000000     0.0000000
     0.0000000     0.0000000     0.0000000     0.0000000     0.0000000     0.0000000     0.0000000
     0.0000000     0.0000000     0.0000000     0.0000000     0.0000000     0.0000000     0.0000000
     0.0000000     0.0000000     0.0000000     0.0000000     0.0000000     0.0000000     0.0000000
     0.0000000     0.0000000     0.0000000     0.0000000     0.0000000     0.0000000     0.0000000

 Ion:   92  E_soc:     -0.2859869
 l=   1
     0.0000000    -0.0429539    -0.0495476
    -0.0429539     0.0000000    -0.0505151
    -0.0495476    -0.0505151     0.0000000
 l=   2
     0.0000000    -0.0000023     0.0000000    -0.0000086     0.0000209
    -0.0000023     0.0000000    -0.0000024    -0.0000025    -0.0000014
     0.0000000    -0.0000024     0.0000000     0.0000056     0.0000000
    -0.0000086    -0.0000025     0.0000056     0.0000000     0.0000139
     0.0000209    -0.0000014     0.0000000     0.0000139     0.0000000
 l=   3
     0.0000000     0.0000000     0.0000000     0.0000000     0.0000000     0.0000000     0.0000000
     0.0000000     0.0000000     0.0000000     0.0000000     0.0000000     0.0000000     0.0000000
     0.0000000     0.0000000     0.0000000     0.0000000     0.0000000     0.0000000     0.0000000
     0.0000000     0.0000000     0.0000000     0.0000000     0.0000000     0.0000000     0.0000000
     0.0000000     0.0000000     0.0000000     0.0000000     0.0000000     0.0000000     0.0000000
     0.0000000     0.0000000     0.0000000     0.0000000     0.0000000     0.0000000     0.0000000
     0.0000000     0.0000000     0.0000000     0.0000000     0.0000000     0.0000000     0.0000000

 Ion:   93  E_soc:     -0.2859869
 l=   1
     0.0000000    -0.0429539    -0.0495476
    -0.0429539     0.0000000    -0.0505151
    -0.0495476    -0.0505151     0.0000000
 l=   2
     0.0000000    -0.0000023     0.0000000    -0.0000086     0.0000209
    -0.0000023     0.0000000    -0.0000024    -0.0000025    -0.0000014
     0.0000000    -0.0000024     0.0000000     0.0000056     0.0000000
    -0.0000086    -0.0000025     0.0000056     0.0000000     0.0000139
     0.0000209    -0.0000014     0.0000000     0.0000139     0.0000000
 l=   3
     0.0000000     0.0000000     0.0000000     0.0000000     0.0000000     0.0000000     0.0000000
     0.0000000     0.0000000     0.0000000     0.0000000     0.0000000     0.0000000     0.0000000
     0.0000000     0.0000000     0.0000000     0.0000000     0.0000000     0.0000000     0.0000000
     0.0000000     0.0000000     0.0000000     0.0000000     0.0000000     0.0000000     0.0000000
     0.0000000     0.0000000     0.0000000     0.0000000     0.0000000     0.0000000     0.0000000
     0.0000000     0.0000000     0.0000000     0.0000000     0.0000000     0.0000000     0.0000000
     0.0000000     0.0000000     0.0000000     0.0000000     0.0000000     0.0000000     0.0000000

 Ion:   94  E_soc:     -0.2859869
 l=   1
     0.0000000    -0.0429539    -0.0495476
    -0.0429539     0.0000000    -0.0505151
    -0.0495476    -0.0505151     0.0000000
 l=   2
     0.0000000    -0.0000023     0.0000000    -0.0000086     0.0000209
    -0.0000023     0.0000000    -0.0000024    -0.0000025    -0.0000014
     0.0000000    -0.0000024     0.0000000     0.0000056     0.0000000
    -0.0000086    -0.0000025     0.0000056     0.0000000     0.0000139
     0.0000209    -0.0000014     0.0000000     0.0000139     0.0000000
 l=   3
     0.0000000     0.0000000     0.0000000     0.0000000     0.0000000     0.0000000     0.0000000
     0.0000000     0.0000000     0.0000000     0.0000000     0.0000000     0.0000000     0.0000000
     0.0000000     0.0000000     0.0000000     0.0000000     0.0000000     0.0000000     0.0000000
     0.0000000     0.0000000     0.0000000     0.0000000     0.0000000     0.0000000     0.0000000
     0.0000000     0.0000000     0.0000000     0.0000000     0.0000000     0.0000000     0.0000000
     0.0000000     0.0000000     0.0000000     0.0000000     0.0000000     0.0000000     0.0000000
     0.0000000     0.0000000     0.0000000     0.0000000     0.0000000     0.0000000     0.0000000

 Ion:   95  E_soc:     -0.2859869
 l=   1
     0.0000000    -0.0429539    -0.0495476
    -0.0429539     0.0000000    -0.0505151
    -0.0495476    -0.0505151     0.0000000
 l=   2
     0.0000000    -0.0000023     0.0000000    -0.0000086     0.0000209
    -0.0000023     0.0000000    -0.0000024    -0.0000025    -0.0000014
     0.0000000    -0.0000024     0.0000000     0.0000056     0.0000000
    -0.0000086    -0.0000025     0.0000056     0.0000000     0.0000139
     0.0000209    -0.0000014     0.0000000     0.0000139     0.0000000
 l=   3
     0.0000000     0.0000000     0.0000000     0.0000000     0.0000000     0.0000000     0.0000000
     0.0000000     0.0000000     0.0000000     0.0000000     0.0000000     0.0000000     0.0000000
     0.0000000     0.0000000     0.0000000     0.0000000     0.0000000     0.0000000     0.0000000
     0.0000000     0.0000000     0.0000000     0.0000000     0.0000000     0.0000000     0.0000000
     0.0000000     0.0000000     0.0000000     0.0000000     0.0000000     0.0000000     0.0000000
     0.0000000     0.0000000     0.0000000     0.0000000     0.0000000     0.0000000     0.0000000
     0.0000000     0.0000000     0.0000000     0.0000000     0.0000000     0.0000000     0.0000000

 Ion:   96  E_soc:     -0.2859869
 l=   1
     0.0000000    -0.0429539    -0.0495476
    -0.0429539     0.0000000    -0.0505151
    -0.0495476    -0.0505151     0.0000000
 l=   2
     0.0000000    -0.0000023     0.0000000    -0.0000086     0.0000209
    -0.0000023     0.0000000    -0.0000024    -0.0000025    -0.0000014
     0.0000000    -0.0000024     0.0000000     0.0000056     0.0000000
    -0.0000086    -0.0000025     0.0000056     0.0000000     0.0000139
     0.0000209    -0.0000014     0.0000000     0.0000139     0.0000000
 l=   3
     0.0000000     0.0000000     0.0000000     0.0000000     0.0000000     0.0000000     0.0000000
     0.0000000     0.0000000     0.0000000     0.0000000     0.0000000     0.0000000     0.0000000
     0.0000000     0.0000000     0.0000000     0.0000000     0.0000000     0.0000000     0.0000000
     0.0000000     0.0000000     0.0000000     0.0000000     0.0000000     0.0000000     0.0000000
     0.0000000     0.0000000     0.0000000     0.0000000     0.0000000     0.0000000     0.0000000
     0.0000000     0.0000000     0.0000000     0.0000000     0.0000000     0.0000000     0.0000000
     0.0000000     0.0000000     0.0000000     0.0000000     0.0000000     0.0000000     0.0000000

 total amount of memory used by VASP on root node   392927. kBytes
========================================================================

   base      :      30000. kBytes
   nonl-proj :      73667. kBytes
   fftplans  :      22714. kBytes
   grid      :      35610. kBytes
   one-center:        248. kBytes
   wavefun   :     230688. kBytes
 
  
  
 General timing and accounting informations for this job:
 ========================================================
  
                  Total CPU time used (sec):     8784.365
                            User time (sec):     8770.356
                          System time (sec):       14.009
                         Elapsed time (sec):     8816.145
  
                   Maximum memory used (kb):      412420.
                   Average memory used (kb):           0.
  
                          Minor page faults:       593267
                          Major page faults:            0
                 Voluntary context switches:        17416
