  96  96   0   0
  0.2080188E+02  0.1257760E-08  0.1245754E-08  0.1274818E-08  0.5000000E-15
  1.000000000000000E-004
  CAR 
 MAPbI3-Cubic                            
      8.94071756    -19.55341589  301      1.38977220      1.00000000
    -19.553  0.0000E+00  0.0000E+00
    -19.458  0.0000E+00  0.0000E+00
    -19.363  0.0000E+00  0.0000E+00
    -19.268  0.0000E+00  0.0000E+00
    -19.173  0.0000E+00  0.0000E+00
    -19.079  0.0000E+00  0.0000E+00
    -18.984  0.0000E+00  0.0000E+00
    -18.889  0.0000E+00  0.0000E+00
    -18.794  0.0000E+00  0.0000E+00
    -18.699  0.0000E+00  0.0000E+00
    -18.604  0.0000E+00  0.0000E+00
    -18.509  0.0000E+00  0.0000E+00
    -18.414  0.0000E+00  0.0000E+00
    -18.319  0.0000E+00  0.0000E+00
    -18.224  0.0000E+00  0.1600E+02
    -18.129  0.0000E+00  0.1600E+02
    -18.034  0.0000E+00  0.1600E+02
    -17.939  0.0000E+00  0.1600E+02
    -17.844  0.0000E+00  0.1600E+02
    -17.749  0.0000E+00  0.1600E+02
    -17.654  0.0000E+00  0.1600E+02
    -17.559  0.0000E+00  0.1600E+02
    -17.464  0.0000E+00  0.1600E+02
    -17.369  0.0000E+00  0.1600E+02
    -17.274  0.0000E+00  0.1600E+02
    -17.179  0.0000E+00  0.1600E+02
    -17.084  0.0000E+00  0.1600E+02
    -16.989  0.0000E+00  0.1600E+02
    -16.894  0.0000E+00  0.1600E+02
    -16.799  0.0000E+00  0.1600E+02
    -16.704  0.0000E+00  0.1600E+02
    -16.609  0.0000E+00  0.1600E+02
    -16.514  0.0000E+00  0.1600E+02
    -16.419  0.0000E+00  0.1600E+02
    -16.324  0.0000E+00  0.1600E+02
    -16.229  0.0000E+00  0.1600E+02
    -16.134  0.0000E+00  0.1600E+02
    -16.039  0.0000E+00  0.1600E+02
    -15.944  0.0000E+00  0.1600E+02
    -15.849  0.0000E+00  0.1600E+02
    -15.754  0.0000E+00  0.1600E+02
    -15.659  0.0000E+00  0.1600E+02
    -15.564  0.0000E+00  0.1600E+02
    -15.469  0.0000E+00  0.1600E+02
    -15.374  0.0000E+00  0.1600E+02
    -15.279  0.0000E+00  0.1600E+02
    -15.184  0.0000E+00  0.1600E+02
    -15.089  0.8384E+02  0.2796E+02
    -14.994  0.0000E+00  0.9600E+02
    -14.899  0.0000E+00  0.9600E+02
    -14.804  0.0000E+00  0.9600E+02
    -14.709  0.0000E+00  0.9600E+02
    -14.614  0.0000E+00  0.9600E+02
    -14.519  0.0000E+00  0.9600E+02
    -14.424  0.0000E+00  0.9600E+02
    -14.329  0.0000E+00  0.9600E+02
    -14.235  0.0000E+00  0.9600E+02
    -14.140  0.0000E+00  0.9600E+02
    -14.045  0.0000E+00  0.9600E+02
    -13.950  0.0000E+00  0.9600E+02
    -13.855  0.0000E+00  0.9600E+02
    -13.760  0.0000E+00  0.9600E+02
    -13.665  0.0000E+00  0.9600E+02
    -13.570  0.0000E+00  0.9600E+02
    -13.475  0.0000E+00  0.9600E+02
    -13.380  0.0000E+00  0.9600E+02
    -13.285  0.0000E+00  0.9600E+02
    -13.190  0.0000E+00  0.9600E+02
    -13.095  0.0000E+00  0.9600E+02
    -13.000  0.0000E+00  0.9600E+02
    -12.905  0.0000E+00  0.9600E+02
    -12.810  0.0000E+00  0.9600E+02
    -12.715  0.0000E+00  0.9600E+02
    -12.620  0.0000E+00  0.9600E+02
    -12.525  0.0000E+00  0.9600E+02
    -12.430  0.0000E+00  0.9600E+02
    -12.335  0.0000E+00  0.9600E+02
    -12.240  0.0000E+00  0.9600E+02
    -12.145  0.0000E+00  0.9600E+02
    -12.050  0.0000E+00  0.9600E+02
    -11.955  0.0000E+00  0.9600E+02
    -11.860  0.0000E+00  0.9600E+02
    -11.765  0.0000E+00  0.9600E+02
    -11.670  0.0000E+00  0.9600E+02
    -11.575  0.0000E+00  0.9600E+02
    -11.480  0.0000E+00  0.9600E+02
    -11.385  0.0000E+00  0.9600E+02
    -11.290  0.1772E+02  0.1057E+03
    -11.195  0.0000E+00  0.1120E+03
    -11.100  0.0000E+00  0.1120E+03
    -11.005  0.0000E+00  0.1120E+03
    -10.910  0.0000E+00  0.1120E+03
    -10.815  0.0000E+00  0.1121E+03
    -10.720  0.4679E+01  0.1141E+03
    -10.625  0.4663E+01  0.1184E+03
    -10.530  0.4714E+01  0.1240E+03
    -10.435  0.1261E+01  0.1283E+03
    -10.340  0.6850E+00  0.1299E+03
    -10.245  0.1240E+02  0.1398E+03
    -10.150  0.0000E+00  0.1436E+03
    -10.055  0.9299E+01  0.1485E+03
     -9.960  0.9052E+01  0.1566E+03
     -9.865  0.0000E+00  0.1600E+03
     -9.770  0.0000E+00  0.1600E+03
     -9.675  0.0000E+00  0.1600E+03
     -9.580  0.0000E+00  0.1600E+03
     -9.485  0.0000E+00  0.1600E+03
     -9.391  0.0000E+00  0.1600E+03
     -9.296  0.0000E+00  0.1600E+03
     -9.201  0.0000E+00  0.1600E+03
     -9.106  0.0000E+00  0.1600E+03
     -9.011  0.0000E+00  0.1600E+03
     -8.916  0.0000E+00  0.1600E+03
     -8.821  0.0000E+00  0.1600E+03
     -8.726  0.0000E+00  0.1600E+03
     -8.631  0.0000E+00  0.1600E+03
     -8.536  0.0000E+00  0.1600E+03
     -8.441  0.0000E+00  0.1600E+03
     -8.346  0.0000E+00  0.1600E+03
     -8.251  0.0000E+00  0.1600E+03
     -8.156  0.0000E+00  0.1600E+03
     -8.061  0.0000E+00  0.1600E+03
     -7.966  0.0000E+00  0.1600E+03
     -7.871  0.0000E+00  0.1600E+03
     -7.776  0.0000E+00  0.1600E+03
     -7.681  0.1094E+02  0.1733E+03
     -7.586  0.0000E+00  0.1920E+03
     -7.491  0.0000E+00  0.1920E+03
     -7.396  0.0000E+00  0.1920E+03
     -7.301  0.0000E+00  0.1920E+03
     -7.206  0.0000E+00  0.1920E+03
     -7.111  0.0000E+00  0.1920E+03
     -7.016  0.0000E+00  0.1921E+03
     -6.921  0.1556E+01  0.1924E+03
     -6.826  0.0000E+00  0.1925E+03
     -6.731  0.0000E+00  0.1934E+03
     -6.636  0.0000E+00  0.1943E+03
     -6.541  0.3146E+01  0.1950E+03
     -6.446  0.7796E+00  0.1964E+03
     -6.351  0.0000E+00  0.1988E+03
     -6.256  0.3119E+01  0.2003E+03
     -6.161  0.3120E+01  0.2018E+03
     -6.066  0.1560E+01  0.2036E+03
     -5.971  0.1560E+01  0.2054E+03
     -5.876  0.0000E+00  0.2064E+03
     -5.781  0.3195E+01  0.2147E+03
     -5.686  0.1966E-11  0.2226E+03
     -5.591  0.0000E+00  0.2235E+03
     -5.496  0.0000E+00  0.2239E+03
     -5.401  0.7799E+00  0.2240E+03
     -5.306  0.0000E+00  0.2240E+03
     -5.211  0.0000E+00  0.2240E+03
     -5.116  0.0000E+00  0.2240E+03
     -5.021  0.0000E+00  0.2240E+03
     -4.926  0.0000E+00  0.2240E+03
     -4.831  0.0000E+00  0.2240E+03
     -4.736  0.0000E+00  0.2240E+03
     -4.641  0.0000E+00  0.2240E+03
     -4.547  0.0000E+00  0.2240E+03
     -4.452  0.0000E+00  0.2240E+03
     -4.357  0.0000E+00  0.2240E+03
     -4.262  0.0000E+00  0.2240E+03
     -4.167  0.0000E+00  0.2240E+03
     -4.072  0.0000E+00  0.2240E+03
     -3.977  0.0000E+00  0.2240E+03
     -3.882  0.0000E+00  0.2240E+03
     -3.787  0.0000E+00  0.2240E+03
     -3.692  0.0000E+00  0.2240E+03
     -3.597  0.9370E+01  0.2253E+03
     -3.502  0.2353E+02  0.2515E+03
     -3.407  0.0000E+00  0.2560E+03
     -3.312  0.0000E+00  0.2560E+03
     -3.217  0.0000E+00  0.2560E+03
     -3.122  0.0000E+00  0.2560E+03
     -3.027  0.0000E+00  0.2560E+03
     -2.932  0.0000E+00  0.2560E+03
     -2.837  0.0000E+00  0.2560E+03
     -2.742  0.0000E+00  0.2560E+03
     -2.647  0.0000E+00  0.2560E+03
     -2.552  0.0000E+00  0.2560E+03
     -2.457  0.0000E+00  0.2560E+03
     -2.362  0.0000E+00  0.2560E+03
     -2.267  0.0000E+00  0.2560E+03
     -2.172  0.0000E+00  0.2560E+03
     -2.077  0.2952E-09  0.2567E+03
     -1.982  0.6239E+01  0.2596E+03
     -1.887  0.3120E+01  0.2619E+03
     -1.792  0.1369E+01  0.2641E+03
     -1.697  0.7799E+00  0.2668E+03
     -1.602  0.6155E+01  0.2704E+03
     -1.507  0.1242E-01  0.2732E+03
     -1.412  0.4659E+01  0.2770E+03
     -1.317  0.3120E+01  0.2796E+03
     -1.222  0.0000E+00  0.2800E+03
     -1.127  0.0000E+00  0.2800E+03
     -1.032  0.0000E+00  0.2801E+03
     -0.937  0.3121E+01  0.2819E+03
     -0.842  0.7547E+01  0.2875E+03
     -0.747  0.3120E+01  0.2940E+03
     -0.652  0.1339E+01  0.2998E+03
     -0.557  0.6474E-04  0.3033E+03
     -0.462  0.0000E+00  0.3070E+03
     -0.367  0.5851E+01  0.3116E+03
     -0.272  0.6239E+01  0.3162E+03
     -0.177  0.9598E+01  0.3233E+03
     -0.082  0.1343E+02  0.3308E+03
      0.013  0.4008E+01  0.3356E+03
      0.108  0.1635E+02  0.3438E+03
      0.203  0.8984E+01  0.3511E+03
      0.297  0.3899E+01  0.3596E+03
      0.392  0.4682E+01  0.3667E+03
      0.487  0.7037E+01  0.3761E+03
      0.582  0.1347E+02  0.3848E+03
      0.677  0.5040E+01  0.3897E+03
      0.772  0.4893E+01  0.3942E+03
      0.867  0.1543E+01  0.3964E+03
      0.962  0.0000E+00  0.3985E+03
      1.057  0.0000E+00  0.3993E+03
      1.152  0.0000E+00  0.3996E+03
      1.247  0.4047E-01  0.3998E+03
      1.342  0.0000E+00  0.3999E+03
      1.437  0.0000E+00  0.4000E+03
      1.532  0.0000E+00  0.4000E+03
      1.627  0.0000E+00  0.4000E+03
      1.722  0.0000E+00  0.4000E+03
      1.817  0.0000E+00  0.4000E+03
      1.912  0.0000E+00  0.4000E+03
      2.007  0.0000E+00  0.4000E+03
      2.102  0.0000E+00  0.4000E+03
      2.197  0.0000E+00  0.4000E+03
      2.292  0.0000E+00  0.4000E+03
      2.387  0.0000E+00  0.4000E+03
      2.482  0.0000E+00  0.4000E+03
      2.577  0.0000E+00  0.4000E+03
      2.672  0.0000E+00  0.4000E+03
      2.767  0.0000E+00  0.4000E+03
      2.862  0.0000E+00  0.4000E+03
      2.957  0.7799E+00  0.4001E+03
      3.052  0.0000E+00  0.4007E+03
      3.147  0.3114E+01  0.4010E+03
      3.242  0.1560E+01  0.4026E+03
      3.337  0.7798E+00  0.4033E+03
      3.432  0.1338E+01  0.4043E+03
      3.527  0.9471E+00  0.4061E+03
      3.622  0.1560E+01  0.4068E+03
      3.717  0.7641E-04  0.4080E+03
      3.812  0.0000E+00  0.4087E+03
      3.907  0.0000E+00  0.4093E+03
      4.002  0.1602E-10  0.4107E+03
      4.097  0.3120E+01  0.4124E+03
      4.192  0.1560E+01  0.4145E+03
      4.287  0.4679E+01  0.4166E+03
      4.382  0.3120E+01  0.4187E+03
      4.477  0.6038E-03  0.4210E+03
      4.572  0.1558E+01  0.4233E+03
      4.667  0.0000E+00  0.4239E+03
      4.762  0.0000E+00  0.4240E+03
      4.857  0.0000E+00  0.4240E+03
      4.952  0.0000E+00  0.4240E+03
      5.047  0.0000E+00  0.4241E+03
      5.141  0.2182E-07  0.4242E+03
      5.236  0.7648E-04  0.4248E+03
      5.331  0.1150E-03  0.4274E+03
      5.426  0.2605E+01  0.4294E+03
      5.521  0.1312E-06  0.4336E+03
      5.616  0.5681E+01  0.4376E+03
      5.711  0.3120E+01  0.4394E+03
      5.806  0.1688E-11  0.4419E+03
      5.901  0.4575E+01  0.4440E+03
      5.996  0.3140E+01  0.4470E+03
      6.091  0.2614E+01  0.4508E+03
      6.186  0.3121E+01  0.4544E+03
      6.281  0.1195E-13  0.4587E+03
      6.376  0.5934E+01  0.4628E+03
      6.471  0.9732E+01  0.4670E+03
      6.566  0.5459E+01  0.4726E+03
      6.661  0.8658E-16  0.4764E+03
      6.756  0.1585E+01  0.4796E+03
      6.851  0.7418E+00  0.4836E+03
      6.946  0.0000E+00  0.4876E+03
      7.041  0.3118E+01  0.4906E+03
      7.136  0.3072E+01  0.4953E+03
      7.231  0.2678E+01  0.4998E+03
      7.326  0.7273E+01  0.5039E+03
      7.421  0.1118E+02  0.5080E+03
      7.516  0.0000E+00  0.5107E+03
      7.611  0.0000E+00  0.5119E+03
      7.706  0.0000E+00  0.5120E+03
      7.801  0.0000E+00  0.5120E+03
      7.896  0.0000E+00  0.5120E+03
      7.991  0.0000E+00  0.5120E+03
      8.086  0.0000E+00  0.5120E+03
      8.181  0.0000E+00  0.5120E+03
      8.276  0.0000E+00  0.5120E+03
      8.371  0.0000E+00  0.5120E+03
      8.466  0.0000E+00  0.5120E+03
      8.561  0.0000E+00  0.5120E+03
      8.656  0.0000E+00  0.5120E+03
      8.751  0.0000E+00  0.5120E+03
      8.846  0.0000E+00  0.5120E+03
      8.941  0.0000E+00  0.5120E+03
