 vasp.5.4.1 24Jun15 (build Nov 25 2015 16:01:35) complex                        
  
 executed on         CrayXC-Intel date 2016.06.09  00:05:23
 running on   24 total cores
 distrk:  each k-point on   24 cores,    1 groups
 distr:  one band on NCORES_PER_BAND=   3 cores,    8 groups


--------------------------------------------------------------------------------------------------------


 INCAR:
 POTCAR:    PAW_PBE C 08Apr2002                   
 POTCAR:    PAW_PBE N 08Apr2002                   
 POTCAR:    PAW_PBE H 15Jun2001                   
 POTCAR:    PAW_PBE Pb_d 06Sep2000                
 POTCAR:    PAW_PBE I 08Apr2002                   
 POTCAR:    PAW_PBE C 08Apr2002                   
   VRHFIN =C: s2p2                                                              
   LEXCH  = PE                                                                  
   EATOM  =   147.1560 eV,   10.8157 Ry                                         
                                                                                
   TITEL  = PAW_PBE C 08Apr2002                                                 
   LULTRA =        F    use ultrasoft PP ?                                      
   IUNSCR =        1    unscreen: 0-lin 1-nonlin 2-no                           
   RPACOR =    1.200    partial core radius                                     
   POMASS =   12.011; ZVAL   =    4.000    mass and valenz                      
   RCORE  =    1.500    outmost cutoff radius                                   
   RWIGS  =    1.630; RWIGS  =    0.863    wigner-seitz radius (au A)           
   ENMAX  =  400.000; ENMIN  =  300.000 eV                                      
   ICORE  =        2    local potential                                         
   LCOR   =        T    correct aug charges                                     
   LPAW   =        T    paw PP                                                  
   EAUG   =  644.873                                                            
   DEXC   =    0.000                                                            
   RMAX   =    1.529    core radius for proj-oper                               
   RAUG   =    1.300    factor for augmentation sphere                          
   RDEP   =    1.501    radius for radial grids                                 
   RDEPT  =    1.300    core radius for aug-charge                              
                                                                                
   Atomic configuration                                                         
    4 entries                                                                   
     n  l   j            E        occ.                                          
     1  0  0.50      -273.3789   2.0000                                         
     2  0  0.50       -13.7508   2.0000                                         
     2  1  0.50        -5.2854   2.0000                                         
     3  2  1.50        -5.4423   0.0000                                         
   Description                                                                  
     l       E           TYP  RCUT    TYP  RCUT                                 
     0    -13.7508458     23  1.200                                             
     0     -8.2022199     23  1.200                                             
     1     -5.2854383     23  1.500                                             
     1     34.0145650     23  1.500                                             
     2     -5.4423304      7  1.500                                             
  local pseudopotential read in
  partial core-charges read in
  partial kinetic energy density read in
  atomic valenz-charges read in
  non local Contribution for L=           0  read in
    real space projection operators read in
  non local Contribution for L=           0  read in
    real space projection operators read in
  non local Contribution for L=           1  read in
    real space projection operators read in
  non local Contribution for L=           1  read in
    real space projection operators read in
    PAW grid and wavefunctions read in
 
   number of l-projection  operators is LMAX  =           4
   number of lm-projection operators is LMMAX =           8
 
 POTCAR:    PAW_PBE N 08Apr2002                   
   VRHFIN =N: s2p3                                                              
   LEXCH  = PE                                                                  
   EATOM  =   264.5486 eV,   19.4438 Ry                                         
                                                                                
   TITEL  = PAW_PBE N 08Apr2002                                                 
   LULTRA =        F    use ultrasoft PP ?                                      
   IUNSCR =        1    unscreen: 0-lin 1-nonlin 2-no                           
   RPACOR =    1.200    partial core radius                                     
   POMASS =   14.001; ZVAL   =    5.000    mass and valenz                      
   RCORE  =    1.500    outmost cutoff radius                                   
   RWIGS  =    1.400; RWIGS  =    0.741    wigner-seitz radius (au A)           
   ENMAX  =  400.000; ENMIN  =  300.000 eV                                      
   ICORE  =        2    local potential                                         
   LCOR   =        T    correct aug charges                                     
   LPAW   =        T    paw PP                                                  
   EAUG   =  627.112                                                            
   DEXC   =    0.000                                                            
   RMAX   =    1.529    core radius for proj-oper                               
   RAUG   =    1.300    factor for augmentation sphere                          
   RDEP   =    1.514    radius for radial grids                                 
   RDEPT  =    1.338    core radius for aug-charge                              
                                                                                
   Atomic configuration                                                         
    4 entries                                                                   
     n  l   j            E        occ.                                          
     1  0  0.50      -384.7179   2.0000                                         
     2  0  0.50       -18.5828   2.0000                                         
     2  1  0.50        -7.0898   3.0000                                         
     3  2  1.50        -6.8029   0.0000                                         
   Description                                                                  
     l       E           TYP  RCUT    TYP  RCUT                                 
     0    -18.5828119     23  1.200                                             
     0    -13.5018863     23  1.200                                             
     1     -7.0897853     23  1.500                                             
     1      9.5240782     23  1.500                                             
     2     -6.8029130      7  1.500                                             
  local pseudopotential read in
  partial core-charges read in
  partial kinetic energy density read in
  atomic valenz-charges read in
  non local Contribution for L=           0  read in
    real space projection operators read in
  non local Contribution for L=           0  read in
    real space projection operators read in
  non local Contribution for L=           1  read in
    real space projection operators read in
  non local Contribution for L=           1  read in
    real space projection operators read in
    PAW grid and wavefunctions read in
 
   number of l-projection  operators is LMAX  =           4
   number of lm-projection operators is LMMAX =           8
 
 POTCAR:    PAW_PBE H 15Jun2001                   
   VRHFIN =H: ultrasoft test                                                    
   LEXCH  = PE                                                                  
   EATOM  =    12.4884 eV,    0.9179 Ry                                         
                                                                                
   TITEL  = PAW_PBE H 15Jun2001                                                 
   LULTRA =        F    use ultrasoft PP ?                                      
   IUNSCR =        0    unscreen: 0-lin 1-nonlin 2-no                           
   RPACOR =    0.000    partial core radius                                     
   POMASS =    1.000; ZVAL   =    1.000    mass and valenz                      
   RCORE  =    1.100    outmost cutoff radius                                   
   RWIGS  =    0.700; RWIGS  =    0.370    wigner-seitz radius (au A)           
   ENMAX  =  250.000; ENMIN  =  200.000 eV                                      
   RCLOC  =    0.701    cutoff for local pot                                    
   LCOR   =        T    correct aug charges                                     
   LPAW   =        T    paw PP                                                  
   EAUG   =  400.000                                                            
   RMAX   =    1.123    core radius for proj-oper                               
   RAUG   =    1.200    factor for augmentation sphere                          
   RDEP   =    1.112    radius for radial grids                                 
   RDEPT  =    0.926    core radius for aug-charge                              
                                                                                
   Atomic configuration                                                         
    2 entries                                                                   
     n  l   j            E        occ.                                          
     1  0  0.50        -6.4927   1.0000                                         
     2  1  0.50        -3.4015   0.0000                                         
   Description                                                                  
     l       E           TYP  RCUT    TYP  RCUT                                 
     0     -6.4927494     23  1.100                                             
     0      6.8029130     23  1.100                                             
     1     -4.0817478     23  1.100                                             
  local pseudopotential read in
  atomic valenz-charges read in
  non local Contribution for L=           0  read in
    real space projection operators read in
  non local Contribution for L=           0  read in
    real space projection operators read in
  non local Contribution for L=           1  read in
    real space projection operators read in
    PAW grid and wavefunctions read in
 
   number of l-projection  operators is LMAX  =           3
   number of lm-projection operators is LMMAX =           5
 
 POTCAR:    PAW_PBE Pb_d 06Sep2000                
   VRHFIN =Pb:                                                                  
   LEXCH  = PE                                                                  
   EATOM  =  1661.6185 eV,  122.1255 Ry                                         
                                                                                
   TITEL  = PAW_PBE Pb_d 06Sep2000                                              
   LULTRA =        F    use ultrasoft PP ?                                      
   IUNSCR =        1    unscreen: 0-lin 1-nonlin 2-no                           
   RPACOR =    2.200    partial core radius                                     
   POMASS =  207.200; ZVAL   =   14.000    mass and valenz                      
   RCORE  =    2.500    outmost cutoff radius                                   
   RWIGS  =    3.260; RWIGS  =    1.725    wigner-seitz radius (au A)           
   ENMAX  =  237.835; ENMIN  =  178.376 eV                                      
   ICORE  =        3    local potential                                         
   LCOR   =        T    correct aug charges                                     
   LPAW   =        T    paw PP                                                  
   EAUG   =  391.914                                                            
   DEXC   =    0.000                                                            
   RMAX   =    2.565    core radius for proj-oper                               
   RAUG   =    1.300    factor for augmentation sphere                          
   RDEP   =    2.643    radius for radial grids                                 
   RDEPT  =    2.092    core radius for aug-charge                              
                                                                                
   Atomic configuration                                                         
   16 entries                                                                   
     n  l   j            E        occ.                                          
     1  0  0.50    -88091.8466   2.0000                                         
     2  0  0.50    -15753.4197   2.0000                                         
     2  1  1.50    -13508.1797   6.0000                                         
     3  0  0.50     -3781.7194   2.0000                                         
     3  1  1.50     -3138.2529   6.0000                                         
     3  2  2.50     -2483.2977  10.0000                                         
     4  0  0.50      -856.2895   2.0000                                         
     4  1  1.50      -645.4942   6.0000                                         
     4  2  2.50      -401.8768  10.0000                                         
     4  3  3.50      -132.9059  14.0000                                         
     5  0  0.50      -144.0950   2.0000                                         
     5  1  1.50       -85.7879   6.0000                                         
     5  2  2.50       -21.1769  10.0000                                         
     6  0  0.50       -12.0372   2.0000                                         
     6  1  1.50        -3.4971   2.0000                                         
     5  3  2.50        -2.7212   0.0000                                         
   Description                                                                  
     l       E           TYP  RCUT    TYP  RCUT                                 
     2    -21.1768523     23  2.500                                             
     2      1.3605826     23  2.500                                             
     0    -12.0371562     23  2.500                                             
     0     13.6058260     23  2.500                                             
     1     -3.4971339     23  2.500                                             
     1     13.6058260     23  2.500                                             
     3     -1.3605826      7  2.500                                             
  local pseudopotential read in
  partial core-charges read in
  partial kinetic energy density read in
  atomic valenz-charges read in
  non local Contribution for L=           2  read in
    real space projection operators read in
  non local Contribution for L=           2  read in
    real space projection operators read in
  non local Contribution for L=           0  read in
    real space projection operators read in
  non local Contribution for L=           0  read in
    real space projection operators read in
  non local Contribution for L=           1  read in
    real space projection operators read in
  non local Contribution for L=           1  read in
    real space projection operators read in
    PAW grid and wavefunctions read in
 
   number of l-projection  operators is LMAX  =           6
   number of lm-projection operators is LMMAX =          18
 
 POTCAR:    PAW_PBE I 08Apr2002                   
   VRHFIN =I : s2p5                                                             
   LEXCH  = PE                                                                  
   EATOM  =   315.8678 eV,   23.2156 Ry                                         
                                                                                
   TITEL  = PAW_PBE I 08Apr2002                                                 
   LULTRA =        F    use ultrasoft PP ?                                      
   IUNSCR =        1    unscreen: 0-lin 1-nonlin 2-no                           
   RPACOR =    2.200    partial core radius                                     
   POMASS =  126.904; ZVAL   =    7.000    mass and valenz                      
   RCORE  =    2.300    outmost cutoff radius                                   
   RWIGS  =    2.810; RWIGS  =    1.487    wigner-seitz radius (au A)           
   ENMAX  =  175.647; ENMIN  =  131.735 eV                                      
   ICORE  =        3    local potential                                         
   LCOR   =        T    correct aug charges                                     
   LPAW   =        T    paw PP                                                  
   EAUG   =  370.139                                                            
   DEXC   =    0.000                                                            
   RMAX   =    2.359    core radius for proj-oper                               
   RAUG   =    1.300    factor for augmentation sphere                          
   RDEP   =    2.392    radius for radial grids                                 
   RDEPT  =    2.170    core radius for aug-charge                              
                                                                                
   Atomic configuration                                                         
   13 entries                                                                   
     n  l   j            E        occ.                                          
     1  0  0.50    -32976.3739   2.0000                                         
     2  0  0.50     -5094.5933   2.0000                                         
     2  1  1.50     -4572.0131   6.0000                                         
     3  0  0.50     -1028.2813   2.0000                                         
     3  1  1.50      -859.0250   6.0000                                         
     3  2  2.50      -605.7620  10.0000                                         
     4  0  0.50      -180.5540   2.0000                                         
     4  1  1.50      -127.5306   6.0000                                         
     4  2  2.50       -50.2720  10.0000                                         
     5  0  0.50       -17.4058   2.0000                                         
     5  1  0.50        -7.0851   5.0000                                         
     5  2  1.50        -7.0750   0.0000                                         
     4  3  2.50        -7.0750   0.0000                                         
   Description                                                                  
     l       E           TYP  RCUT    TYP  RCUT                                 
     0    -17.4058016     23  2.300                                             
     0    -18.7663842     23  2.300                                             
     1     -7.0850686     23  2.300                                             
     1     -4.2150896     23  2.300                                             
     2     -7.0750295     23  2.300                                             
     3     -1.3605826     23  2.300                                             
  local pseudopotential read in
  partial core-charges read in
  partial kinetic energy density read in
  atomic valenz-charges read in
  non local Contribution for L=           0  read in
    real space projection operators read in
  non local Contribution for L=           0  read in
    real space projection operators read in
  non local Contribution for L=           1  read in
    real space projection operators read in
  non local Contribution for L=           1  read in
    real space projection operators read in
  non local Contribution for L=           2  read in
    real space projection operators read in
    PAW grid and wavefunctions read in
 
   number of l-projection  operators is LMAX  =           5
   number of lm-projection operators is LMMAX =          13
 

 ----------------------------------------------------------------------------- 
|                                                                             |
|  ADVICE TO THIS USER RUNNING 'VASP/VAMP'   (HEAR YOUR MASTER'S VOICE ...):  |
|                                                                             |
|      You have a (more or less) 'large supercell' and for larger cells       |
|      it might be more efficient to use real space projection opertators     |
|      So try LREAL= Auto  in the INCAR   file.                               |
|      Mind: At the moment your POTCAR file does not contain real space       |
|       projectors, and has to be modified,  BUT if you                       |
|      want to do an extremely  accurate calculation you might also keep the  |
|      reciprocal projection scheme          (i.e. LREAL=.FALSE.)             |
|                                                                             |
 ----------------------------------------------------------------------------- 


 ----------------------------------------------------------------------------- 
|                                                                             |
|  ADVICE TO THIS USER RUNNING 'VASP/VAMP'   (HEAR YOUR MASTER'S VOICE ...):  |
|                                                                             |
|      You enforced a specific xc-type in the INCAR file,                     |
|      a different type was found on the POTCAR file                          |
|          I HOPE YOU KNOW, WHAT YOU ARE  DOING                               |
|                                                                             |
 ----------------------------------------------------------------------------- 

  PAW_PBE C 08Apr2002                   :
 energy of atom  1       EATOM= -147.1560
 kinetic energy error for atom=    0.0032 (will be added to EATOM!!)
  PAW_PBE N 08Apr2002                   :
 energy of atom  2       EATOM= -264.5486
 kinetic energy error for atom=    0.0061 (will be added to EATOM!!)
  PAW_PBE H 15Jun2001                   :
 energy of atom  3       EATOM=  -12.4884
 kinetic energy error for atom=    0.0002 (will be added to EATOM!!)
  PAW_PBE Pb_d 06Sep2000                :
 energy of atom  4       EATOM=-1661.6185
 kinetic energy error for atom=    0.0012 (will be added to EATOM!!)
  PAW_PBE I 08Apr2002                   :
 energy of atom  5       EATOM= -315.8678
 kinetic energy error for atom=    0.0003 (will be added to EATOM!!)
 
 
 POSCAR: C N H Pb I                              
  positions in direct lattice
  No initial velocities read in
 exchange correlation table for  LEXCH =       14
   RHO(1)=    0.500       N(1)  =     2000
   RHO(2)=  100.500       N(2)  =     4000
 


--------------------------------------------------------------------------------------------------------


 ion  position               nearest neighbor table
   1  0.197  0.250  0.229-  25 1.10  33 1.10  17 1.10   9 1.48
   2  0.697  0.250  0.229-  26 1.10  34 1.10  18 1.10  10 1.48
   3  0.197  0.750  0.229-  27 1.10  35 1.10  19 1.10  11 1.48
   4  0.697  0.750  0.229-  28 1.10  36 1.10  20 1.10  12 1.48
   5  0.197  0.250  0.729-  29 1.10  37 1.10  21 1.10  13 1.48
   6  0.697  0.250  0.729-  30 1.10  38 1.10  22 1.10  14 1.48
   7  0.197  0.750  0.729-  31 1.10  39 1.10  23 1.10  15 1.48
   8  0.697  0.750  0.729-  32 1.10  40 1.10  24 1.10  16 1.48
   9  0.309  0.250  0.266-  41 1.05  49 1.05  57 1.05   1 1.48
  10  0.801  0.250  0.282-  58 1.04  42 1.05  50 1.05   2 1.48
  11  0.301  0.750  0.282-  59 1.04  43 1.05  51 1.05   3 1.48
  12  0.809  0.750  0.266-  44 1.05  52 1.05  60 1.05   4 1.48
  13  0.301  0.250  0.782-  61 1.04  45 1.05  53 1.05   5 1.48
  14  0.809  0.250  0.766-  46 1.05  54 1.05  62 1.05   6 1.48
  15  0.309  0.750  0.766-  47 1.05  55 1.05  63 1.05   7 1.48
  16  0.801  0.750  0.782-  64 1.04  48 1.05  56 1.05   8 1.48
  17  0.199  0.250  0.142-   1 1.10
  18  0.711  0.250  0.144-   2 1.10
  19  0.211  0.750  0.144-   3 1.10
  20  0.699  0.750  0.142-   4 1.10
  21  0.211  0.250  0.644-   5 1.10
  22  0.699  0.250  0.642-   6 1.10
  23  0.199  0.750  0.642-   7 1.10
  24  0.711  0.750  0.644-   8 1.10
  25  0.157  0.322  0.258-   1 1.10
  26  0.652  0.322  0.253-   2 1.10
  27  0.152  0.822  0.253-   3 1.10
  28  0.657  0.822  0.258-   4 1.10
  29  0.152  0.322  0.753-   5 1.10
  30  0.657  0.322  0.758-   6 1.10
  31  0.157  0.822  0.758-   7 1.10
  32  0.652  0.822  0.753-   8 1.10
  33  0.157  0.177  0.258-   1 1.10
  34  0.652  0.177  0.253-   2 1.10
  35  0.152  0.677  0.253-   3 1.10
  36  0.657  0.677  0.258-   4 1.10
  37  0.152  0.177  0.753-   5 1.10
  38  0.657  0.177  0.758-   6 1.10
  39  0.157  0.677  0.758-   7 1.10
  40  0.652  0.677  0.753-   8 1.10
  41  0.351  0.318  0.240-   9 1.05
  42  0.846  0.318  0.262-  10 1.05
  43  0.346  0.818  0.262-  11 1.05
  44  0.851  0.818  0.240-  12 1.05
  45  0.346  0.318  0.762-  13 1.05
  46  0.851  0.318  0.740-  14 1.05
  47  0.351  0.818  0.740-  15 1.05
  48  0.846  0.818  0.762-  16 1.05
  49  0.351  0.182  0.240-   9 1.05
  50  0.846  0.182  0.262-  10 1.05
  51  0.346  0.682  0.262-  11 1.05
  52  0.851  0.682  0.240-  12 1.05
  53  0.346  0.182  0.762-  13 1.05
  54  0.851  0.182  0.740-  14 1.05
  55  0.351  0.682  0.740-  15 1.05
  56  0.846  0.682  0.762-  16 1.05
  57  0.314  0.250  0.348-   9 1.05
  58  0.792  0.250  0.364-  10 1.04
  59  0.292  0.750  0.364-  11 1.04
  60  0.814  0.750  0.348-  12 1.05
  61  0.292  0.250  0.864-  13 1.04
  62  0.814  0.250  0.848-  14 1.05
  63  0.314  0.750  0.848-  15 1.05
  64  0.792  0.750  0.864-  16 1.04
  65  0.472  0.499  0.489-  90 3.09  87 3.14  85 3.15  77 3.17  73 3.22  89 3.26
  66  0.972  0.501  0.489-  89 3.09  86 3.14  88 3.15  78 3.17  74 3.22  90 3.26
  67  0.472  0.001  0.489-  92 3.09  87 3.14  85 3.15  79 3.17  75 3.22  91 3.26
  68  0.972  0.999  0.489-  91 3.09  86 3.14  88 3.15  80 3.17  76 3.22  92 3.26
  69  0.472  0.501  0.989-  94 3.09  81 3.14  83 3.15  73 3.17  77 3.22  93 3.26
  70  0.972  0.499  0.989-  93 3.09  84 3.14  82 3.15  74 3.17  78 3.22  94 3.26
  71  0.472  0.999  0.989-  96 3.09  81 3.14  83 3.15  75 3.17  79 3.22  95 3.26
  72  0.972  0.001  0.989-  95 3.09  84 3.14  82 3.15  76 3.17  80 3.22  96 3.26
  73  0.455  0.502  0.238-  69 3.17  65 3.22
  74  0.955  0.498  0.238-  70 3.17  66 3.22
  75  0.455  0.998  0.238-  71 3.17  67 3.22
  76  0.955  0.002  0.238-  72 3.17  68 3.22
  77  0.455  0.498  0.738-  65 3.17  69 3.22
  78  0.955  0.502  0.738-  66 3.17  70 3.22
  79  0.455  0.002  0.738-  67 3.17  71 3.22
  80  0.955  0.998  0.738-  68 3.17  72 3.22
  81  0.466  0.250  0.011-  71 3.14  69 3.14
  82  0.933  0.250  0.013-  72 3.15  70 3.15
  83  0.433  0.750  0.013-  69 3.15  71 3.15
  84  0.966  0.750  0.011-  70 3.14  72 3.14
  85  0.433  0.250  0.513-  67 3.15  65 3.15
  86  0.966  0.250  0.511-  68 3.14  66 3.14
  87  0.466  0.750  0.511-  65 3.14  67 3.14
  88  0.933  0.750  0.513-  66 3.15  68 3.15
  89  0.216  0.519  0.461-  66 3.09  65 3.26
  90  0.716  0.481  0.461-  65 3.09  66 3.26
  91  0.216  0.981  0.461-  68 3.09  67 3.26
  92  0.716  0.019  0.461-  67 3.09  68 3.26
  93  0.216  0.481  0.961-  70 3.09  69 3.26
  94  0.716  0.519  0.961-  69 3.09  70 3.26
  95  0.216  0.019  0.961-  72 3.09  71 3.26
  96  0.716  0.981  0.961-  71 3.09  72 3.26
 
  LATTYP: Found a triclinic cell.
 ALAT       =    17.8238589327
 B/A-ratio  =     0.6989248630
 C/A-ratio  =     1.0156975818
 COS(alpha) =     0.0001355172
 COS(beta)  =     0.5146378593
 COS(gamma) =     0.6988877578
  
  Lattice vectors:
  
 A1 = (  -0.1406063366, -12.4576271275, -12.7466742118)
 A2 = (  -0.0011956322, -12.4575380825,   0.0007464135)
 A3 = ( -12.7162481321,  -0.0020049566, -12.8856194186)


Analysis of symmetry for initial positions (statically):
=====================================================================
 Subroutine PRICEL returns following result:
 
  LATTYP: Found a triclinic cell.
 ALAT       =     8.8524544993
 B/A-ratio  =     1.4072411401
 C/A-ratio  =     1.0225215175
 COS(alpha) =     0.0001355172
 COS(beta)  =     0.5046167836
 COS(gamma) =     0.7037964938
  
  Lattice vectors:
  
 A1 = (   6.2890165300,   6.2297269971,   0.0687261899)
 A2 = (   0.0011956322,  12.4575380825,  -0.0007464135)
 A3 = (   6.3581240661,   0.0010024783,   6.4428097093)
 
   4 primitive cells build up your supercell.
 

 Routine SETGRP: Setting up the symmetry group for a 
 triclinic supercell.


 Subroutine GETGRP returns: Found  1 space group operations
 (whereof  1 operations were pure point group operations)
 out of a pool of  2 trial point group operations.


The static configuration has the point symmetry C_1 .


Analysis of symmetry for dynamics (positions and initial velocities):
=====================================================================
 Subroutine PRICEL returns following result:
 
  LATTYP: Found a triclinic cell.
 ALAT       =     8.8524544993
 B/A-ratio  =     1.4072411401
 C/A-ratio  =     1.0225215175
 COS(alpha) =     0.0001355172
 COS(beta)  =     0.5046167836
 COS(gamma) =     0.7037964938
  
  Lattice vectors:
  
 A1 = (   6.2890165300,   6.2297269971,   0.0687261899)
 A2 = (   0.0011956322,  12.4575380825,  -0.0007464135)
 A3 = (   6.3581240661,   0.0010024783,   6.4428097093)
 
   4 primitive cells build up your supercell.
 

 Routine SETGRP: Setting up the symmetry group for a 
 triclinic supercell.


 Subroutine GETGRP returns: Found  1 space group operations
 (whereof  1 operations were pure point group operations)
 out of a pool of  2 trial point group operations.


The dynamic configuration has the point symmetry C_1 .


 Subroutine INISYM returns: Found  1 space group operations
 (whereof  1 operations are pure point group operations),
 and found     4 'primitive' translations

 
 
 KPOINTS: Automatic 3x3x3                         

Automatic generation of k-mesh.
Space group operators:
 irot       det(A)        alpha          n_x          n_y          n_z        tau_x        tau_y        tau_z
    1     1.000000     0.000000     1.000000     0.000000     0.000000     0.000000     0.000000     0.000000
 
 Subroutine IBZKPT returns following result:
 ===========================================
 
 Found     14 irreducible k-points:
 
 Following reciprocal coordinates:
            Coordinates               Weight
  0.000000  0.000000  0.000000      1.000000
  0.333333 -0.000000 -0.000000      2.000000
  0.000000  0.333333 -0.000000      2.000000
  0.333333  0.333333  0.000000      2.000000
 -0.333333  0.333333  0.000000      2.000000
  0.000000  0.000000  0.333333      2.000000
  0.333333  0.000000  0.333333      2.000000
 -0.333333  0.000000  0.333333      2.000000
  0.000000  0.333333  0.333333      2.000000
  0.333333  0.333333  0.333333      2.000000
 -0.333333  0.333333  0.333333      2.000000
  0.000000 -0.333333  0.333333      2.000000
  0.333333 -0.333333  0.333333      2.000000
 -0.333333 -0.333333  0.333333      2.000000
 
 Following cartesian coordinates:
            Coordinates               Weight
  0.000000  0.000000  0.000000      1.000000
  0.026507 -0.000003 -0.000290      2.000000
 -0.000004  0.026758 -0.000000      2.000000
  0.026503  0.026755 -0.000290      2.000000
 -0.026511  0.026760  0.000290      2.000000
 -0.000287  0.000002  0.026152      2.000000
  0.026220 -0.000001  0.025862      2.000000
 -0.026794  0.000004  0.026442      2.000000
 -0.000291  0.026759  0.026152      2.000000
  0.026215  0.026757  0.025862      2.000000
 -0.026798  0.026762  0.026442      2.000000
 -0.000283 -0.026756  0.026152      2.000000
  0.026224 -0.026759  0.025862      2.000000
 -0.026790 -0.026753  0.026442      2.000000
 


--------------------------------------------------------------------------------------------------------




 Dimension of arrays:
   k-points           NKPTS =     14   k-points in BZ     NKDIM =     14   number of bands    NBANDS=    256
   number of dos      NEDOS =    301   number of ions     NIONS =     96
   non local maximal  LDIM  =      6   non local SUM 2l+1 LMDIM =     18
   total plane-waves  NPLWV = ******
   max r-space proj   IRMAX =      1   max aug-charges    IRDMAX= 314103
   dimension x,y,z NGX =   112 NGY =  108 NGZ =  112
   dimension x,y,z NGXF=   224 NGYF=  216 NGZF=  224
   support grid    NGXF=   448 NGYF=  432 NGZF=  448
   ions per type =               8   8  48   8  24
 NGX,Y,Z   is equivalent  to a cutoff of  14.80, 14.41, 14.61 a.u.
 NGXF,Y,Z  is equivalent  to a cutoff of  29.61, 28.83, 29.21 a.u.


 I would recommend the setting:
   dimension x,y,z NGX =   109 NGY =  107 NGZ =  110
 SYSTEM =  MAPbI3-Cubic                            
 POSCAR =  C N H Pb I                              

 Startparameter for this run:
   NWRITE =      2    write-flag & timer
   PREC   = accura    normal or accurate (medium, high low for compatibility)
   ISTART =      0    job   : 0-new  1-cont  2-samecut
   ICHARG =      2    charge: 1-file 2-atom 10-const
   ISPIN  =      1    spin polarized calculation?
   LNONCOLLINEAR =      F non collinear calculations
   LSORBIT =      F    spin-orbit coupling
   INIWAV =      1    electr: 0-lowe 1-rand  2-diag
   LASPH  =      F    aspherical Exc in radial PAW
   METAGGA=      F    non-selfconsistent MetaGGA calc.

 Electronic Relaxation 1
   ENCUT  =  700.0 eV  51.45 Ry    7.17 a.u.  27.13 26.87 27.50*2*pi/ulx,y,z
   ENINI  =  700.0     initial cutoff
   ENAUG  =  644.9 eV  augmentation charge cutoff
   NELM   =     60;   NELMIN=  2; NELMDL= -5     # of ELM steps 
   EDIFF  = 0.1E-07   stopping-criterion for ELM
   LREAL  =      F    real-space projection
   NLSPLINE    = F    spline interpolate recip. space projectors
   LCOMPAT=      F    compatible to vasp.4.4
   GGA_COMPAT  = T    GGA compatible to vasp.4.4-vasp.4.6
   LMAXPAW     = -100 max onsite density
   LMAXMIX     =    2 max onsite mixed and CHGCAR
   VOSKOWN=      0    Vosko Wilk Nusair interpolation
   ROPT   =    0.00000   0.00000   0.00000   0.00000
   ROPT   =    0.00000
 Ionic relaxation
   EDIFFG = 0.1E-06   stopping-criterion for IOM
   NSW    =      0    number of steps for IOM
   NBLOCK =      1;   KBLOCK =      1    inner block; outer block 
   IBRION =     -1    ionic relax: 0-MD 1-quasi-New 2-CG
   NFREE  =      0    steps in history (QN), initial steepest desc. (CG)
   ISIF   =      2    stress and relaxation
   IWAVPR =     10    prediction:  0-non 1-charg 2-wave 3-comb
   ISYM   =      2    0-nonsym 1-usesym 2-fastsym
   LCORR  =      T    Harris-Foulkes like correction to forces

   POTIM  = 0.5000    time-step for ionic-motion
   TEIN   =    0.0    initial temperature
   TEBEG  =    0.0;   TEEND  =   0.0 temperature during run
   SMASS  =  -3.00    Nose mass-parameter (am)
   estimated Nose-frequenzy (Omega)   =  0.10E-29 period in steps =****** mass=  -0.362E-26a.u.
   SCALEE = 1.0000    scale energy and forces
   NPACO  =    256;   APACO  = 16.0  distance and # of slots for P.C.
   PSTRESS=    0.0 pullay stress

  Mass of Ions in am
   POMASS =  12.01 14.00  1.00207.20126.90
  Ionic Valenz
   ZVAL   =   4.00  5.00  1.00 14.00  7.00
  Atomic Wigner-Seitz radii
   RWIGS  =  -1.00 -1.00 -1.00 -1.00 -1.00
  virtual crystal weights 
   VCA    =   1.00  1.00  1.00  1.00  1.00
   NELECT =     400.0000    total number of electrons
   NUPDOWN=      -1.0000    fix difference up-down

 DOS related values:
   EMIN   =  10.00;   EMAX   =-10.00  energy-range for DOS
   EFERMI =   0.00
   ISMEAR =     0;   SIGMA  =   0.00  broadening in eV -4-tet -1-fermi 0-gaus

 Electronic relaxation 2 (details)
   IALGO  =     38    algorithm
   LDIAG  =      T    sub-space diagonalisation (order eigenvalues)
   LSUBROT=      F    optimize rotation matrix (better conditioning)
   TURBO    =      0    0=normal 1=particle mesh
   IRESTART =      0    0=no restart 2=restart with 2 vectors
   NREBOOT  =      0    no. of reboots
   NMIN     =      0    reboot dimension
   EREF     =   0.00    reference energy to select bands
   IMIX   =      4    mixing-type and parameters
     AMIX     =   0.40;   BMIX     =  1.00
     AMIX_MAG =   1.60;   BMIX_MAG =  1.00
     AMIN     =   0.10
     WC   =   100.;   INIMIX=   1;  MIXPRE=   1;  MAXMIX= -45

 Intra band minimization:
   WEIMIN = 0.0000     energy-eigenvalue tresh-hold
   EBREAK =  0.98E-11  absolut break condition
   DEPER  =   0.30     relativ break condition  

   TIME   =   0.40     timestep for ELM

  volume/ion in A,a.u.               =      20.80       140.38
  Fermi-wavevector in a.u.,A,eV,Ry     =   0.957863  1.810099 12.483376  0.917502
  Thomas-Fermi vector in A             =   2.086919
 
 Write flags
   LWAVE  =      F    write WAVECAR
   LCHARG =      F    write CHGCAR
   LVTOT  =      F    write LOCPOT, total local potential
   LVHAR  =      F    write LOCPOT, Hartree potential only
   LELF   =      F    write electronic localiz. function (ELF)
   LORBIT =      0    0 simple, 1 ext, 2 COOP (PROOUT)


 Dipole corrections
   LMONO  =      F    monopole corrections only (constant potential shift)
   LDIPOL =      F    correct potential (dipole corrections)
   IDIPOL =      0    1-x, 2-y, 3-z, 4-all directions 
   EPSILON=  1.0000000 bulk dielectric constant

 Exchange correlation treatment:
   GGA     =    PS    GGA type
   LEXCH   =    14    internal setting for exchange type
   VOSKOWN=      0    Vosko Wilk Nusair interpolation
   LHFCALC =     F    Hartree Fock is set to
   LHFONE  =     F    Hartree Fock one center treatment
   AEXX    =    0.0000 exact exchange contribution

 Linear response parameters
   LEPSILON=     F    determine dielectric tensor
   LRPA    =     F    only Hartree local field effects (RPA)
   LNABLA  =     F    use nabla operator in PAW spheres
   LVEL    =     F    velocity operator in full k-point grid
   LINTERFAST=   F  fast interpolation
   KINTER  =     0    interpolate to denser k-point grid
   CSHIFT  =0.1000    complex shift for real part using Kramers Kronig
   OMEGAMAX=  -1.0    maximum frequency
   DEG_THRESHOLD= 0.2000000E-02 threshold for treating states as degnerate
   RTIME   =    0.100 relaxation time in fs

 Orbital magnetization related:
   ORBITALMAG=     F  switch on orbital magnetization
   LCHIMAG   =     F  perturbation theory with respect to B field
   DQ        =  0.001000  dq finite difference perturbation B field



--------------------------------------------------------------------------------------------------------


 Static calculation
 charge density and potential will be updated during run
 non-spin polarized calculation
 Variant of blocked Davidson
 Davidson routine will perform the subspace rotation
 perform sub-space diagonalisation
    after iterative eigenvector-optimisation
 modified Broyden-mixing scheme, WC =      100.0
 initial mixing is a Kerker type mixing with AMIX =  0.4000 and BMIX =      1.0000
 Hartree-type preconditioning will be used
 using additional bands           56
 reciprocal scheme for non local part
 use partial core corrections
 calculate Harris-corrections to forces 
   (improved forces if not selfconsistent)
 use gradient corrections 
 use of overlap-Matrix (Vanderbilt PP)
 Gauss-broadening in eV      SIGMA  =   0.00


--------------------------------------------------------------------------------------------------------


  energy-cutoff  :      700.00
  volume of cell :     1996.98
      direct lattice vectors                 reciprocal lattice vectors
    12.576837428  0.001915912  0.138198793     0.079520802 -0.000007684 -0.000869670
     0.001195632 12.457538083 -0.000746413    -0.000012224  0.080272684 -0.000000427
     0.139410704  0.000089045 12.747420625    -0.000862111  0.000004784  0.078456671

  length of vectors
    12.577596840 12.457538162 12.748182927     0.079525558  0.080272685  0.078461408


 
 k-points in units of 2pi/SCALE and weight: Automatic 3x3x3                         
   0.00000000  0.00000000  0.00000000       0.037
   0.02650693 -0.00000256 -0.00028989       0.074
  -0.00000407  0.02675756 -0.00000014       0.074
   0.02650286  0.02675500 -0.00029003       0.074
  -0.02651101  0.02676012  0.00028975       0.074
  -0.00028737  0.00000159  0.02615222       0.074
   0.02621956 -0.00000097  0.02586233       0.074
  -0.02679430  0.00000416  0.02644211       0.074
  -0.00029144  0.02675916  0.02615208       0.074
   0.02621549  0.02675659  0.02586219       0.074
  -0.02679838  0.02676172  0.02644197       0.074
  -0.00028330 -0.02675597  0.02615237       0.074
   0.02622364 -0.02675853  0.02586248       0.074
  -0.02679023 -0.02675341  0.02644226       0.074
 
 k-points in reciprocal lattice and weights: Automatic 3x3x3                         
   0.00000000  0.00000000  0.00000000       0.037
   0.33333333 -0.00000000 -0.00000000       0.074
   0.00000000  0.33333333 -0.00000000       0.074
   0.33333333  0.33333333  0.00000000       0.074
  -0.33333333  0.33333333  0.00000000       0.074
   0.00000000  0.00000000  0.33333333       0.074
   0.33333333  0.00000000  0.33333333       0.074
  -0.33333333  0.00000000  0.33333333       0.074
   0.00000000  0.33333333  0.33333333       0.074
   0.33333333  0.33333333  0.33333333       0.074
  -0.33333333  0.33333333  0.33333333       0.074
   0.00000000 -0.33333333  0.33333333       0.074
   0.33333333 -0.33333333  0.33333333       0.074
  -0.33333333 -0.33333333  0.33333333       0.074
 
 position of ions in fractional coordinates (direct lattice) 
   0.19742304  0.24987449  0.22872149
   0.69656523  0.24994206  0.22910921
   0.19656523  0.74994206  0.22910921
   0.69742304  0.74987449  0.22872149
   0.19656523  0.24994206  0.72910921
   0.69742304  0.24987449  0.72872149
   0.19742304  0.74987449  0.72872149
   0.69656523  0.74994206  0.72910921
   0.30850294  0.24998194  0.26573760
   0.80057150  0.25002534  0.28203099
   0.30057150  0.75002534  0.28203099
   0.80850294  0.74998194  0.26573760
   0.30057150  0.25002534  0.78203099
   0.80850294  0.24998194  0.76573760
   0.30850294  0.74998194  0.76573760
   0.80057150  0.75002534  0.78203099
   0.19892307  0.24978748  0.14222696
   0.71122727  0.24985471  0.14355030
   0.21122727  0.74985471  0.14355030
   0.69892307  0.74978748  0.14222696
   0.21122727  0.24985471  0.64355030
   0.69892307  0.24978748  0.64222696
   0.19892307  0.74978748  0.64222696
   0.71122727  0.74985471  0.64355030
   0.15658153  0.32226980  0.25831427
   0.65209408  0.32243458  0.25271637
   0.15209408  0.82243458  0.25271637
   0.65658153  0.82226980  0.25831427
   0.15209408  0.32243458  0.75271637
   0.65658153  0.32226980  0.75831427
   0.15658153  0.82226980  0.75831427
   0.65209408  0.82243458  0.75271637
   0.15671504  0.17747950  0.25844288
   0.65217063  0.17747264  0.25285854
   0.15217063  0.67747264  0.25285854
   0.65671504  0.67747950  0.25844288
   0.15217063  0.17747264  0.75285854
   0.65671504  0.17747950  0.75844288
   0.15671504  0.67747950  0.75844288
   0.65217063  0.67747264  0.75285854
   0.35053044  0.31781028  0.23963523
   0.84573871  0.31793828  0.26187775
   0.34573871  0.81793828  0.26187775
   0.85053044  0.81781028  0.23963523
   0.34573871  0.31793828  0.76187775
   0.85053044  0.31781028  0.73963523
   0.35053044  0.81781028  0.73963523
   0.84573871  0.81793828  0.76187775
   0.35063510  0.18214928  0.23973985
   0.84577550  0.18206049  0.26204195
   0.34577550  0.68206049  0.26204195
   0.85063510  0.68214928  0.23973985
   0.34577550  0.18206049  0.76204195
   0.85063510  0.18214928  0.73973985
   0.35063510  0.68214928  0.73973985
   0.84577550  0.68206049  0.76204195
   0.31390121  0.25004884  0.34771042
   0.79243893  0.25013820  0.36350807
   0.29243893  0.75013820  0.36350807
   0.81390121  0.75004884  0.34771042
   0.29243893  0.25013820  0.86350807
   0.81390121  0.25004884  0.84771042
   0.31390121  0.75004884  0.84771042
   0.79243893  0.75013820  0.86350807
   0.47243972  0.49893004  0.48880863
   0.97244383  0.50104955  0.48881427
   0.47244383  0.00104955  0.48881427
   0.97243972  0.99893004  0.48880863
   0.47244383  0.50104955  0.98881427
   0.97243972  0.49893004  0.98880863
   0.47243972  0.99893004  0.98880863
   0.97244383  0.00104955  0.98881427
   0.45471893  0.50218480  0.23757400
   0.95476842  0.49779730  0.23757149
   0.45476842  0.99779730  0.23757149
   0.95471893  0.00218480  0.23757400
   0.45476842  0.49779730  0.73757149
   0.95471893  0.50218480  0.73757400
   0.45471893  0.00218480  0.73757400
   0.95476842  0.99779730  0.73757149
   0.46590118  0.24997510  0.01110553
   0.93336970  0.24998292  0.01255891
   0.43336970  0.74998292  0.01255891
   0.96590118  0.74997510  0.01110553
   0.43336970  0.24998292  0.51255891
   0.96590118  0.24997510  0.51110553
   0.46590118  0.74997510  0.51110553
   0.93336970  0.74998292  0.51255891
   0.21616741  0.51865597  0.46125918
   0.71617547  0.48133891  0.46122022
   0.21617547  0.98133891  0.46122022
   0.71616741  0.01865597  0.46125918
   0.21617547  0.48133891  0.96122022
   0.71616741  0.51865597  0.96125918
   0.21616741  0.01865597  0.96125918
   0.71617547  0.98133891  0.96122022
 
 position of ions in cartesian coordinates  (Angst):
   2.51514243  3.11321962  2.94270620
   8.79282674  3.11501766  3.01662944
   2.50500584  9.34282874  2.94715684
   8.80415896  9.34294662  3.01143239
   2.57411338  3.11410422  9.32124036
   8.87326649  3.11422210  9.38551591
   2.58544560  9.34203319  9.31604331
   8.86312991  9.34383122  9.38996655
   3.91733688  3.11477426  3.42991713
  10.10827465  3.11625916  3.70561906
   3.82045375  9.34407024  3.63614646
  10.20635341  9.34450125  3.49864332
   3.88956129  3.11534572 10.01022998
  10.27546095  3.11577673  9.87272684
   3.98764005  9.34358782  9.80325424
  10.17857782  9.34507272 10.07895617
   2.52194967  3.11213088  1.84033132
   8.96530092  3.11394998  1.92800025
   2.67748002  9.34176107  1.85852765
   8.81096620  9.34185787  1.90905751
   2.74658755  3.11303655  8.23261117
   8.88007374  3.11313336  8.28314103
   2.59225284  9.34094444  8.21366843
   9.03560408  9.34276354  8.30133736
   2.00569760  4.01501127  3.31423943
   8.23689809  4.01801287  3.31135985
   1.94907720 10.24582395  3.24188725
   8.29471413 10.24473827  3.38296562
   2.01818473  4.01709943  9.61597077
   8.36382166  4.01601375  9.75704914
   2.07600077 10.24382484  9.68757653
   8.30720126 10.24682643  9.68469696
   2.00722148  2.21128095  3.31600543
   8.23770734  2.21214422  3.31329084
   1.94988644  8.43995531  3.24381824
   8.29623801  8.44100795  3.38473162
   2.01899398  2.21123079  9.61790176
   8.36534555  2.21228343  9.75881513
   2.07752465  8.44009451  9.68934253
   8.30801051  8.44095778  9.68662795
   4.44235211  3.95982660  3.10293672
  10.67360697  3.96237197  3.45490864
   4.38578607 10.19018306  3.38543603
  10.73136864 10.18955360  3.17166291
   4.45489361  3.96145854  9.75951955
  10.80047617  3.96082908  9.54574643
   4.51265527 10.18864017  9.47627382
  10.74391014 10.19118553  9.82824574
   4.44352071  2.26982473  3.10438614
  10.67393013  2.26966931  3.45710817
   4.38610923  8.49748040  3.38763557
  10.73253724  8.49955172  3.17311233
   4.45521676  2.26875588  9.76171909
  10.80164477  2.27082720  9.54719585
   4.51382388  8.49863829  9.47772325
  10.74423329  8.49848288  9.83044528
   3.99665806  3.11562537  4.47560509
  10.01735161  3.11765675  4.74311768
   3.72953071  9.34546783  4.67364508
  10.28567459  9.34535237  4.54433128
   3.79863825  3.11674332 11.04772860
  10.35478212  3.11662785 10.91841480
   4.06696123  9.34443894 10.84894219
  10.08765478  9.34647031 11.11645479
   6.01053922  6.21638865  6.29596738
  12.29901302  6.24375049  6.36513763
   6.00999649  0.01402350  6.29641144
  12.29955575 12.44611565  6.36469357
   6.08029966  6.24283706 12.66974854
  12.36866329  6.21739113 12.73877709
   6.08084239 12.44520221 12.66930449
  12.36812056  0.01502597 12.73922115
   5.75264686  6.25687866  3.09092242
  12.04168235  6.20317919  3.15999997
   5.75386146 12.43099027  3.09052737
  12.04046776  0.02906757  3.16039503
   5.82296899  6.20226575  9.46461089
  12.11077093  6.25788114  9.53373213
   5.82175440  0.02815414  9.46500594
  12.11198552 12.43199275  9.53333708
   5.86141052  3.11496798  0.20576726
  11.74088869  3.11596109  0.28889762
   5.45306779  9.34377218  0.21942502
  12.15042705  9.34469498  0.27449345
   5.52217533  3.11504766  6.59350854
  12.21953458  3.11597046  6.64857697
   5.93171369  9.34378155  6.57910437
  11.81119186  9.34477465  6.66223473
   2.78362693  6.46163168  5.90935175
   9.07209699  5.99771096  5.97798347
   2.78427609 12.22552204  5.90851087
   9.07144783  0.23382060  5.97882436
   2.85338363  5.99679752 12.28259439
   9.14175100  6.46263416 12.35216146
   2.85273447  0.23290716 12.28343527
   9.14240016 12.22652452 12.35132058
 


--------------------------------------------------------------------------------------------------------


 k-point  1 :   0.0000 0.0000 0.0000  plane waves:   84007
 k-point  2 :   0.3333-0.0000-0.0000  plane waves:   84003
 k-point  3 :   0.0000 0.3333-0.0000  plane waves:   83995
 k-point  4 :   0.3333 0.3333 0.0000  plane waves:   84018
 k-point  5 :  -0.3333 0.3333 0.0000  plane waves:   84019
 k-point  6 :   0.0000 0.0000 0.3333  plane waves:   83960
 k-point  7 :   0.3333 0.0000 0.3333  plane waves:   83937
 k-point  8 :  -0.3333 0.0000 0.3333  plane waves:   83982
 k-point  9 :   0.0000 0.3333 0.3333  plane waves:   83984
 k-point 10 :   0.3333 0.3333 0.3333  plane waves:   84012
 k-point 11 :  -0.3333 0.3333 0.3333  plane waves:   83970
 k-point 12 :   0.0000-0.3333 0.3333  plane waves:   83977
 k-point 13 :   0.3333-0.3333 0.3333  plane waves:   84013
 k-point 14 :  -0.3333-0.3333 0.3333  plane waves:   83973

 maximum and minimum number of plane-waves per node :     28039    27934

 maximum number of plane-waves:     84019
 maximum index in each direction: 
   IXMAX=   27   IYMAX=   27   IZMAX=   27
   IXMIN=  -27   IYMIN=  -27   IZMIN=  -27

 NGX is ok and might be reduce to 110
 WARNING: aliasing errors must be expected set NGY to 110 to avoid them
 NGZ is ok and might be reduce to 110
 aliasing errors are usually negligible using standard VASP settings
 and one can safely disregard these warnings

 parallel 3D FFT for wavefunctions:
    minimum data exchange during FFTs selected (reduces bandwidth)
 parallel 3D FFT for charge:
    minimum data exchange during FFTs selected (reduces bandwidth)


 total amount of memory used by VASP on root node   697522. kBytes
========================================================================

   base      :      30000. kBytes
   nonl-proj :     325712. kBytes
   fftplans  :      80881. kBytes
   grid      :      57435. kBytes
   one-center:        497. kBytes
   wavefun   :     202997. kBytes
 
     INWAV:  cpu time    0.0000: real time    0.0000
 Broyden mixing: mesh for mixing (old mesh)
   NGX = 55   NGY = 53   NGZ = 55
  (NGX  =224   NGY  =216   NGZ  =224)
  gives a total of 160325 points

 initial charge density was supplied:
 charge density of overlapping atoms calculated
 number of electron     400.0000000 magnetization 
 keeping initial charge density in first step


--------------------------------------------------------------------------------------------------------


 Maximum index for augmentation-charges        14499 (set IRDMAX)


--------------------------------------------------------------------------------------------------------


 First call to EWALD:  gamma=   0.141
 Maximum number of real-space cells 3x 3x 3
 Maximum number of reciprocal cells 3x 3x 3

 FEWALD executed in parallel
    FEWALD:  cpu time    0.0040: real time    0.0039


----------------------------------------- Iteration    1(   1)  ---------------------------------------


    POTLOK:  cpu time    0.4440: real time    0.4451
    SETDIJ:  cpu time    0.7520: real time    0.7544
     EDDAV:  cpu time  248.7355: real time  248.8954
       DOS:  cpu time    0.0000: real time    0.0005
    --------------------------------------------
      LOOP:  cpu time  249.9356: real time  250.1288

 eigenvalue-minimisations  :  7176
 total energy-change (2. order) : 0.3601024E+04  (-0.1894678E+05)
 number of electron     400.0000000 magnetization 
 augmentation part      400.0000000 magnetization 

 Free energy of the ion-electron system (eV)
  ---------------------------------------------------
  alpha Z        PSCENC =       370.05370877
  Ewald energy   TEWEN  =    -15523.84955249
  -Hartree energ DENC   =     -8125.05780859
  -exchange      EXHF   =         0.00000000
  -V(xc)+E(xc)   XCENC  =       389.91273002
  PAW double counting   =     20601.23165652   -19855.90553853
  entropy T*S    EENTRO =        -0.00000000
  eigenvalues    EBANDS =       995.63163752
  atomic energy  EATOM  =     24749.00668030
  Solvation  Ediel_sol  =         0.00000000
  ---------------------------------------------------
  free energy    TOTEN  =      3601.02351351 eV

  energy without entropy =     3601.02351351  energy(sigma->0) =     3601.02351351


--------------------------------------------------------------------------------------------------------




----------------------------------------- Iteration    1(   2)  ---------------------------------------


     EDDAV:  cpu time  271.4490: real time  271.6257
       DOS:  cpu time    0.0000: real time    0.0004
    --------------------------------------------
      LOOP:  cpu time  271.4530: real time  271.6313

 eigenvalue-minimisations  :  8008
 total energy-change (2. order) :-0.3400910E+04  (-0.3202068E+04)
 number of electron     400.0000000 magnetization 
 augmentation part      400.0000000 magnetization 

 Free energy of the ion-electron system (eV)
  ---------------------------------------------------
  alpha Z        PSCENC =       370.05370877
  Ewald energy   TEWEN  =    -15523.84955249
  -Hartree energ DENC   =     -8125.05780859
  -exchange      EXHF   =         0.00000000
  -V(xc)+E(xc)   XCENC  =       389.91273002
  PAW double counting   =     20601.23165652   -19855.90553853
  entropy T*S    EENTRO =        -0.00000000
  eigenvalues    EBANDS =     -2405.27866161
  atomic energy  EATOM  =     24749.00668030
  Solvation  Ediel_sol  =         0.00000000
  ---------------------------------------------------
  free energy    TOTEN  =       200.11321439 eV

  energy without entropy =      200.11321439  energy(sigma->0) =      200.11321439


--------------------------------------------------------------------------------------------------------




----------------------------------------- Iteration    1(   3)  ---------------------------------------


     EDDAV:  cpu time  309.9194: real time  310.1235
       DOS:  cpu time    0.0000: real time    0.0004
    --------------------------------------------
      LOOP:  cpu time  309.9234: real time  310.1706

 eigenvalue-minimisations  :  9464
 total energy-change (2. order) :-0.5985488E+03  (-0.5897656E+03)
 number of electron     400.0000000 magnetization 
 augmentation part      400.0000000 magnetization 

 Free energy of the ion-electron system (eV)
  ---------------------------------------------------
  alpha Z        PSCENC =       370.05370877
  Ewald energy   TEWEN  =    -15523.84955249
  -Hartree energ DENC   =     -8125.05780859
  -exchange      EXHF   =         0.00000000
  -V(xc)+E(xc)   XCENC  =       389.91273002
  PAW double counting   =     20601.23165652   -19855.90553853
  entropy T*S    EENTRO =         0.00000000
  eigenvalues    EBANDS =     -3003.82743910
  atomic energy  EATOM  =     24749.00668030
  Solvation  Ediel_sol  =         0.00000000
  ---------------------------------------------------
  free energy    TOTEN  =      -398.43556311 eV

  energy without entropy =     -398.43556311  energy(sigma->0) =     -398.43556311


--------------------------------------------------------------------------------------------------------




----------------------------------------- Iteration    1(   4)  ---------------------------------------


     EDDAV:  cpu time  314.7917: real time  314.9981
       DOS:  cpu time    0.0000: real time    0.0003
    --------------------------------------------
      LOOP:  cpu time  314.7957: real time  315.1059

 eigenvalue-minimisations  :  9648
 total energy-change (2. order) :-0.4017699E+02  (-0.4000723E+02)
 number of electron     400.0000000 magnetization 
 augmentation part      400.0000000 magnetization 

 Free energy of the ion-electron system (eV)
  ---------------------------------------------------
  alpha Z        PSCENC =       370.05370877
  Ewald energy   TEWEN  =    -15523.84955249
  -Hartree energ DENC   =     -8125.05780859
  -exchange      EXHF   =         0.00000000
  -V(xc)+E(xc)   XCENC  =       389.91273002
  PAW double counting   =     20601.23165652   -19855.90553853
  entropy T*S    EENTRO =         0.00000000
  eigenvalues    EBANDS =     -3044.00443281
  atomic energy  EATOM  =     24749.00668030
  Solvation  Ediel_sol  =         0.00000000
  ---------------------------------------------------
  free energy    TOTEN  =      -438.61255681 eV

  energy without entropy =     -438.61255681  energy(sigma->0) =     -438.61255681


--------------------------------------------------------------------------------------------------------




----------------------------------------- Iteration    1(   5)  ---------------------------------------


     EDDAV:  cpu time  318.3839: real time  318.5915
       DOS:  cpu time    0.0040: real time    0.0004
    CHARGE:  cpu time    9.1806: real time    9.1891
    MIXING:  cpu time    0.0160: real time    0.0136
    --------------------------------------------
      LOOP:  cpu time  327.5885: real time  327.8128

 eigenvalue-minimisations  :  9784
 total energy-change (2. order) :-0.1502445E+01  (-0.1500215E+01)
 number of electron     400.0000000 magnetization 
 augmentation part        7.5641166 magnetization 

 Broyden mixing:
  rms(total) = 0.29621E+01    rms(broyden)= 0.29620E+01
  rms(prec ) = 0.35132E+01
  weight for this iteration     100.00

 Free energy of the ion-electron system (eV)
  ---------------------------------------------------
  alpha Z        PSCENC =       370.05370877
  Ewald energy   TEWEN  =    -15523.84955249
  -Hartree energ DENC   =     -8125.05780859
  -exchange      EXHF   =         0.00000000
  -V(xc)+E(xc)   XCENC  =       389.91273002
  PAW double counting   =     20601.23165652   -19855.90553853
  entropy T*S    EENTRO =         0.00000000
  eigenvalues    EBANDS =     -3045.50687734
  atomic energy  EATOM  =     24749.00668030
  Solvation  Ediel_sol  =         0.00000000
  ---------------------------------------------------
  free energy    TOTEN  =      -440.11500134 eV

  energy without entropy =     -440.11500134  energy(sigma->0) =     -440.11500134


--------------------------------------------------------------------------------------------------------




----------------------------------------- Iteration    1(   6)  ---------------------------------------


    POTLOK:  cpu time    0.4440: real time    0.4425
    SETDIJ:  cpu time    0.7560: real time    0.7580
     EDDAV:  cpu time  312.3075: real time  312.5070
       DOS:  cpu time    0.0000: real time    0.0008
    CHARGE:  cpu time    9.1886: real time    9.1929
    MIXING:  cpu time    0.0120: real time    0.0133
    --------------------------------------------
      LOOP:  cpu time  322.7082: real time  322.9583

 eigenvalue-minimisations  :  9584
 total energy-change (2. order) : 0.2055800E+02  (-0.4152897E+01)
 number of electron     400.0000000 magnetization 
 augmentation part        7.8738332 magnetization 

 Broyden mixing:
  rms(total) = 0.15689E+01    rms(broyden)= 0.15689E+01
  rms(prec ) = 0.17465E+01
  weight for this iteration     100.00

 eigenvalues of (default mixing * dielectric matrix)
  average eigenvalue GAMMA=   1.5483
  1.5483

 Free energy of the ion-electron system (eV)
  ---------------------------------------------------
  alpha Z        PSCENC =       370.05370877
  Ewald energy   TEWEN  =    -15523.84955249
  -Hartree energ DENC   =     -8297.30609747
  -exchange      EXHF   =         0.00000000
  -V(xc)+E(xc)   XCENC  =       404.09642866
  PAW double counting   =     23053.43940303   -22306.19372616
  entropy T*S    EENTRO =         0.00000000
  eigenvalues    EBANDS =     -2868.80384151
  atomic energy  EATOM  =     24749.00668030
  Solvation  Ediel_sol  =         0.00000000
  ---------------------------------------------------
  free energy    TOTEN  =      -419.55699688 eV

  energy without entropy =     -419.55699688  energy(sigma->0) =     -419.55699688


--------------------------------------------------------------------------------------------------------




----------------------------------------- Iteration    1(   7)  ---------------------------------------


    POTLOK:  cpu time    0.4400: real time    0.4418
    SETDIJ:  cpu time    0.7600: real time    0.7598
     EDDAV:  cpu time  328.3005: real time  328.5146
       DOS:  cpu time    0.0000: real time    0.0007
    CHARGE:  cpu time    9.1846: real time    9.1928
    MIXING:  cpu time    0.0160: real time    0.0134
    --------------------------------------------
      LOOP:  cpu time  338.7092: real time  338.9670

 eigenvalue-minimisations  : 10192
 total energy-change (2. order) : 0.2469467E+01  (-0.1464816E+01)
 number of electron     400.0000000 magnetization 
 augmentation part        8.0061077 magnetization 

 Broyden mixing:
  rms(total) = 0.78338E+00    rms(broyden)= 0.78336E+00
  rms(prec ) = 0.83545E+00
  weight for this iteration     100.00

 eigenvalues of (default mixing * dielectric matrix)
  average eigenvalue GAMMA=   1.9296
  1.4519  2.4074

 Free energy of the ion-electron system (eV)
  ---------------------------------------------------
  alpha Z        PSCENC =       370.05370877
  Ewald energy   TEWEN  =    -15523.84955249
  -Hartree energ DENC   =     -8386.14671277
  -exchange      EXHF   =         0.00000000
  -V(xc)+E(xc)   XCENC  =       413.61826607
  PAW double counting   =     26147.60504806   -25399.28056194
  entropy T*S    EENTRO =        -0.00000000
  eigenvalues    EBANDS =     -2788.09440605
  atomic energy  EATOM  =     24749.00668030
  Solvation  Ediel_sol  =         0.00000000
  ---------------------------------------------------
  free energy    TOTEN  =      -417.08753005 eV

  energy without entropy =     -417.08753005  energy(sigma->0) =     -417.08753005


--------------------------------------------------------------------------------------------------------




----------------------------------------- Iteration    1(   8)  ---------------------------------------


    POTLOK:  cpu time    0.4440: real time    0.4417
    SETDIJ:  cpu time    0.7560: real time    0.7600
     EDDAV:  cpu time  287.8980: real time  288.0801
       DOS:  cpu time    0.0000: real time    0.0007
    CHARGE:  cpu time    9.1846: real time    9.1915
    MIXING:  cpu time    0.0160: real time    0.0136
    --------------------------------------------
      LOOP:  cpu time  298.2986: real time  298.5335

 eigenvalue-minimisations  :  8656
 total energy-change (2. order) : 0.1708635E+00  (-0.3063077E+00)
 number of electron     400.0000000 magnetization 
 augmentation part        7.9376176 magnetization 

 Broyden mixing:
  rms(total) = 0.18347E+00    rms(broyden)= 0.18346E+00
  rms(prec ) = 0.22279E+00
  weight for this iteration     100.00

 eigenvalues of (default mixing * dielectric matrix)
  average eigenvalue GAMMA=   1.6346
  2.3814  1.2612  1.2612

 Free energy of the ion-electron system (eV)
  ---------------------------------------------------
  alpha Z        PSCENC =       370.05370877
  Ewald energy   TEWEN  =    -15523.84955249
  -Hartree energ DENC   =     -8394.30117406
  -exchange      EXHF   =         0.00000000
  -V(xc)+E(xc)   XCENC  =       416.85344565
  PAW double counting   =     28617.13751783   -27869.83466910
  entropy T*S    EENTRO =         0.00000000
  eigenvalues    EBANDS =     -2781.98262340
  atomic energy  EATOM  =     24749.00668030
  Solvation  Ediel_sol  =         0.00000000
  ---------------------------------------------------
  free energy    TOTEN  =      -416.91666650 eV

  energy without entropy =     -416.91666650  energy(sigma->0) =     -416.91666650


--------------------------------------------------------------------------------------------------------




----------------------------------------- Iteration    1(   9)  ---------------------------------------


    POTLOK:  cpu time    0.4440: real time    0.4424
    SETDIJ:  cpu time    0.7560: real time    0.7598
     EDDAV:  cpu time  304.7710: real time  304.9669
       DOS:  cpu time    0.0000: real time    0.0004
    CHARGE:  cpu time    9.1886: real time    9.1946
    MIXING:  cpu time    0.0120: real time    0.0138
    --------------------------------------------
      LOOP:  cpu time  315.1717: real time  315.4244

 eigenvalue-minimisations  :  9296
 total energy-change (2. order) : 0.7412766E-01  (-0.7532249E-01)
 number of electron     400.0000000 magnetization 
 augmentation part        7.9485170 magnetization 

 Broyden mixing:
  rms(total) = 0.72220E-01    rms(broyden)= 0.72212E-01
  rms(prec ) = 0.81174E-01
  weight for this iteration     100.00

 eigenvalues of (default mixing * dielectric matrix)
  average eigenvalue GAMMA=   1.5398
  2.3309  1.0590  1.4078  1.3614

 Free energy of the ion-electron system (eV)
  ---------------------------------------------------
  alpha Z        PSCENC =       370.05370877
  Ewald energy   TEWEN  =    -15523.84955249
  -Hartree energ DENC   =     -8412.34304973
  -exchange      EXHF   =         0.00000000
  -V(xc)+E(xc)   XCENC  =       417.92063198
  PAW double counting   =     28628.67770518   -27881.45449737
  entropy T*S    EENTRO =         0.00000000
  eigenvalues    EBANDS =     -2764.85416548
  atomic energy  EATOM  =     24749.00668030
  Solvation  Ediel_sol  =         0.00000000
  ---------------------------------------------------
  free energy    TOTEN  =      -416.84253884 eV

  energy without entropy =     -416.84253884  energy(sigma->0) =     -416.84253884


--------------------------------------------------------------------------------------------------------




----------------------------------------- Iteration    1(  10)  ---------------------------------------


    POTLOK:  cpu time    0.4400: real time    0.4424
    SETDIJ:  cpu time    0.7600: real time    0.7590
     EDDAV:  cpu time  297.2226: real time  297.4122
       DOS:  cpu time    0.0000: real time    0.0007
    CHARGE:  cpu time    9.1926: real time    9.1965
    MIXING:  cpu time    0.0120: real time    0.0141
    --------------------------------------------
      LOOP:  cpu time  307.6312: real time  309.9759

 eigenvalue-minimisations  :  9008
 total energy-change (2. order) :-0.1244437E-01  (-0.1145824E-01)
 number of electron     400.0000000 magnetization 
 augmentation part        7.9249772 magnetization 

 Broyden mixing:
  rms(total) = 0.47530E-01    rms(broyden)= 0.47528E-01
  rms(prec ) = 0.54767E-01
  weight for this iteration     100.00

 eigenvalues of (default mixing * dielectric matrix)
  average eigenvalue GAMMA=   1.4579
  2.3798  1.9394  1.0633  1.0633  0.8435

 Free energy of the ion-electron system (eV)
  ---------------------------------------------------
  alpha Z        PSCENC =       370.05370877
  Ewald energy   TEWEN  =    -15523.84955249
  -Hartree energ DENC   =     -8413.29059944
  -exchange      EXHF   =         0.00000000
  -V(xc)+E(xc)   XCENC  =       418.02524485
  PAW double counting   =     28669.35478389   -27922.36649238
  entropy T*S    EENTRO =         0.00000000
  eigenvalues    EBANDS =     -2763.78875672
  atomic energy  EATOM  =     24749.00668030
  Solvation  Ediel_sol  =         0.00000000
  ---------------------------------------------------
  free energy    TOTEN  =      -416.85498322 eV

  energy without entropy =     -416.85498322  energy(sigma->0) =     -416.85498322


--------------------------------------------------------------------------------------------------------




----------------------------------------- Iteration    1(  11)  ---------------------------------------


    POTLOK:  cpu time    0.4400: real time    0.4404
    SETDIJ:  cpu time    0.7600: real time    0.7605
     EDDAV:  cpu time  317.9399: real time  318.1448
       DOS:  cpu time    0.0000: real time    0.0005
    CHARGE:  cpu time    9.1926: real time    9.1976
    MIXING:  cpu time    0.0120: real time    0.0143
    --------------------------------------------
      LOOP:  cpu time  328.3485: real time  328.6018

 eigenvalue-minimisations  :  9800
 total energy-change (2. order) : 0.3113644E-03  (-0.1485930E-02)
 number of electron     400.0000000 magnetization 
 augmentation part        7.9256616 magnetization 

 Broyden mixing:
  rms(total) = 0.19930E-01    rms(broyden)= 0.19930E-01
  rms(prec ) = 0.23708E-01
  weight for this iteration     100.00

 eigenvalues of (default mixing * dielectric matrix)
  average eigenvalue GAMMA=   1.5224
  2.4581  1.9896  1.4986  1.1106  1.0387  1.0387

 Free energy of the ion-electron system (eV)
  ---------------------------------------------------
  alpha Z        PSCENC =       370.05370877
  Ewald energy   TEWEN  =    -15523.84955249
  -Hartree energ DENC   =     -8412.45322358
  -exchange      EXHF   =         0.00000000
  -V(xc)+E(xc)   XCENC  =       418.03765744
  PAW double counting   =     28704.99201737   -27958.08285286
  entropy T*S    EENTRO =        -0.00000000
  eigenvalues    EBANDS =     -2764.55910680
  atomic energy  EATOM  =     24749.00668030
  Solvation  Ediel_sol  =         0.00000000
  ---------------------------------------------------
  free energy    TOTEN  =      -416.85467185 eV

  energy without entropy =     -416.85467185  energy(sigma->0) =     -416.85467185


--------------------------------------------------------------------------------------------------------




----------------------------------------- Iteration    1(  12)  ---------------------------------------


    POTLOK:  cpu time    0.4400: real time    0.4417
    SETDIJ:  cpu time    0.7600: real time    0.7606
     EDDAV:  cpu time  317.0478: real time  317.2515
       DOS:  cpu time    0.0000: real time    0.0006
    CHARGE:  cpu time    9.1886: real time    9.1957
    MIXING:  cpu time    0.0160: real time    0.0146
    --------------------------------------------
      LOOP:  cpu time  327.4565: real time  327.6893

 eigenvalue-minimisations  :  9768
 total energy-change (2. order) :-0.1361311E-02  (-0.8776824E-03)
 number of electron     400.0000000 magnetization 
 augmentation part        7.9366319 magnetization 

 Broyden mixing:
  rms(total) = 0.10097E-01    rms(broyden)= 0.10097E-01
  rms(prec ) = 0.12029E-01
  weight for this iteration     100.00

 eigenvalues of (default mixing * dielectric matrix)
  average eigenvalue GAMMA=   1.4706
  2.5598  2.3240  1.3069  1.3069  0.9397  0.9286  0.9286

 Free energy of the ion-electron system (eV)
  ---------------------------------------------------
  alpha Z        PSCENC =       370.05370877
  Ewald energy   TEWEN  =    -15523.84955249
  -Hartree energ DENC   =     -8412.93983258
  -exchange      EXHF   =         0.00000000
  -V(xc)+E(xc)   XCENC  =       418.10181626
  PAW double counting   =     28696.69516341   -27949.81072777
  entropy T*S    EENTRO =         0.00000000
  eigenvalues    EBANDS =     -2764.11328906
  atomic energy  EATOM  =     24749.00668030
  Solvation  Ediel_sol  =         0.00000000
  ---------------------------------------------------
  free energy    TOTEN  =      -416.85603316 eV

  energy without entropy =     -416.85603316  energy(sigma->0) =     -416.85603316


--------------------------------------------------------------------------------------------------------




----------------------------------------- Iteration    1(  13)  ---------------------------------------


    POTLOK:  cpu time    0.4440: real time    0.4421
    SETDIJ:  cpu time    0.7560: real time    0.7592
     EDDAV:  cpu time  283.8017: real time  283.9840
       DOS:  cpu time    0.0000: real time    0.0004
    CHARGE:  cpu time    9.1886: real time    9.1962
    MIXING:  cpu time    0.0160: real time    0.0149
    --------------------------------------------
      LOOP:  cpu time  294.2104: real time  304.7657

 eigenvalue-minimisations  :  8504
 total energy-change (2. order) :-0.1821634E-03  (-0.1212374E-03)
 number of electron     400.0000000 magnetization 
 augmentation part        7.9352993 magnetization 

 Broyden mixing:
  rms(total) = 0.71927E-02    rms(broyden)= 0.71924E-02
  rms(prec ) = 0.82330E-02
  weight for this iteration     100.00

 eigenvalues of (default mixing * dielectric matrix)
  average eigenvalue GAMMA=   1.4508
  2.5995  2.3539  1.5621  1.1254  0.9906  0.9906  0.9922  0.9922

 Free energy of the ion-electron system (eV)
  ---------------------------------------------------
  alpha Z        PSCENC =       370.05370877
  Ewald energy   TEWEN  =    -15523.84955249
  -Hartree energ DENC   =     -8413.18492578
  -exchange      EXHF   =         0.00000000
  -V(xc)+E(xc)   XCENC  =       418.12306952
  PAW double counting   =     28694.27740911   -27947.40368230
  entropy T*S    EENTRO =         0.00000000
  eigenvalues    EBANDS =     -2763.87892246
  atomic energy  EATOM  =     24749.00668030
  Solvation  Ediel_sol  =         0.00000000
  ---------------------------------------------------
  free energy    TOTEN  =      -416.85621533 eV

  energy without entropy =     -416.85621533  energy(sigma->0) =     -416.85621533


--------------------------------------------------------------------------------------------------------




----------------------------------------- Iteration    1(  14)  ---------------------------------------


    POTLOK:  cpu time    0.4400: real time    0.4416
    SETDIJ:  cpu time    0.7640: real time    0.7609
     EDDAV:  cpu time  281.3016: real time  281.4848
       DOS:  cpu time    0.0000: real time    0.0005
    CHARGE:  cpu time    9.1926: real time    9.1977
    MIXING:  cpu time    0.0160: real time    0.0152
    --------------------------------------------
      LOOP:  cpu time  291.7142: real time  291.9261

 eigenvalue-minimisations  :  8408
 total energy-change (2. order) :-0.4034962E-04  (-0.2655902E-04)
 number of electron     400.0000000 magnetization 
 augmentation part        7.9355885 magnetization 

 Broyden mixing:
  rms(total) = 0.32201E-02    rms(broyden)= 0.32200E-02
  rms(prec ) = 0.37213E-02
  weight for this iteration     100.00

 eigenvalues of (default mixing * dielectric matrix)
  average eigenvalue GAMMA=   1.5441
  2.7582  2.7582  1.9336  1.3121  1.0542  1.0542  0.9332  1.0466  1.0466

 Free energy of the ion-electron system (eV)
  ---------------------------------------------------
  alpha Z        PSCENC =       370.05370877
  Ewald energy   TEWEN  =    -15523.84955249
  -Hartree energ DENC   =     -8413.53919298
  -exchange      EXHF   =         0.00000000
  -V(xc)+E(xc)   XCENC  =       418.14650605
  PAW double counting   =     28689.71337412   -27942.82763485
  entropy T*S    EENTRO =        -0.00000000
  eigenvalues    EBANDS =     -2763.56014460
  atomic energy  EATOM  =     24749.00668030
  Solvation  Ediel_sol  =         0.00000000
  ---------------------------------------------------
  free energy    TOTEN  =      -416.85625568 eV

  energy without entropy =     -416.85625568  energy(sigma->0) =     -416.85625568


--------------------------------------------------------------------------------------------------------




----------------------------------------- Iteration    1(  15)  ---------------------------------------


    POTLOK:  cpu time    0.4400: real time    0.4419
    SETDIJ:  cpu time    0.7600: real time    0.7602
     EDDAV:  cpu time  276.4053: real time  276.5852
       DOS:  cpu time    0.0040: real time    0.0005
    CHARGE:  cpu time    9.1886: real time    9.1973
    MIXING:  cpu time    0.0160: real time    0.0155
    --------------------------------------------
      LOOP:  cpu time  286.8139: real time  287.0302

 eigenvalue-minimisations  :  8224
 total energy-change (2. order) :-0.4276074E-04  (-0.1492681E-04)
 number of electron     400.0000000 magnetization 
 augmentation part        7.9353373 magnetization 

 Broyden mixing:
  rms(total) = 0.11940E-02    rms(broyden)= 0.11938E-02
  rms(prec ) = 0.13548E-02
  weight for this iteration     100.00

 eigenvalues of (default mixing * dielectric matrix)
  average eigenvalue GAMMA=   1.5015
  3.0041  2.4103  2.0591  1.5387  1.0337  1.0337  1.0545  1.0545  0.9378  0.8890

 Free energy of the ion-electron system (eV)
  ---------------------------------------------------
  alpha Z        PSCENC =       370.05370877
  Ewald energy   TEWEN  =    -15523.84955249
  -Hartree energ DENC   =     -8413.81387006
  -exchange      EXHF   =         0.00000000
  -V(xc)+E(xc)   XCENC  =       418.16331511
  PAW double counting   =     28683.52268297   -27936.62053252
  entropy T*S    EENTRO =        -0.00000000
  eigenvalues    EBANDS =     -2763.31873052
  atomic energy  EATOM  =     24749.00668030
  Solvation  Ediel_sol  =         0.00000000
  ---------------------------------------------------
  free energy    TOTEN  =      -416.85629844 eV

  energy without entropy =     -416.85629844  energy(sigma->0) =     -416.85629844


--------------------------------------------------------------------------------------------------------




----------------------------------------- Iteration    1(  16)  ---------------------------------------


    POTLOK:  cpu time    0.4400: real time    0.4409
    SETDIJ:  cpu time    0.7600: real time    0.7622
     EDDAV:  cpu time  331.5567: real time  331.7709
       DOS:  cpu time    0.0000: real time    0.0008
    CHARGE:  cpu time    9.1886: real time    9.1921
    MIXING:  cpu time    0.0160: real time    0.0159
    --------------------------------------------
      LOOP:  cpu time  341.9654: real time  342.2088

 eigenvalue-minimisations  : 10296
 total energy-change (2. order) :-0.3385765E-05  (-0.1235140E-05)
 number of electron     400.0000000 magnetization 
 augmentation part        7.9353141 magnetization 

 Broyden mixing:
  rms(total) = 0.11693E-02    rms(broyden)= 0.11692E-02
  rms(prec ) = 0.13127E-02
  weight for this iteration     100.00

 eigenvalues of (default mixing * dielectric matrix)
  average eigenvalue GAMMA=   1.5048
  3.0334  2.4192  1.9441  1.9441  1.1341  1.1341  1.3273  0.9919  0.9919  0.8167
  0.8167

 Free energy of the ion-electron system (eV)
  ---------------------------------------------------
  alpha Z        PSCENC =       370.05370877
  Ewald energy   TEWEN  =    -15523.84955249
  -Hartree energ DENC   =     -8413.84146598
  -exchange      EXHF   =         0.00000000
  -V(xc)+E(xc)   XCENC  =       418.16667572
  PAW double counting   =     28684.99166838   -27938.08704562
  entropy T*S    EENTRO =        -0.00000000
  eigenvalues    EBANDS =     -2763.29697090
  atomic energy  EATOM  =     24749.00668030
  Solvation  Ediel_sol  =         0.00000000
  ---------------------------------------------------
[...]
   0.919E+01 0.417E-01 0.509E+02   -.930E+01 -.475E-01 -.565E+02   0.111E+00 0.582E-02 0.568E+01   -.393E-05 0.262E-06 0.131E-04
   0.216E+01 0.516E-01 0.527E+02   -.143E+01 -.572E-01 -.582E+02   -.745E+00 0.558E-02 0.563E+01   -.910E-06 -.781E-06 0.335E-05
   0.295E+02 -.391E+02 -.130E+02   -.323E+02 0.437E+02 0.149E+02   0.276E+01 -.463E+01 -.185E+01   0.577E-06 -.110E-04 -.256E-05
   0.313E+02 -.393E+02 -.729E+01   -.342E+02 0.439E+02 0.872E+01   0.297E+01 -.464E+01 -.144E+01   -.158E-05 -.249E-05 0.524E-06
   0.313E+02 -.393E+02 -.729E+01   -.342E+02 0.439E+02 0.872E+01   0.297E+01 -.464E+01 -.144E+01   -.137E-05 -.252E-05 0.475E-08
   0.295E+02 -.391E+02 -.130E+02   -.323E+02 0.437E+02 0.149E+02   0.276E+01 -.463E+01 -.185E+01   -.351E-06 -.113E-04 -.391E-05
   0.313E+02 -.393E+02 -.729E+01   -.342E+02 0.439E+02 0.872E+01   0.297E+01 -.464E+01 -.144E+01   -.199E-05 -.247E-05 0.726E-07
   0.295E+02 -.391E+02 -.130E+02   -.323E+02 0.437E+02 0.149E+02   0.276E+01 -.463E+01 -.185E+01   0.331E-06 -.956E-05 -.292E-05
   0.295E+02 -.391E+02 -.130E+02   -.323E+02 0.437E+02 0.149E+02   0.276E+01 -.463E+01 -.185E+01   0.235E-06 -.110E-04 -.191E-05
   0.313E+02 -.393E+02 -.729E+01   -.342E+02 0.439E+02 0.872E+01   0.297E+01 -.464E+01 -.144E+01   -.169E-05 -.412E-05 0.143E-05
   0.295E+02 0.391E+02 -.131E+02   -.322E+02 -.437E+02 0.149E+02   0.275E+01 0.463E+01 -.186E+01   0.702E-06 0.960E-05 -.248E-05
   0.313E+02 0.393E+02 -.737E+01   -.342E+02 -.439E+02 0.881E+01   0.297E+01 0.464E+01 -.145E+01   -.196E-05 0.272E-05 0.242E-06
   0.313E+02 0.393E+02 -.737E+01   -.342E+02 -.439E+02 0.881E+01   0.297E+01 0.464E+01 -.145E+01   -.155E-05 0.398E-05 -.306E-06
   0.295E+02 0.391E+02 -.131E+02   -.322E+02 -.437E+02 0.149E+02   0.275E+01 0.463E+01 -.186E+01   -.195E-07 0.112E-04 -.375E-05
   0.313E+02 0.393E+02 -.737E+01   -.342E+02 -.439E+02 0.881E+01   0.297E+01 0.464E+01 -.145E+01   -.123E-05 0.239E-05 0.604E-06
   0.295E+02 0.391E+02 -.131E+02   -.322E+02 -.437E+02 0.149E+02   0.275E+01 0.463E+01 -.186E+01   0.544E-06 0.113E-04 -.291E-05
   0.295E+02 0.391E+02 -.131E+02   -.322E+02 -.437E+02 0.149E+02   0.275E+01 0.463E+01 -.186E+01   -.464E-06 0.109E-04 -.222E-05
   0.313E+02 0.393E+02 -.737E+01   -.342E+02 -.439E+02 0.881E+01   0.297E+01 0.464E+01 -.145E+01   -.191E-05 0.240E-05 0.146E-05
   -.317E+02 -.483E+02 0.191E+02   0.351E+02 0.538E+02 -.212E+02   -.344E+01 -.551E+01 0.214E+01   -.101E-05 0.589E-05 -.275E-05
   -.350E+02 -.480E+02 0.156E+02   0.387E+02 0.535E+02 -.172E+02   -.368E+01 -.551E+01 0.162E+01   0.118E-04 0.970E-05 -.246E-05
   -.350E+02 -.480E+02 0.156E+02   0.387E+02 0.535E+02 -.172E+02   -.368E+01 -.551E+01 0.162E+01   0.122E-04 0.102E-04 -.396E-05
   -.317E+02 -.483E+02 0.191E+02   0.351E+02 0.538E+02 -.212E+02   -.344E+01 -.551E+01 0.214E+01   0.150E-06 0.486E-05 -.466E-05
   -.350E+02 -.480E+02 0.156E+02   0.387E+02 0.535E+02 -.172E+02   -.368E+01 -.551E+01 0.162E+01   0.121E-04 0.103E-04 -.376E-05
   -.317E+02 -.483E+02 0.191E+02   0.351E+02 0.538E+02 -.212E+02   -.344E+01 -.551E+01 0.214E+01   0.141E-06 0.745E-05 -.345E-05
   -.317E+02 -.483E+02 0.191E+02   0.351E+02 0.538E+02 -.212E+02   -.344E+01 -.551E+01 0.214E+01   -.121E-05 0.462E-05 -.259E-05
   -.350E+02 -.480E+02 0.156E+02   0.387E+02 0.535E+02 -.172E+02   -.368E+01 -.551E+01 0.162E+01   0.126E-04 0.791E-05 -.202E-05
   -.318E+02 0.482E+02 0.190E+02   0.352E+02 -.537E+02 -.211E+02   -.345E+01 0.551E+01 0.213E+01   -.998E-06 -.753E-05 -.268E-05
   -.350E+02 0.480E+02 0.155E+02   0.387E+02 -.535E+02 -.171E+02   -.368E+01 0.551E+01 0.161E+01   0.123E-04 -.983E-05 -.265E-05
   -.350E+02 0.480E+02 0.155E+02   0.387E+02 -.535E+02 -.171E+02   -.368E+01 0.551E+01 0.161E+01   0.122E-04 -.844E-05 -.411E-05
   -.318E+02 0.482E+02 0.190E+02   0.352E+02 -.537E+02 -.211E+02   -.345E+01 0.551E+01 0.213E+01   -.306E-06 -.463E-05 -.463E-05
   -.350E+02 0.480E+02 0.155E+02   0.387E+02 -.535E+02 -.171E+02   -.368E+01 0.551E+01 0.161E+01   0.108E-04 -.927E-05 -.320E-05
   -.318E+02 0.482E+02 0.190E+02   0.352E+02 -.537E+02 -.211E+02   -.345E+01 0.551E+01 0.213E+01   -.460E-06 -.478E-05 -.343E-05
   -.318E+02 0.482E+02 0.190E+02   0.352E+02 -.537E+02 -.211E+02   -.345E+01 0.551E+01 0.213E+01   -.608E-07 -.594E-05 -.270E-05
   -.350E+02 0.480E+02 0.155E+02   0.387E+02 -.535E+02 -.171E+02   -.368E+01 0.551E+01 0.161E+01   0.132E-04 -.106E-04 -.212E-05
   -.915E+00 -.632E-01 -.622E+02   0.143E+01 0.688E-01 0.689E+02   -.550E+00 -.549E-02 -.679E+01   -.426E-05 -.746E-06 0.600E-05
   0.796E+01 -.795E-01 -.651E+02   -.855E+01 0.891E-01 0.720E+02   0.580E+00 -.953E-02 -.704E+01   0.830E-06 0.581E-06 0.124E-04
   0.796E+01 -.795E-01 -.651E+02   -.855E+01 0.891E-01 0.720E+02   0.580E+00 -.953E-02 -.704E+01   0.653E-06 0.110E-05 0.124E-04
   -.915E+00 -.632E-01 -.622E+02   0.143E+01 0.688E-01 0.689E+02   -.550E+00 -.549E-02 -.679E+01   -.356E-05 -.254E-06 0.445E-05
   0.796E+01 -.795E-01 -.651E+02   -.855E+01 0.891E-01 0.720E+02   0.580E+00 -.953E-02 -.704E+01   -.553E-06 -.810E-06 0.110E-04
   -.915E+00 -.632E-01 -.622E+02   0.143E+01 0.688E-01 0.689E+02   -.550E+00 -.549E-02 -.679E+01   -.487E-05 0.852E-06 0.264E-05
   -.915E+00 -.632E-01 -.622E+02   0.143E+01 0.688E-01 0.689E+02   -.550E+00 -.549E-02 -.679E+01   -.349E-05 0.181E-06 0.679E-05
   0.796E+01 -.795E-01 -.651E+02   -.855E+01 0.891E-01 0.720E+02   0.580E+00 -.953E-02 -.704E+01   0.168E-05 -.839E-06 0.134E-04
   -.310E+02 0.469E+01 -.115E+02   0.298E+02 -.466E+01 0.112E+02   0.111E+01 -.341E-01 0.280E+00   0.799E-05 0.980E-05 0.823E-05
   -.310E+02 -.456E+01 -.115E+02   0.298E+02 0.452E+01 0.112E+02   0.111E+01 0.441E-01 0.281E+00   0.116E-04 0.115E-04 0.158E-04
   -.310E+02 -.456E+01 -.115E+02   0.298E+02 0.452E+01 0.112E+02   0.111E+01 0.441E-01 0.281E+00   -.207E-04 -.113E-04 -.217E-04
   -.310E+02 0.470E+01 -.115E+02   0.298E+02 -.466E+01 0.112E+02   0.111E+01 -.341E-01 0.280E+00   0.445E-04 -.132E-04 -.117E-04
   -.310E+02 -.456E+01 -.115E+02   0.298E+02 0.452E+01 0.112E+02   0.111E+01 0.441E-01 0.281E+00   0.176E-04 0.529E-04 -.210E-04
   -.310E+02 0.469E+01 -.115E+02   0.298E+02 -.466E+01 0.112E+02   0.111E+01 -.341E-01 0.280E+00   0.104E-05 0.529E-04 -.296E-04
   -.310E+02 0.470E+01 -.115E+02   0.298E+02 -.466E+01 0.112E+02   0.111E+01 -.341E-01 0.280E+00   -.882E-05 -.501E-04 0.333E-05
   -.310E+02 -.456E+01 -.115E+02   0.298E+02 0.452E+01 0.112E+02   0.111E+01 0.441E-01 0.281E+00   0.367E-04 -.503E-04 -.762E-05
   -.172E+02 -.206E+01 0.554E+01   0.173E+02 0.211E+01 -.548E+01   -.153E+00 -.454E-01 -.652E-01   0.121E-04 0.176E-04 -.359E-05
   -.173E+02 0.214E+01 0.553E+01   0.174E+02 -.219E+01 -.547E+01   -.155E+00 0.465E-01 -.653E-01   0.125E-04 0.220E-05 -.245E-05
   -.173E+02 0.214E+01 0.553E+01   0.174E+02 -.219E+01 -.547E+01   -.155E+00 0.465E-01 -.653E-01   0.554E-05 -.178E-04 -.109E-05
   -.172E+02 -.206E+01 0.554E+01   0.173E+02 0.211E+01 -.548E+01   -.153E+00 -.454E-01 -.652E-01   0.190E-04 -.238E-05 -.286E-06
   -.173E+02 0.214E+01 0.553E+01   0.174E+02 -.219E+01 -.547E+01   -.155E+00 0.465E-01 -.653E-01   0.133E-04 -.975E-06 0.951E-05
   -.172E+02 -.206E+01 0.554E+01   0.173E+02 0.211E+01 -.548E+01   -.153E+00 -.454E-01 -.652E-01   0.125E-04 0.146E-04 0.953E-05
   -.172E+02 -.206E+01 0.554E+01   0.173E+02 0.211E+01 -.548E+01   -.153E+00 -.454E-01 -.652E-01   0.528E-05 0.118E-05 0.933E-05
   -.173E+02 0.214E+01 0.553E+01   0.174E+02 -.219E+01 -.547E+01   -.155E+00 0.465E-01 -.653E-01   0.181E-04 -.147E-04 0.786E-05
   -.284E+02 -.533E-01 -.133E+02   0.285E+02 0.546E-01 0.138E+02   -.910E-01 -.966E-03 -.512E+00   0.355E-05 0.940E-06 -.128E-04
   0.807E-01 -.540E-01 -.177E+02   -.343E+00 0.553E-01 0.184E+02   0.249E+00 -.995E-03 -.739E+00   0.258E-04 0.251E-05 -.408E-05
   0.806E-01 -.540E-01 -.177E+02   -.343E+00 0.553E-01 0.184E+02   0.249E+00 -.995E-03 -.739E+00   0.224E-04 -.664E-06 0.872E-06
   -.284E+02 -.533E-01 -.133E+02   0.285E+02 0.546E-01 0.138E+02   -.910E-01 -.966E-03 -.512E+00   0.843E-05 -.223E-05 -.132E-04
   0.807E-01 -.540E-01 -.177E+02   -.343E+00 0.553E-01 0.184E+02   0.249E+00 -.995E-03 -.739E+00   0.180E-04 0.664E-06 0.431E-05
   -.284E+02 -.533E-01 -.133E+02   0.285E+02 0.546E-01 0.138E+02   -.910E-01 -.966E-03 -.512E+00   0.104E-04 0.162E-05 -.641E-05
   -.284E+02 -.533E-01 -.133E+02   0.285E+02 0.546E-01 0.138E+02   -.910E-01 -.966E-03 -.512E+00   0.211E-05 -.101E-05 -.881E-05
   0.806E-01 -.540E-01 -.177E+02   -.343E+00 0.553E-01 0.184E+02   0.249E+00 -.995E-03 -.739E+00   0.268E-04 -.210E-05 0.484E-05
   0.416E+01 0.757E+00 -.351E+01   -.362E+01 -.657E+00 0.310E+01   -.542E+00 -.822E-01 0.426E+00   -.414E-05 -.161E-05 0.255E-05
   0.416E+01 -.744E+00 -.355E+01   -.363E+01 0.645E+00 0.314E+01   -.543E+00 0.808E-01 0.426E+00   -.338E-05 0.106E-04 0.266E-05
   0.416E+01 -.744E+00 -.355E+01   -.363E+01 0.645E+00 0.314E+01   -.543E+00 0.808E-01 0.426E+00   -.334E-05 0.207E-05 -.223E-05
   0.416E+01 0.757E+00 -.351E+01   -.362E+01 -.657E+00 0.310E+01   -.542E+00 -.822E-01 0.426E+00   -.461E-05 -.103E-04 -.154E-05
   0.416E+01 -.744E+00 -.355E+01   -.363E+01 0.645E+00 0.314E+01   -.543E+00 0.808E-01 0.426E+00   -.534E-05 0.183E-04 -.294E-05
   0.416E+01 0.757E+00 -.351E+01   -.362E+01 -.657E+00 0.310E+01   -.542E+00 -.822E-01 0.426E+00   -.515E-05 0.476E-05 -.340E-05
   0.416E+01 0.757E+00 -.351E+01   -.362E+01 -.657E+00 0.310E+01   -.542E+00 -.822E-01 0.426E+00   -.339E-05 -.180E-04 0.874E-06
   0.416E+01 -.744E+00 -.355E+01   -.363E+01 0.645E+00 0.314E+01   -.543E+00 0.808E-01 0.426E+00   -.593E-05 -.574E-05 0.138E-05
 -----------------------------------------------------------------------------------------------
   -.537E+02 -.104E+00 -.231E+02   0.144E-12 0.172E-12 0.551E-13   0.537E+02 0.104E+00 0.231E+02   -.132E-03 0.179E-05 -.135E-03
 
 
 POSITION                                       TOTAL-FORCE (eV/Angst)
 -----------------------------------------------------------------------------------
      2.51514      3.11322      2.94271         0.062423     -0.000231     -0.027043
      8.79283      3.11502      3.01663         0.068012     -0.000248     -0.015444
      2.50501      9.34283      2.94716         0.068012     -0.000248     -0.015444
      8.80416      9.34295      3.01143         0.062423     -0.000231     -0.027043
      2.57411      3.11410      9.32124         0.068012     -0.000248     -0.015444
      8.87327      3.11422      9.38552         0.062423     -0.000231     -0.027043
      2.58545      9.34203      9.31604         0.062423     -0.000231     -0.027043
      8.86313      9.34383      9.38997         0.068012     -0.000248     -0.015444
      3.91734      3.11477      3.42992        -0.023108     -0.000363      0.015511
     10.10827      3.11626      3.70562        -0.027814     -0.000385     -0.004414
      3.82045      9.34407      3.63615        -0.027814     -0.000385     -0.004414
     10.20635      9.34450      3.49864        -0.023108     -0.000363      0.015511
      3.88956      3.11535     10.01023        -0.027814     -0.000385     -0.004414
     10.27546      3.11578      9.87273        -0.023108     -0.000363      0.015511
      3.98764      9.34359      9.80325        -0.023108     -0.000363      0.015511
     10.17858      9.34507     10.07896        -0.027814     -0.000385     -0.004414
      2.52195      3.11213      1.84033         0.006245      0.000025      0.101906
      8.96530      3.11395      1.92800        -0.011808      0.000023      0.102558
      2.67748      9.34176      1.85853        -0.011808      0.000023      0.102558
      8.81097      9.34186      1.90906         0.006245      0.000025      0.101906
      2.74659      3.11304      8.23261        -0.011808      0.000023      0.102558
      8.88007      3.11313      8.28314         0.006245      0.000025      0.101906
      2.59225      9.34094      8.21367         0.006245      0.000025      0.101906
      9.03560      9.34276      8.30134        -0.011808      0.000023      0.102558
      2.00570      4.01501      3.31424         0.028148     -0.017585     -0.007983
      8.23690      4.01801      3.31136         0.028778     -0.017655     -0.004427
      1.94908     10.24582      3.24189         0.028778     -0.017655     -0.004427
      8.29471     10.24474      3.38297         0.028148     -0.017585     -0.007983
      2.01818      4.01710      9.61597         0.028778     -0.017655     -0.004427
      8.36382      4.01601      9.75705         0.028148     -0.017585     -0.007983
      2.07600     10.24382      9.68758         0.028148     -0.017585     -0.007983
      8.30720     10.24683      9.68470         0.028778     -0.017655     -0.004427
      2.00722      2.21128      3.31601         0.027998      0.017978     -0.008284
      8.23771      2.21214      3.31329         0.028673      0.018030     -0.004719
      1.94989      8.43996      3.24382         0.028673      0.018030     -0.004719
      8.29624      8.44101      3.38473         0.027998      0.017978     -0.008284
      2.01899      2.21123      9.61790         0.028673      0.018030     -0.004719
      8.36535      2.21228      9.75882         0.027998      0.017978     -0.008284
      2.07752      8.44009      9.68934         0.027998      0.017978     -0.008284
      8.30801      8.44096      9.68663         0.028673      0.018030     -0.004719
      4.44235      3.95983      3.10294        -0.035207     -0.025695      0.011922
     10.67361      3.96237      3.45491        -0.037756     -0.026626      0.007172
      4.38579     10.19018      3.38544        -0.037756     -0.026626      0.007172
     10.73137     10.18955      3.17166        -0.035207     -0.025695      0.011922
      4.45489      3.96146      9.75952        -0.037756     -0.026626      0.007172
     10.80048      3.96083      9.54575        -0.035207     -0.025695      0.011922
      4.51266     10.18864      9.47627        -0.035207     -0.025695      0.011922
     10.74391     10.19119      9.82825        -0.037756     -0.026626      0.007172
      4.44352      2.26982      3.10439        -0.035541      0.025988      0.011495
     10.67393      2.26967      3.45711        -0.038036      0.026948      0.006667
      4.38611      8.49748      3.38764        -0.038036      0.026948      0.006667
     10.73254      8.49955      3.17311        -0.035541      0.025988      0.011495
      4.45522      2.26876      9.76172        -0.038036      0.026948      0.006667
     10.80164      2.27083      9.54720        -0.035541      0.025988      0.011495
      4.51382      8.49864      9.47772        -0.035541      0.025988      0.011495
     10.74423      8.49848      9.83045        -0.038036      0.026948      0.006667
      3.99666      3.11563      4.47561        -0.030886      0.000084     -0.095840
     10.01735      3.11766      4.74312        -0.008582      0.000050     -0.093600
      3.72953      9.34547      4.67365        -0.008582      0.000050     -0.093600
     10.28567      9.34535      4.54433        -0.030886      0.000084     -0.095840
      3.79864      3.11674     11.04773        -0.008582      0.000050     -0.093600
     10.35478      3.11663     10.91841        -0.030886      0.000084     -0.095840
      4.06696      9.34444     10.84894        -0.030886      0.000084     -0.095840
     10.08765      9.34647     11.11645        -0.008582      0.000050     -0.093600
      6.01054      6.21639      6.29597        -0.000177     -0.003540      0.000168
     12.29901      6.24375      6.36514        -0.000170      0.003147      0.000206
      6.01000      0.01402      6.29641        -0.000170      0.003147      0.000206
     12.29956     12.44612      6.36469        -0.000177     -0.003540      0.000168
      6.08030      6.24284     12.66975        -0.000170      0.003147      0.000206
     12.36866      6.21739     12.73878        -0.000177     -0.003540      0.000168
      6.08084     12.44520     12.66930        -0.000177     -0.003540      0.000168
     12.36812      0.01503     12.73922        -0.000170      0.003147      0.000206
      5.75265      6.25688      3.09092         0.001294      0.002765     -0.002826
     12.04168      6.20318      3.16000         0.001361     -0.003135     -0.002826
      5.75386     12.43099      3.09053         0.001361     -0.003135     -0.002826
     12.04047      0.02907      3.16040         0.001294      0.002765     -0.002826
      5.82297      6.20227      9.46461         0.001361     -0.003135     -0.002826
     12.11077      6.25788      9.53373         0.001294      0.002765     -0.002826
      5.82175      0.02815      9.46501         0.001294      0.002765     -0.002826
     12.11199     12.43199      9.53334         0.001361     -0.003135     -0.002826
      5.86141      3.11497      0.20577         0.025002      0.000295     -0.015784
     11.74089      3.11596      0.28890        -0.012802      0.000299     -0.020284
      5.45307      9.34377      0.21943        -0.012802      0.000299     -0.020284
     12.15043      9.34469      0.27449         0.025002      0.000295     -0.015784
      5.52218      3.11505      6.59351        -0.012802      0.000299     -0.020284
     12.21953      3.11597      6.64858         0.025002      0.000295     -0.015784
      5.93171      9.34378      6.57910         0.025002      0.000295     -0.015784
     11.81119      9.34477      6.66223        -0.012802      0.000299     -0.020284
      2.78363      6.46163      5.90935        -0.008016      0.017364      0.022926
      9.07210      5.99771      5.97798        -0.008031     -0.017532      0.022944
      2.78428     12.22552      5.90851        -0.008031     -0.017532      0.022944
      9.07145      0.23382      5.97882        -0.008016      0.017364      0.022926
      2.85338      5.99680     12.28259        -0.008031     -0.017532      0.022944
      9.14175      6.46263     12.35216        -0.008016      0.017364      0.022926
      2.85273      0.23291     12.28344        -0.008016      0.017364      0.022926
      9.14240     12.22652     12.35132        -0.008031     -0.017532      0.022944
 -----------------------------------------------------------------------------------
    total drift:                                0.003919     -0.000030     -0.000781


--------------------------------------------------------------------------------------------------------



  FREE ENERGIE OF THE ION-ELECTRON SYSTEM (eV)
  ---------------------------------------------------
  free  energy   TOTEN  =      -416.85630190 eV

  energy  without entropy=     -416.85630190  energy(sigma->0) =     -416.85630190
 


--------------------------------------------------------------------------------------------------------


    POTLOK:  cpu time    1.2161: real time    1.2162


--------------------------------------------------------------------------------------------------------


     LOOP+:  cpu time 6897.5271: real time 6926.1391
    4ORBIT:  cpu time    0.0000: real time    0.0000

 total amount of memory used by VASP on root node   697522. kBytes
========================================================================

   base      :      30000. kBytes
   nonl-proj :     325712. kBytes
   fftplans  :      80881. kBytes
   grid      :      57435. kBytes
   one-center:        497. kBytes
   wavefun   :     202997. kBytes
 
  
  
 General timing and accounting informations for this job:
 ========================================================
  
                  Total CPU time used (sec):     6946.602
                            User time (sec):     6944.642
                          System time (sec):        1.960
                         Elapsed time (sec):     6975.515
  
                   Maximum memory used (kb):      640360.
                   Average memory used (kb):           0.
  
                          Minor page faults:       281098
                          Major page faults:            0
                 Voluntary context switches:         2068
