 running on   24 total cores
 distrk:  each k-point on   24 cores,    1 groups
 distr:  one band on    3 cores,    8 groups
 using from now: INCAR     
 vasp.5.4.1 24Jun15 (build Nov 25 2015 16:01:35) complex                        
  
 POSCAR found type information on POSCAR  C  N  H  Pb I 
 POSCAR found :  5 types and      96 ions
 scaLAPACK will be used

 ----------------------------------------------------------------------------- 
|                                                                             |
|  ADVICE TO THIS USER RUNNING 'VASP/VAMP'   (HEAR YOUR MASTER'S VOICE ...):  |
|                                                                             |
|      You have a (more or less) 'large supercell' and for larger cells       |
|      it might be more efficient to use real space projection opertators     |
|      So try LREAL= Auto  in the INCAR   file.                               |
|      Mind: At the moment your POTCAR file does not contain real space       |
|       projectors, and has to be modified,  BUT if you                       |
|      want to do an extremely  accurate calculation you might also keep the  |
|      reciprocal projection scheme          (i.e. LREAL=.FALSE.)             |
|                                                                             |
 ----------------------------------------------------------------------------- 


 ----------------------------------------------------------------------------- 
|                                                                             |
|  ADVICE TO THIS USER RUNNING 'VASP/VAMP'   (HEAR YOUR MASTER'S VOICE ...):  |
|                                                                             |
|      You enforced a specific xc-type in the INCAR file,                     |
|      a different type was found on the POTCAR file                          |
|          I HOPE YOU KNOW, WHAT YOU ARE  DOING                               |
|                                                                             |
 ----------------------------------------------------------------------------- 

 LDA part: xc-table for Pade appr. of Perdew
 POSCAR, INCAR and KPOINTS ok, starting setup
 WARNING: small aliasing (wrap around) errors must be expected
 FFT: planning ...
 WAVECAR not read
 entering main loop
       N       E                     dE             d eps       ncg     rms          rms(c)
DAV:   1     0.360102351351E+04    0.36010E+04   -0.18947E+05  7176   0.170E+03
DAV:   2     0.200113214386E+03   -0.34009E+04   -0.32021E+04  8008   0.355E+02
DAV:   3    -0.398435563106E+03   -0.59855E+03   -0.58977E+03  9464   0.172E+02
DAV:   4    -0.438612556811E+03   -0.40177E+02   -0.40007E+02  9648   0.489E+01
DAV:   5    -0.440115001341E+03   -0.15024E+01   -0.15002E+01  9784   0.913E+00    0.296E+01
DAV:   6    -0.419556996876E+03    0.20558E+02   -0.41529E+01  9584   0.103E+01    0.157E+01
DAV:   7    -0.417087530050E+03    0.24695E+01   -0.14648E+01 10192   0.638E+00    0.783E+00
DAV:   8    -0.416916666501E+03    0.17086E+00   -0.30631E+00  8656   0.318E+00    0.183E+00
DAV:   9    -0.416842538844E+03    0.74128E-01   -0.75322E-01  9296   0.176E+00    0.722E-01
DAV:  10    -0.416854983218E+03   -0.12444E-01   -0.11458E-01  9008   0.612E-01    0.475E-01
DAV:  11    -0.416854671853E+03    0.31136E-03   -0.14859E-02  9800   0.277E-01    0.199E-01
DAV:  12    -0.416856033165E+03   -0.13613E-02   -0.87768E-03  9768   0.151E-01    0.101E-01
DAV:  13    -0.416856215328E+03   -0.18216E-03   -0.12124E-03  8504   0.751E-02    0.719E-02
DAV:  14    -0.416856255678E+03   -0.40350E-04   -0.26559E-04  8408   0.284E-02    0.322E-02
DAV:  15    -0.416856298438E+03   -0.42761E-04   -0.14927E-04  8224   0.202E-02    0.119E-02
DAV:  16    -0.416856301824E+03   -0.33858E-05   -0.12351E-05 10296   0.678E-03    0.117E-02
DAV:  17    -0.416856301723E+03    0.10084E-06   -0.35111E-06  8440   0.338E-03    0.507E-03
DAV:  18    -0.416856301857E+03   -0.13327E-06   -0.75585E-06  8960   0.441E-03    0.360E-03
DAV:  19    -0.416856301866E+03   -0.95242E-08   -0.77066E-07  8272   0.203E-03    0.228E-03
DAV:  20    -0.416856301868E+03   -0.15389E-08   -0.42802E-07  8184   0.103E-03    0.364E-04
DAV:  21    -0.416856301903E+03   -0.35106E-07   -0.33850E-08  6168   0.443E-04    0.256E-04
DAV:  22    -0.416856301899E+03    0.38817E-08   -0.30968E-09  4800   0.220E-04
   1 F= -.41685630E+03 E0= -.41685630E+03  d E =-.427179E-99
Application 22054746 resources: utime ~167189s, stime ~91s, Rss ~640360, inblocks ~184891, outblocks ~194552
