  96  96   0   0
  0.2080188E+02  0.1257760E-08  0.1245754E-08  0.1274818E-08  0.5000000E-15
  1.000000000000000E-004
  CAR 
 MAPbI3-Cubic                            
      8.80061202    -19.19114712  301      1.19618412      1.00000000
    -19.191  0.0000E+00  0.0000E+00
    -19.098  0.0000E+00  0.0000E+00
    -19.005  0.0000E+00  0.0000E+00
    -18.911  0.0000E+00  0.0000E+00
    -18.818  0.0000E+00  0.0000E+00
    -18.725  0.0000E+00  0.0000E+00
    -18.631  0.0000E+00  0.0000E+00
    -18.538  0.0000E+00  0.0000E+00
    -18.445  0.0000E+00  0.0000E+00
    -18.351  0.0000E+00  0.0000E+00
    -18.258  0.0000E+00  0.0000E+00
    -18.165  0.0000E+00  0.0000E+00
    -18.071  0.0000E+00  0.0000E+00
    -17.978  0.0000E+00  0.0000E+00
    -17.885  0.0000E+00  0.8000E+01
    -17.792  0.0000E+00  0.1600E+02
    -17.698  0.0000E+00  0.1600E+02
    -17.605  0.0000E+00  0.1600E+02
    -17.512  0.0000E+00  0.1600E+02
    -17.418  0.0000E+00  0.1600E+02
    -17.325  0.0000E+00  0.1600E+02
    -17.232  0.0000E+00  0.1600E+02
    -17.138  0.0000E+00  0.1600E+02
    -17.045  0.0000E+00  0.1600E+02
    -16.952  0.0000E+00  0.1600E+02
    -16.859  0.0000E+00  0.1600E+02
    -16.765  0.0000E+00  0.1600E+02
    -16.672  0.0000E+00  0.1600E+02
    -16.579  0.0000E+00  0.1600E+02
    -16.485  0.0000E+00  0.1600E+02
    -16.392  0.0000E+00  0.1600E+02
    -16.299  0.0000E+00  0.1600E+02
    -16.205  0.0000E+00  0.1600E+02
    -16.112  0.0000E+00  0.1600E+02
    -16.019  0.0000E+00  0.1600E+02
    -15.925  0.0000E+00  0.1600E+02
    -15.832  0.0000E+00  0.1600E+02
    -15.739  0.0000E+00  0.1600E+02
    -15.646  0.0000E+00  0.1600E+02
    -15.552  0.0000E+00  0.1600E+02
    -15.459  0.0000E+00  0.1600E+02
    -15.366  0.0000E+00  0.1600E+02
    -15.272  0.0000E+00  0.1600E+02
    -15.179  0.8701E+02  0.2856E+02
    -15.086  0.0000E+00  0.9600E+02
    -14.992  0.0000E+00  0.9600E+02
    -14.899  0.0000E+00  0.9600E+02
    -14.806  0.0000E+00  0.9600E+02
    -14.712  0.0000E+00  0.9600E+02
    -14.619  0.0000E+00  0.9600E+02
    -14.526  0.0000E+00  0.9600E+02
    -14.433  0.0000E+00  0.9600E+02
    -14.339  0.0000E+00  0.9600E+02
    -14.246  0.0000E+00  0.9600E+02
    -14.153  0.0000E+00  0.9600E+02
    -14.059  0.0000E+00  0.9600E+02
    -13.966  0.0000E+00  0.9600E+02
    -13.873  0.0000E+00  0.9600E+02
    -13.779  0.0000E+00  0.9600E+02
    -13.686  0.0000E+00  0.9600E+02
    -13.593  0.0000E+00  0.9600E+02
    -13.499  0.0000E+00  0.9600E+02
    -13.406  0.0000E+00  0.9600E+02
    -13.313  0.0000E+00  0.9600E+02
    -13.220  0.0000E+00  0.9600E+02
    -13.126  0.0000E+00  0.9600E+02
    -13.033  0.0000E+00  0.9600E+02
    -12.940  0.0000E+00  0.9600E+02
    -12.846  0.0000E+00  0.9600E+02
    -12.753  0.0000E+00  0.9600E+02
    -12.660  0.0000E+00  0.9600E+02
    -12.566  0.0000E+00  0.9600E+02
    -12.473  0.0000E+00  0.9600E+02
    -12.380  0.0000E+00  0.9600E+02
    -12.287  0.0000E+00  0.9600E+02
    -12.193  0.0000E+00  0.9600E+02
    -12.100  0.0000E+00  0.9600E+02
    -12.007  0.0000E+00  0.9600E+02
    -11.913  0.0000E+00  0.9600E+02
    -11.820  0.0000E+00  0.9600E+02
    -11.727  0.0000E+00  0.9600E+02
    -11.633  0.0000E+00  0.9600E+02
    -11.540  0.0000E+00  0.9600E+02
    -11.447  0.0000E+00  0.9600E+02
    -11.353  0.0000E+00  0.9600E+02
    -11.260  0.0000E+00  0.9600E+02
    -11.167  0.0000E+00  0.1040E+03
    -11.074  0.0000E+00  0.1040E+03
    -10.980  0.0000E+00  0.1120E+03
    -10.887  0.0000E+00  0.1120E+03
    -10.794  0.7939E+00  0.1121E+03
    -10.700  0.3175E+01  0.1139E+03
    -10.607  0.3604E+01  0.1183E+03
    -10.514  0.7138E+01  0.1247E+03
    -10.420  0.8581E-08  0.1282E+03
    -10.327  0.9442E+01  0.1312E+03
    -10.234  0.5796E+01  0.1374E+03
    -10.140  0.3176E+01  0.1438E+03
    -10.047  0.1111E+02  0.1541E+03
     -9.954  0.0000E+00  0.1600E+03
     -9.861  0.0000E+00  0.1600E+03
     -9.767  0.0000E+00  0.1600E+03
     -9.674  0.0000E+00  0.1600E+03
     -9.581  0.0000E+00  0.1600E+03
     -9.487  0.0000E+00  0.1600E+03
     -9.394  0.0000E+00  0.1600E+03
     -9.301  0.0000E+00  0.1600E+03
     -9.207  0.0000E+00  0.1600E+03
     -9.114  0.0000E+00  0.1600E+03
     -9.021  0.0000E+00  0.1600E+03
     -8.928  0.0000E+00  0.1600E+03
     -8.834  0.0000E+00  0.1600E+03
     -8.741  0.0000E+00  0.1600E+03
     -8.648  0.0000E+00  0.1600E+03
     -8.554  0.0000E+00  0.1600E+03
     -8.461  0.0000E+00  0.1600E+03
     -8.368  0.0000E+00  0.1600E+03
     -8.274  0.0000E+00  0.1600E+03
     -8.181  0.0000E+00  0.1600E+03
     -8.088  0.0000E+00  0.1600E+03
     -7.994  0.0000E+00  0.1600E+03
     -7.901  0.0000E+00  0.1600E+03
     -7.808  0.0000E+00  0.1600E+03
     -7.715  0.0000E+00  0.1600E+03
     -7.621  0.0000E+00  0.1600E+03
     -7.528  0.0000E+00  0.1600E+03
     -7.435  0.0000E+00  0.1680E+03
     -7.341  0.0000E+00  0.1840E+03
     -7.248  0.0000E+00  0.1920E+03
     -7.155  0.0000E+00  0.1920E+03
     -7.061  0.0000E+00  0.1920E+03
     -6.968  0.0000E+00  0.1921E+03
     -6.875  0.3171E+01  0.1925E+03
     -6.781  0.1261E-01  0.1925E+03
     -6.688  0.0000E+00  0.1934E+03
     -6.595  0.0000E+00  0.1944E+03
     -6.502  0.0000E+00  0.1963E+03
     -6.408  0.3176E+01  0.1985E+03
     -6.315  0.3176E+01  0.1997E+03
     -6.222  0.3170E+01  0.2012E+03
     -6.128  0.1588E+01  0.2034E+03
     -6.035  0.4763E+01  0.2055E+03
     -5.942  0.0000E+00  0.2064E+03
     -5.848  0.1588E+01  0.2075E+03
     -5.755  0.1103E+00  0.2078E+03
     -5.662  0.8560E+01  0.2154E+03
     -5.568  0.0000E+00  0.2160E+03
     -5.475  0.1546E+00  0.2160E+03
     -5.382  0.7939E+00  0.2240E+03
     -5.289  0.0000E+00  0.2240E+03
     -5.195  0.0000E+00  0.2240E+03
     -5.102  0.0000E+00  0.2240E+03
     -5.009  0.0000E+00  0.2240E+03
     -4.915  0.0000E+00  0.2240E+03
     -4.822  0.0000E+00  0.2240E+03
     -4.729  0.0000E+00  0.2240E+03
     -4.635  0.0000E+00  0.2240E+03
     -4.542  0.0000E+00  0.2240E+03
     -4.449  0.0000E+00  0.2240E+03
     -4.356  0.0000E+00  0.2240E+03
     -4.262  0.0000E+00  0.2240E+03
     -4.169  0.0000E+00  0.2240E+03
     -4.076  0.0000E+00  0.2240E+03
     -3.982  0.0000E+00  0.2240E+03
     -3.889  0.0000E+00  0.2240E+03
     -3.796  0.0000E+00  0.2240E+03
     -3.702  0.0000E+00  0.2240E+03
     -3.609  0.0000E+00  0.2240E+03
     -3.516  0.2246E+02  0.2267E+03
     -3.422  0.2755E+02  0.2438E+03
     -3.329  0.0000E+00  0.2560E+03
     -3.236  0.0000E+00  0.2560E+03
     -3.143  0.0000E+00  0.2560E+03
     -3.049  0.0000E+00  0.2560E+03
     -2.956  0.0000E+00  0.2560E+03
     -2.863  0.0000E+00  0.2560E+03
     -2.769  0.0000E+00  0.2560E+03
     -2.676  0.0000E+00  0.2560E+03
     -2.583  0.0000E+00  0.2560E+03
     -2.489  0.0000E+00  0.2560E+03
     -2.396  0.0000E+00  0.2560E+03
     -2.303  0.0000E+00  0.2560E+03
     -2.209  0.0000E+00  0.2560E+03
     -2.116  0.0000E+00  0.2560E+03
     -2.023  0.3131E+01  0.2574E+03
     -1.930  0.1588E+01  0.2589E+03
     -1.836  0.5557E+01  0.2606E+03
     -1.743  0.3176E+01  0.2631E+03
     -1.650  0.3153E+01  0.2662E+03
     -1.556  0.1233E+01  0.2698E+03
     -1.463  0.1847E-01  0.2729E+03
     -1.370  0.1588E+01  0.2766E+03
     -1.276  0.4762E+01  0.2794E+03
     -1.183  0.0000E+00  0.2800E+03
     -1.090  0.0000E+00  0.2800E+03
     -0.997  0.0000E+00  0.2802E+03
     -0.903  0.1323E+02  0.2835E+03
     -0.810  0.1264E+02  0.2905E+03
     -0.717  0.6219E+01  0.2946E+03
     -0.623  0.4763E+01  0.3004E+03
     -0.530  0.7939E+00  0.3036E+03
     -0.437  0.4760E+01  0.3081E+03
     -0.343  0.7183E+01  0.3117E+03
     -0.250  0.3176E+01  0.3175E+03
     -0.157  0.9728E+00  0.3239E+03
     -0.063  0.5140E+01  0.3301E+03
      0.030  0.1013E+02  0.3374E+03
      0.123  0.8547E+01  0.3452E+03
      0.216  0.1350E+02  0.3557E+03
      0.310  0.1190E+02  0.3644E+03
      0.403  0.5471E+01  0.3704E+03
      0.496  0.1336E+02  0.3803E+03
      0.590  0.7124E+01  0.3876E+03
      0.683  0.9901E+00  0.3942E+03
      0.776  0.6349E+01  0.3973E+03
      0.870  0.5790E-07  0.3988E+03
      0.963  0.3405E-02  0.3993E+03
      1.056  0.0000E+00  0.3999E+03
      1.150  0.0000E+00  0.3999E+03
      1.243  0.0000E+00  0.4000E+03
      1.336  0.0000E+00  0.4000E+03
      1.429  0.0000E+00  0.4000E+03
      1.523  0.0000E+00  0.4000E+03
      1.616  0.0000E+00  0.4000E+03
      1.709  0.0000E+00  0.4000E+03
      1.803  0.0000E+00  0.4000E+03
      1.896  0.0000E+00  0.4000E+03
      1.989  0.0000E+00  0.4000E+03
      2.083  0.0000E+00  0.4000E+03
      2.176  0.0000E+00  0.4000E+03
      2.269  0.0000E+00  0.4000E+03
      2.363  0.0000E+00  0.4000E+03
      2.456  0.0000E+00  0.4000E+03
      2.549  0.0000E+00  0.4000E+03
      2.642  0.0000E+00  0.4000E+03
      2.736  0.0000E+00  0.4000E+03
      2.829  0.0000E+00  0.4000E+03
      2.922  0.0000E+00  0.4000E+03
      3.016  0.0000E+00  0.4007E+03
      3.109  0.0000E+00  0.4007E+03
      3.202  0.0000E+00  0.4022E+03
      3.296  0.0000E+00  0.4035E+03
      3.389  0.4737E+01  0.4052E+03
      3.482  0.1724E+01  0.4065E+03
      3.575  0.1588E+01  0.4077E+03
      3.669  0.3676E-07  0.4081E+03
      3.762  0.0000E+00  0.4090E+03
      3.855  0.1588E+01  0.4101E+03
      3.949  0.1585E+01  0.4114E+03
      4.042  0.0000E+00  0.4139E+03
      4.135  0.6357E+01  0.4166E+03
      4.229  0.5733E+01  0.4195E+03
      4.322  0.1588E+01  0.4228E+03
      4.415  0.6548E-02  0.4236E+03
      4.509  0.0000E+00  0.4239E+03
      4.602  0.0000E+00  0.4240E+03
      4.695  0.0000E+00  0.4240E+03
      4.788  0.0000E+00  0.4240E+03
      4.882  0.0000E+00  0.4240E+03
      4.975  0.0000E+00  0.4240E+03
      5.068  0.3176E+01  0.4253E+03
      5.162  0.4763E+01  0.4282E+03
      5.255  0.8814E-14  0.4299E+03
      5.348  0.3859E-01  0.4329E+03
      5.442  0.8814E-16  0.4360E+03
      5.535  0.0000E+00  0.4390E+03
      5.628  0.0000E+00  0.4416E+03
      5.722  0.0000E+00  0.4430E+03
      5.815  0.1588E+01  0.4453E+03
      5.908  0.1588E+01  0.4483E+03
      6.001  0.3250E-03  0.4510E+03
      6.095  0.2137E-04  0.4525E+03
      6.188  0.4807E+01  0.4569E+03
      6.281  0.3176E+01  0.4601E+03
      6.375  0.1363E+01  0.4624E+03
      6.468  0.2679E+01  0.4649E+03
      6.561  0.4905E+01  0.4697E+03
      6.655  0.3176E+01  0.4744E+03
      6.748  0.3094E+01  0.4790E+03
      6.841  0.7937E+01  0.4836E+03
      6.934  0.1583E+01  0.4867E+03
      7.028  0.1588E+01  0.4901E+03
      7.121  0.3084E+01  0.4949E+03
      7.214  0.3137E+01  0.5001E+03
      7.308  0.1069E+01  0.5038E+03
      7.401  0.4788E+01  0.5086E+03
      7.494  0.1714E+01  0.5116E+03
      7.588  0.0000E+00  0.5120E+03
      7.681  0.0000E+00  0.5120E+03
      7.774  0.0000E+00  0.5120E+03
      7.868  0.0000E+00  0.5120E+03
      7.961  0.0000E+00  0.5120E+03
      8.054  0.0000E+00  0.5120E+03
      8.147  0.0000E+00  0.5120E+03
      8.241  0.0000E+00  0.5120E+03
      8.334  0.0000E+00  0.5120E+03
      8.427  0.0000E+00  0.5120E+03
      8.521  0.0000E+00  0.5120E+03
      8.614  0.0000E+00  0.5120E+03
      8.707  0.0000E+00  0.5120E+03
      8.801  0.0000E+00  0.5120E+03
