       N       E                     dE             d eps       ncg     rms          rms(c)
DAV:   1     0.358489899212E+04    0.35849E+04   -0.18930E+05  7176   0.170E+03
DAV:   2     0.200421580533E+03   -0.33845E+04   -0.31802E+04  8008   0.354E+02
DAV:   3    -0.396071046546E+03   -0.59649E+03   -0.58734E+03  9416   0.171E+02
DAV:   4    -0.437001147865E+03   -0.40930E+02   -0.40750E+02  9696   0.492E+01
DAV:   5    -0.438517021542E+03   -0.15159E+01   -0.15132E+01  9840   0.912E+00    0.287E+01
DAV:   6    -0.418638961735E+03    0.19878E+02   -0.38260E+01 10280   0.136E+01    0.152E+01
DAV:   7    -0.416404916384E+03    0.22340E+01   -0.18445E+01  9912   0.715E+00    0.774E+00
DAV:   8    -0.416270708385E+03    0.13421E+00   -0.39952E+00  8768   0.360E+00    0.214E+00
DAV:   9    -0.416146254755E+03    0.12445E+00   -0.10248E+00  9200   0.206E+00    0.721E-01
DAV:  10    -0.416160511108E+03   -0.14256E-01   -0.15451E-01  8968   0.699E-01    0.587E-01
DAV:  11    -0.416159080533E+03    0.14306E-02   -0.26327E-02  9744   0.361E-01    0.211E-01
DAV:  12    -0.416160574256E+03   -0.14937E-02   -0.99030E-03  9800   0.160E-01    0.103E-01
DAV:  13    -0.416160880216E+03   -0.30596E-03   -0.15648E-03  8496   0.759E-02    0.826E-02
DAV:  14    -0.416160880023E+03    0.19323E-06   -0.32642E-04  8632   0.340E-02    0.385E-02
DAV:  15    -0.416160938295E+03   -0.58273E-04   -0.19205E-04  8152   0.231E-02    0.119E-02
DAV:  16    -0.416160943841E+03   -0.55462E-05   -0.21834E-05 10320   0.845E-03    0.158E-02
DAV:  17    -0.416160943053E+03    0.78857E-06   -0.11521E-06  8368   0.241E-03    0.115E-02
DAV:  18    -0.416160942613E+03    0.44005E-06   -0.16970E-05  8560   0.666E-03    0.363E-03
DAV:  19    -0.416160942661E+03   -0.48414E-07   -0.22840E-06  8544   0.305E-03    0.348E-03
DAV:  20    -0.416160942646E+03    0.15414E-07   -0.20956E-07  8648   0.919E-04    0.220E-03
DAV:  21    -0.416160942683E+03   -0.37136E-07   -0.33199E-07  8176   0.102E-03    0.400E-04
DAV:  22    -0.416160942679E+03    0.40600E-08   -0.41838E-08  6512   0.512E-04
   1 F= -.41616094E+03 E0= -.41616094E+03  d E =-.138762E-85
