 vasp.5.4.1 24Jun15 (build Nov 25 2015 16:01:35) complex                        
  
 executed on         CrayXC-Intel date 2016.07.10  07:57:18
 running on   24 total cores
 distrk:  each k-point on   24 cores,    1 groups
 distr:  one band on NCORES_PER_BAND=   3 cores,    8 groups


--------------------------------------------------------------------------------------------------------


 INCAR:
 POTCAR:    PAW_PBE C 08Apr2002                   
 POTCAR:    PAW_PBE N 08Apr2002                   
 POTCAR:    PAW_PBE H 15Jun2001                   
 POTCAR:    PAW_PBE Pb_d 06Sep2000                
 POTCAR:    PAW_PBE I 08Apr2002                   
 POTCAR:    PAW_PBE C 08Apr2002                   
   VRHFIN =C: s2p2                                                              
   LEXCH  = PE                                                                  
   EATOM  =   147.1560 eV,   10.8157 Ry                                         
                                                                                
   TITEL  = PAW_PBE C 08Apr2002                                                 
   LULTRA =        F    use ultrasoft PP ?                                      
   IUNSCR =        1    unscreen: 0-lin 1-nonlin 2-no                           
   RPACOR =    1.200    partial core radius                                     
   POMASS =   12.011; ZVAL   =    4.000    mass and valenz                      
   RCORE  =    1.500    outmost cutoff radius                                   
   RWIGS  =    1.630; RWIGS  =    0.863    wigner-seitz radius (au A)           
   ENMAX  =  400.000; ENMIN  =  300.000 eV                                      
   ICORE  =        2    local potential                                         
   LCOR   =        T    correct aug charges                                     
   LPAW   =        T    paw PP                                                  
   EAUG   =  644.873                                                            
   DEXC   =    0.000                                                            
   RMAX   =    1.529    core radius for proj-oper                               
   RAUG   =    1.300    factor for augmentation sphere                          
   RDEP   =    1.501    radius for radial grids                                 
   RDEPT  =    1.300    core radius for aug-charge                              
                                                                                
   Atomic configuration                                                         
    4 entries                                                                   
     n  l   j            E        occ.                                          
     1  0  0.50      -273.3789   2.0000                                         
     2  0  0.50       -13.7508   2.0000                                         
     2  1  0.50        -5.2854   2.0000                                         
     3  2  1.50        -5.4423   0.0000                                         
   Description                                                                  
     l       E           TYP  RCUT    TYP  RCUT                                 
     0    -13.7508458     23  1.200                                             
     0     -8.2022199     23  1.200                                             
     1     -5.2854383     23  1.500                                             
     1     34.0145650     23  1.500                                             
     2     -5.4423304      7  1.500                                             
  local pseudopotential read in
  partial core-charges read in
  partial kinetic energy density read in
  atomic valenz-charges read in
  non local Contribution for L=           0  read in
    real space projection operators read in
  non local Contribution for L=           0  read in
    real space projection operators read in
  non local Contribution for L=           1  read in
    real space projection operators read in
  non local Contribution for L=           1  read in
    real space projection operators read in
    PAW grid and wavefunctions read in
 
   number of l-projection  operators is LMAX  =           4
   number of lm-projection operators is LMMAX =           8
 
 POTCAR:    PAW_PBE N 08Apr2002                   
   VRHFIN =N: s2p3                                                              
   LEXCH  = PE                                                                  
   EATOM  =   264.5486 eV,   19.4438 Ry                                         
                                                                                
   TITEL  = PAW_PBE N 08Apr2002                                                 
   LULTRA =        F    use ultrasoft PP ?                                      
   IUNSCR =        1    unscreen: 0-lin 1-nonlin 2-no                           
   RPACOR =    1.200    partial core radius                                     
   POMASS =   14.001; ZVAL   =    5.000    mass and valenz                      
   RCORE  =    1.500    outmost cutoff radius                                   
   RWIGS  =    1.400; RWIGS  =    0.741    wigner-seitz radius (au A)           
   ENMAX  =  400.000; ENMIN  =  300.000 eV                                      
   ICORE  =        2    local potential                                         
   LCOR   =        T    correct aug charges                                     
   LPAW   =        T    paw PP                                                  
   EAUG   =  627.112                                                            
   DEXC   =    0.000                                                            
   RMAX   =    1.529    core radius for proj-oper                               
   RAUG   =    1.300    factor for augmentation sphere                          
   RDEP   =    1.514    radius for radial grids                                 
   RDEPT  =    1.338    core radius for aug-charge                              
                                                                                
   Atomic configuration                                                         
    4 entries                                                                   
     n  l   j            E        occ.                                          
     1  0  0.50      -384.7179   2.0000                                         
     2  0  0.50       -18.5828   2.0000                                         
     2  1  0.50        -7.0898   3.0000                                         
     3  2  1.50        -6.8029   0.0000                                         
   Description                                                                  
     l       E           TYP  RCUT    TYP  RCUT                                 
     0    -18.5828119     23  1.200                                             
     0    -13.5018863     23  1.200                                             
     1     -7.0897853     23  1.500                                             
     1      9.5240782     23  1.500                                             
     2     -6.8029130      7  1.500                                             
  local pseudopotential read in
  partial core-charges read in
  partial kinetic energy density read in
  atomic valenz-charges read in
  non local Contribution for L=           0  read in
    real space projection operators read in
  non local Contribution for L=           0  read in
    real space projection operators read in
  non local Contribution for L=           1  read in
    real space projection operators read in
  non local Contribution for L=           1  read in
    real space projection operators read in
    PAW grid and wavefunctions read in
 
   number of l-projection  operators is LMAX  =           4
   number of lm-projection operators is LMMAX =           8
 
 POTCAR:    PAW_PBE H 15Jun2001                   
   VRHFIN =H: ultrasoft test                                                    
   LEXCH  = PE                                                                  
   EATOM  =    12.4884 eV,    0.9179 Ry                                         
                                                                                
   TITEL  = PAW_PBE H 15Jun2001                                                 
   LULTRA =        F    use ultrasoft PP ?                                      
   IUNSCR =        0    unscreen: 0-lin 1-nonlin 2-no                           
   RPACOR =    0.000    partial core radius                                     
   POMASS =    1.000; ZVAL   =    1.000    mass and valenz                      
   RCORE  =    1.100    outmost cutoff radius                                   
   RWIGS  =    0.700; RWIGS  =    0.370    wigner-seitz radius (au A)           
   ENMAX  =  250.000; ENMIN  =  200.000 eV                                      
   RCLOC  =    0.701    cutoff for local pot                                    
   LCOR   =        T    correct aug charges                                     
   LPAW   =        T    paw PP                                                  
   EAUG   =  400.000                                                            
   RMAX   =    1.123    core radius for proj-oper                               
   RAUG   =    1.200    factor for augmentation sphere                          
   RDEP   =    1.112    radius for radial grids                                 
   RDEPT  =    0.926    core radius for aug-charge                              
                                                                                
   Atomic configuration                                                         
    2 entries                                                                   
     n  l   j            E        occ.                                          
     1  0  0.50        -6.4927   1.0000                                         
     2  1  0.50        -3.4015   0.0000                                         
   Description                                                                  
     l       E           TYP  RCUT    TYP  RCUT                                 
     0     -6.4927494     23  1.100                                             
     0      6.8029130     23  1.100                                             
     1     -4.0817478     23  1.100                                             
  local pseudopotential read in
  atomic valenz-charges read in
  non local Contribution for L=           0  read in
    real space projection operators read in
  non local Contribution for L=           0  read in
    real space projection operators read in
  non local Contribution for L=           1  read in
    real space projection operators read in
    PAW grid and wavefunctions read in
 
   number of l-projection  operators is LMAX  =           3
   number of lm-projection operators is LMMAX =           5
 
 POTCAR:    PAW_PBE Pb_d 06Sep2000                
   VRHFIN =Pb:                                                                  
   LEXCH  = PE                                                                  
   EATOM  =  1661.6185 eV,  122.1255 Ry                                         
                                                                                
   TITEL  = PAW_PBE Pb_d 06Sep2000                                              
   LULTRA =        F    use ultrasoft PP ?                                      
   IUNSCR =        1    unscreen: 0-lin 1-nonlin 2-no                           
   RPACOR =    2.200    partial core radius                                     
   POMASS =  207.200; ZVAL   =   14.000    mass and valenz                      
   RCORE  =    2.500    outmost cutoff radius                                   
   RWIGS  =    3.260; RWIGS  =    1.725    wigner-seitz radius (au A)           
   ENMAX  =  237.835; ENMIN  =  178.376 eV                                      
   ICORE  =        3    local potential                                         
   LCOR   =        T    correct aug charges                                     
   LPAW   =        T    paw PP                                                  
   EAUG   =  391.914                                                            
   DEXC   =    0.000                                                            
   RMAX   =    2.565    core radius for proj-oper                               
   RAUG   =    1.300    factor for augmentation sphere                          
   RDEP   =    2.643    radius for radial grids                                 
   RDEPT  =    2.092    core radius for aug-charge                              
                                                                                
   Atomic configuration                                                         
   16 entries                                                                   
     n  l   j            E        occ.                                          
     1  0  0.50    -88091.8466   2.0000                                         
     2  0  0.50    -15753.4197   2.0000                                         
     2  1  1.50    -13508.1797   6.0000                                         
     3  0  0.50     -3781.7194   2.0000                                         
     3  1  1.50     -3138.2529   6.0000                                         
     3  2  2.50     -2483.2977  10.0000                                         
     4  0  0.50      -856.2895   2.0000                                         
     4  1  1.50      -645.4942   6.0000                                         
     4  2  2.50      -401.8768  10.0000                                         
     4  3  3.50      -132.9059  14.0000                                         
     5  0  0.50      -144.0950   2.0000                                         
     5  1  1.50       -85.7879   6.0000                                         
     5  2  2.50       -21.1769  10.0000                                         
     6  0  0.50       -12.0372   2.0000                                         
     6  1  1.50        -3.4971   2.0000                                         
     5  3  2.50        -2.7212   0.0000                                         
   Description                                                                  
     l       E           TYP  RCUT    TYP  RCUT                                 
     2    -21.1768523     23  2.500                                             
     2      1.3605826     23  2.500                                             
     0    -12.0371562     23  2.500                                             
     0     13.6058260     23  2.500                                             
     1     -3.4971339     23  2.500                                             
     1     13.6058260     23  2.500                                             
     3     -1.3605826      7  2.500                                             
  local pseudopotential read in
  partial core-charges read in
  partial kinetic energy density read in
  atomic valenz-charges read in
  non local Contribution for L=           2  read in
    real space projection operators read in
  non local Contribution for L=           2  read in
    real space projection operators read in
  non local Contribution for L=           0  read in
    real space projection operators read in
  non local Contribution for L=           0  read in
    real space projection operators read in
  non local Contribution for L=           1  read in
    real space projection operators read in
  non local Contribution for L=           1  read in
    real space projection operators read in
    PAW grid and wavefunctions read in
 
   number of l-projection  operators is LMAX  =           6
   number of lm-projection operators is LMMAX =          18
 
 POTCAR:    PAW_PBE I 08Apr2002                   
   VRHFIN =I : s2p5                                                             
   LEXCH  = PE                                                                  
   EATOM  =   315.8678 eV,   23.2156 Ry                                         
                                                                                
   TITEL  = PAW_PBE I 08Apr2002                                                 
   LULTRA =        F    use ultrasoft PP ?                                      
   IUNSCR =        1    unscreen: 0-lin 1-nonlin 2-no                           
   RPACOR =    2.200    partial core radius                                     
   POMASS =  126.904; ZVAL   =    7.000    mass and valenz                      
   RCORE  =    2.300    outmost cutoff radius                                   
   RWIGS  =    2.810; RWIGS  =    1.487    wigner-seitz radius (au A)           
   ENMAX  =  175.647; ENMIN  =  131.735 eV                                      
   ICORE  =        3    local potential                                         
   LCOR   =        T    correct aug charges                                     
   LPAW   =        T    paw PP                                                  
   EAUG   =  370.139                                                            
   DEXC   =    0.000                                                            
   RMAX   =    2.359    core radius for proj-oper                               
   RAUG   =    1.300    factor for augmentation sphere                          
   RDEP   =    2.392    radius for radial grids                                 
   RDEPT  =    2.170    core radius for aug-charge                              
                                                                                
   Atomic configuration                                                         
   13 entries                                                                   
     n  l   j            E        occ.                                          
     1  0  0.50    -32976.3739   2.0000                                         
     2  0  0.50     -5094.5933   2.0000                                         
     2  1  1.50     -4572.0131   6.0000                                         
     3  0  0.50     -1028.2813   2.0000                                         
     3  1  1.50      -859.0250   6.0000                                         
     3  2  2.50      -605.7620  10.0000                                         
     4  0  0.50      -180.5540   2.0000                                         
     4  1  1.50      -127.5306   6.0000                                         
     4  2  2.50       -50.2720  10.0000                                         
     5  0  0.50       -17.4058   2.0000                                         
     5  1  0.50        -7.0851   5.0000                                         
     5  2  1.50        -7.0750   0.0000                                         
     4  3  2.50        -7.0750   0.0000                                         
   Description                                                                  
     l       E           TYP  RCUT    TYP  RCUT                                 
     0    -17.4058016     23  2.300                                             
     0    -18.7663842     23  2.300                                             
     1     -7.0850686     23  2.300                                             
     1     -4.2150896     23  2.300                                             
     2     -7.0750295     23  2.300                                             
     3     -1.3605826     23  2.300                                             
  local pseudopotential read in
  partial core-charges read in
  partial kinetic energy density read in
  atomic valenz-charges read in
  non local Contribution for L=           0  read in
    real space projection operators read in
  non local Contribution for L=           0  read in
    real space projection operators read in
  non local Contribution for L=           1  read in
    real space projection operators read in
  non local Contribution for L=           1  read in
    real space projection operators read in
  non local Contribution for L=           2  read in
    real space projection operators read in
    PAW grid and wavefunctions read in
 
   number of l-projection  operators is LMAX  =           5
   number of lm-projection operators is LMMAX =          13
 

 ----------------------------------------------------------------------------- 
|                                                                             |
|  ADVICE TO THIS USER RUNNING 'VASP/VAMP'   (HEAR YOUR MASTER'S VOICE ...):  |
|                                                                             |
|      You have a (more or less) 'large supercell' and for larger cells       |
|      it might be more efficient to use real space projection opertators     |
|      So try LREAL= Auto  in the INCAR   file.                               |
|      Mind: At the moment your POTCAR file does not contain real space       |
|       projectors, and has to be modified,  BUT if you                       |
|      want to do an extremely  accurate calculation you might also keep the  |
|      reciprocal projection scheme          (i.e. LREAL=.FALSE.)             |
|                                                                             |
 ----------------------------------------------------------------------------- 


 ----------------------------------------------------------------------------- 
|                                                                             |
|  ADVICE TO THIS USER RUNNING 'VASP/VAMP'   (HEAR YOUR MASTER'S VOICE ...):  |
|                                                                             |
|      You enforced a specific xc-type in the INCAR file,                     |
|      a different type was found on the POTCAR file                          |
|          I HOPE YOU KNOW, WHAT YOU ARE  DOING                               |
|                                                                             |
 ----------------------------------------------------------------------------- 

  PAW_PBE C 08Apr2002                   :
 energy of atom  1       EATOM= -147.1560
 kinetic energy error for atom=    0.0032 (will be added to EATOM!!)
  PAW_PBE N 08Apr2002                   :
 energy of atom  2       EATOM= -264.5486
 kinetic energy error for atom=    0.0061 (will be added to EATOM!!)
  PAW_PBE H 15Jun2001                   :
 energy of atom  3       EATOM=  -12.4884
 kinetic energy error for atom=    0.0002 (will be added to EATOM!!)
  PAW_PBE Pb_d 06Sep2000                :
 energy of atom  4       EATOM=-1661.6185
 kinetic energy error for atom=    0.0012 (will be added to EATOM!!)
  PAW_PBE I 08Apr2002                   :
 energy of atom  5       EATOM= -315.8678
 kinetic energy error for atom=    0.0003 (will be added to EATOM!!)
 
 
 POSCAR: C N H Pb I                              
  positions in direct lattice
  No initial velocities read in
 exchange correlation table for  LEXCH =       14
   RHO(1)=    0.500       N(1)  =     2000
   RHO(2)=  100.500       N(2)  =     4000
 


--------------------------------------------------------------------------------------------------------


 ion  position               nearest neighbor table
   1  0.198  0.250  0.228-  25 1.11  33 1.11  17 1.13   9 1.51
   2  0.696  0.250  0.229-  26 1.11  34 1.11  18 1.12  10 1.51
   3  0.196  0.750  0.229-  27 1.11  35 1.11  19 1.12  11 1.51
   4  0.698  0.750  0.228-  28 1.11  36 1.11  20 1.13  12 1.51
   5  0.196  0.250  0.729-  29 1.11  37 1.11  21 1.12  13 1.51
   6  0.698  0.250  0.728-  30 1.11  38 1.11  22 1.13  14 1.51
   7  0.198  0.750  0.728-  31 1.11  39 1.11  23 1.13  15 1.51
   8  0.696  0.750  0.729-  32 1.11  40 1.11  24 1.12  16 1.51
   9  0.316  0.250  0.250-  41 1.05  49 1.05  57 1.08   1 1.51
  10  0.793  0.250  0.297-  42 1.06  50 1.06  58 1.06   2 1.51
  11  0.293  0.750  0.297-  43 1.06  51 1.06  59 1.06   3 1.51
  12  0.816  0.750  0.250-  44 1.05  52 1.05  60 1.08   4 1.51
  13  0.293  0.250  0.797-  45 1.06  53 1.06  61 1.06   5 1.51
  14  0.816  0.250  0.750-  46 1.05  54 1.05  62 1.08   6 1.51
  15  0.316  0.750  0.750-  47 1.05  55 1.05  63 1.08   7 1.51
  16  0.793  0.750  0.797-  48 1.06  56 1.06  64 1.06   8 1.51
  17  0.187  0.250  0.141-   1 1.13
  18  0.723  0.250  0.145-   2 1.12
  19  0.223  0.750  0.145-   3 1.12
  20  0.687  0.750  0.141-   4 1.13
  21  0.223  0.250  0.645-   5 1.12
  22  0.687  0.250  0.641-   6 1.13
  23  0.187  0.750  0.641-   7 1.13
  24  0.723  0.750  0.645-   8 1.12
  25  0.161  0.322  0.264-   1 1.11
  26  0.648  0.323  0.247-   2 1.11
  27  0.148  0.823  0.247-   3 1.11
  28  0.661  0.822  0.264-   4 1.11
  29  0.148  0.323  0.747-   5 1.11
  30  0.661  0.322  0.764-   6 1.11
  31  0.161  0.822  0.764-   7 1.11
  32  0.648  0.823  0.747-   8 1.11
  33  0.161  0.177  0.264-   1 1.11
  34  0.648  0.177  0.248-   2 1.11
  35  0.148  0.677  0.248-   3 1.11
  36  0.661  0.677  0.264-   4 1.11
  37  0.148  0.177  0.748-   5 1.11
  38  0.661  0.177  0.764-   6 1.11
  39  0.161  0.677  0.764-   7 1.11
  40  0.648  0.677  0.748-   8 1.11
  41  0.355  0.318  0.219-   9 1.05
  42  0.841  0.318  0.283-  10 1.06
  43  0.341  0.818  0.283-  11 1.06
  44  0.855  0.818  0.219-  12 1.05
  45  0.341  0.318  0.783-  13 1.06
  46  0.855  0.318  0.719-  14 1.05
  47  0.355  0.818  0.719-  15 1.05
  48  0.841  0.818  0.783-  16 1.06
  49  0.355  0.182  0.219-   9 1.05
  50  0.841  0.182  0.283-  10 1.06
  51  0.341  0.682  0.283-  11 1.06
  52  0.855  0.682  0.219-  12 1.05
  53  0.341  0.182  0.783-  13 1.06
  54  0.855  0.182  0.719-  14 1.05
  55  0.355  0.682  0.719-  15 1.05
  56  0.841  0.682  0.783-  16 1.06
  57  0.334  0.250  0.333-   9 1.08
  58  0.772  0.250  0.378-  10 1.06
  59  0.272  0.750  0.378-  11 1.06
  60  0.834  0.750  0.333-  12 1.08
  61  0.272  0.250  0.878-  13 1.06
  62  0.834  0.250  0.833-  14 1.08
  63  0.334  0.750  0.833-  15 1.08
  64  0.772  0.750  0.878-  16 1.06
  65  0.472  0.497  0.489-  90 3.14  77 3.17  87 3.18  85 3.21  73 3.22  89 3.33
  66  0.972  0.503  0.489-  89 3.14  78 3.17  86 3.18  88 3.21  74 3.22  90 3.33
  67  0.472  0.003  0.489-  92 3.14  79 3.17  87 3.18  85 3.21  75 3.22  91 3.33
  68  0.972  0.997  0.489-  91 3.14  80 3.17  86 3.18  88 3.21  76 3.22  92 3.33
  69  0.472  0.503  0.989-  94 3.14  73 3.17  81 3.18  83 3.21  77 3.22  93 3.33
  70  0.972  0.497  0.989-  93 3.14  74 3.17  84 3.18  82 3.21  78 3.22  94 3.33
  71  0.472  0.997  0.989-  96 3.14  75 3.17  81 3.18  83 3.21  79 3.22  95 3.33
  72  0.972  0.003  0.989-  95 3.14  76 3.17  84 3.18  82 3.21  80 3.22  96 3.33
  73  0.455  0.506  0.238-  69 3.17  65 3.22
  74  0.955  0.494  0.238-  70 3.17  66 3.22
  75  0.455  0.994  0.238-  71 3.17  67 3.22
  76  0.955  0.006  0.238-  72 3.17  68 3.22
  77  0.455  0.494  0.738-  65 3.17  69 3.22
  78  0.955  0.506  0.738-  66 3.17  70 3.22
  79  0.455  0.006  0.738-  67 3.17  71 3.22
  80  0.955  0.994  0.738-  68 3.17  72 3.22
  81  0.496  0.250  0.010-  71 3.18  69 3.18
  82  0.903  0.250  0.014-  72 3.21  70 3.21
  83  0.403  0.750  0.014-  69 3.21  71 3.21
  84  0.996  0.750  0.010-  70 3.18  72 3.18
  85  0.403  0.250  0.514-  67 3.21  65 3.21
  86  0.996  0.250  0.510-  68 3.18  66 3.18
  87  0.496  0.750  0.510-  65 3.18  67 3.18
  88  0.903  0.750  0.514-  66 3.21  68 3.21
  89  0.216  0.554  0.461-  66 3.14  65 3.33
  90  0.716  0.446  0.461-  65 3.14  66 3.33
  91  0.216  0.946  0.461-  68 3.14  67 3.33
  92  0.716  0.054  0.461-  67 3.14  68 3.33
  93  0.216  0.446  0.961-  70 3.14  69 3.33
  94  0.716  0.554  0.961-  69 3.14  70 3.33
  95  0.216  0.054  0.961-  72 3.14  71 3.33
  96  0.716  0.946  0.961-  71 3.14  72 3.33
 
  LATTYP: Found a triclinic cell.
 ALAT       =    17.8238589327
 B/A-ratio  =     0.6989248630
 C/A-ratio  =     1.0156975818
 COS(alpha) =     0.0001355172
 COS(beta)  =     0.5146378593
 COS(gamma) =     0.6988877578
  
  Lattice vectors:
  
 A1 = (  -0.1406063366, -12.4576271275, -12.7466742118)
 A2 = (  -0.0011956322, -12.4575380825,   0.0007464135)
 A3 = ( -12.7162481321,  -0.0020049566, -12.8856194186)


Analysis of symmetry for initial positions (statically):
=====================================================================
 Subroutine PRICEL returns following result:
 
  LATTYP: Found a triclinic cell.
 ALAT       =     8.8524544993
 B/A-ratio  =     1.4072411401
 C/A-ratio  =     1.0225215175
 COS(alpha) =     0.0001355172
 COS(beta)  =     0.5046167836
 COS(gamma) =     0.7037964938
  
  Lattice vectors:
  
 A1 = (   6.2890165300,   6.2297269971,   0.0687261899)
 A2 = (   0.0011956322,  12.4575380825,  -0.0007464135)
 A3 = (   6.3581240661,   0.0010024783,   6.4428097093)
 
   4 primitive cells build up your supercell.
 

 Routine SETGRP: Setting up the symmetry group for a 
 triclinic supercell.


 Subroutine GETGRP returns: Found  1 space group operations
 (whereof  1 operations were pure point group operations)
 out of a pool of  2 trial point group operations.


The static configuration has the point symmetry C_1 .


Analysis of symmetry for dynamics (positions and initial velocities):
=====================================================================
 Subroutine PRICEL returns following result:
 
  LATTYP: Found a triclinic cell.
 ALAT       =     8.8524544993
 B/A-ratio  =     1.4072411401
 C/A-ratio  =     1.0225215175
 COS(alpha) =     0.0001355172
 COS(beta)  =     0.5046167836
 COS(gamma) =     0.7037964938
  
  Lattice vectors:
  
 A1 = (   6.2890165300,   6.2297269971,   0.0687261899)
 A2 = (   0.0011956322,  12.4575380825,  -0.0007464135)
 A3 = (   6.3581240661,   0.0010024783,   6.4428097093)
 
   4 primitive cells build up your supercell.
 

 Routine SETGRP: Setting up the symmetry group for a 
 triclinic supercell.


 Subroutine GETGRP returns: Found  1 space group operations
 (whereof  1 operations were pure point group operations)
 out of a pool of  2 trial point group operations.


The dynamic configuration has the point symmetry C_1 .


 Subroutine INISYM returns: Found  1 space group operations
 (whereof  1 operations are pure point group operations),
 and found     4 'primitive' translations

 
 
 KPOINTS: Automatic 3x3x3                         

Automatic generation of k-mesh.
Space group operators:
 irot       det(A)        alpha          n_x          n_y          n_z        tau_x        tau_y        tau_z
    1     1.000000     0.000000     1.000000     0.000000     0.000000     0.000000     0.000000     0.000000
 
 Subroutine IBZKPT returns following result:
 ===========================================
 
 Found     14 irreducible k-points:
 
 Following reciprocal coordinates:
            Coordinates               Weight
  0.000000  0.000000  0.000000      1.000000
  0.333333 -0.000000 -0.000000      2.000000
  0.000000  0.333333 -0.000000      2.000000
  0.333333  0.333333  0.000000      2.000000
 -0.333333  0.333333  0.000000      2.000000
  0.000000  0.000000  0.333333      2.000000
  0.333333  0.000000  0.333333      2.000000
 -0.333333  0.000000  0.333333      2.000000
  0.000000  0.333333  0.333333      2.000000
  0.333333  0.333333  0.333333      2.000000
 -0.333333  0.333333  0.333333      2.000000
  0.000000 -0.333333  0.333333      2.000000
  0.333333 -0.333333  0.333333      2.000000
 -0.333333 -0.333333  0.333333      2.000000
 
 Following cartesian coordinates:
            Coordinates               Weight
  0.000000  0.000000  0.000000      1.000000
  0.026507 -0.000003 -0.000290      2.000000
 -0.000004  0.026758 -0.000000      2.000000
  0.026503  0.026755 -0.000290      2.000000
 -0.026511  0.026760  0.000290      2.000000
 -0.000287  0.000002  0.026152      2.000000
  0.026220 -0.000001  0.025862      2.000000
 -0.026794  0.000004  0.026442      2.000000
 -0.000291  0.026759  0.026152      2.000000
  0.026215  0.026757  0.025862      2.000000
 -0.026798  0.026762  0.026442      2.000000
 -0.000283 -0.026756  0.026152      2.000000
  0.026224 -0.026759  0.025862      2.000000
 -0.026790 -0.026753  0.026442      2.000000
 


--------------------------------------------------------------------------------------------------------




 Dimension of arrays:
   k-points           NKPTS =     14   k-points in BZ     NKDIM =     14   number of bands    NBANDS=    256
   number of dos      NEDOS =    301   number of ions     NIONS =     96
   non local maximal  LDIM  =      6   non local SUM 2l+1 LMDIM =     18
   total plane-waves  NPLWV = ******
   max r-space proj   IRMAX =      1   max aug-charges    IRDMAX= 314103
   dimension x,y,z NGX =   112 NGY =  108 NGZ =  112
   dimension x,y,z NGXF=   224 NGYF=  216 NGZF=  224
   support grid    NGXF=   448 NGYF=  432 NGZF=  448
   ions per type =               8   8  48   8  24
 NGX,Y,Z   is equivalent  to a cutoff of  14.80, 14.41, 14.61 a.u.
 NGXF,Y,Z  is equivalent  to a cutoff of  29.61, 28.83, 29.21 a.u.


 I would recommend the setting:
   dimension x,y,z NGX =   109 NGY =  107 NGZ =  110
 SYSTEM =  MAPbI3-Cubic                            
 POSCAR =  C N H Pb I                              

 Startparameter for this run:
   NWRITE =      2    write-flag & timer
   PREC   = accura    normal or accurate (medium, high low for compatibility)
   ISTART =      0    job   : 0-new  1-cont  2-samecut
   ICHARG =      2    charge: 1-file 2-atom 10-const
   ISPIN  =      1    spin polarized calculation?
   LNONCOLLINEAR =      F non collinear calculations
   LSORBIT =      F    spin-orbit coupling
   INIWAV =      1    electr: 0-lowe 1-rand  2-diag
   LASPH  =      F    aspherical Exc in radial PAW
   METAGGA=      F    non-selfconsistent MetaGGA calc.

 Electronic Relaxation 1
   ENCUT  =  700.0 eV  51.45 Ry    7.17 a.u.  27.13 26.87 27.50*2*pi/ulx,y,z
   ENINI  =  700.0     initial cutoff
   ENAUG  =  644.9 eV  augmentation charge cutoff
   NELM   =     60;   NELMIN=  2; NELMDL= -5     # of ELM steps 
   EDIFF  = 0.1E-07   stopping-criterion for ELM
   LREAL  =      F    real-space projection
   NLSPLINE    = F    spline interpolate recip. space projectors
   LCOMPAT=      F    compatible to vasp.4.4
   GGA_COMPAT  = T    GGA compatible to vasp.4.4-vasp.4.6
   LMAXPAW     = -100 max onsite density
   LMAXMIX     =    2 max onsite mixed and CHGCAR
   VOSKOWN=      0    Vosko Wilk Nusair interpolation
   ROPT   =    0.00000   0.00000   0.00000   0.00000
   ROPT   =    0.00000
 Ionic relaxation
   EDIFFG = 0.1E-06   stopping-criterion for IOM
   NSW    =      0    number of steps for IOM
   NBLOCK =      1;   KBLOCK =      1    inner block; outer block 
   IBRION =     -1    ionic relax: 0-MD 1-quasi-New 2-CG
   NFREE  =      0    steps in history (QN), initial steepest desc. (CG)
   ISIF   =      2    stress and relaxation
   IWAVPR =     10    prediction:  0-non 1-charg 2-wave 3-comb
   ISYM   =      2    0-nonsym 1-usesym 2-fastsym
   LCORR  =      T    Harris-Foulkes like correction to forces

   POTIM  = 0.5000    time-step for ionic-motion
   TEIN   =    0.0    initial temperature
   TEBEG  =    0.0;   TEEND  =   0.0 temperature during run
   SMASS  =  -3.00    Nose mass-parameter (am)
   estimated Nose-frequenzy (Omega)   =  0.10E-29 period in steps =****** mass=  -0.362E-26a.u.
   SCALEE = 1.0000    scale energy and forces
   NPACO  =    256;   APACO  = 16.0  distance and # of slots for P.C.
   PSTRESS=    0.0 pullay stress

  Mass of Ions in am
   POMASS =  12.01 14.00  1.00207.20126.90
  Ionic Valenz
   ZVAL   =   4.00  5.00  1.00 14.00  7.00
  Atomic Wigner-Seitz radii
   RWIGS  =  -1.00 -1.00 -1.00 -1.00 -1.00
  virtual crystal weights 
   VCA    =   1.00  1.00  1.00  1.00  1.00
   NELECT =     400.0000    total number of electrons
   NUPDOWN=      -1.0000    fix difference up-down

 DOS related values:
   EMIN   =  10.00;   EMAX   =-10.00  energy-range for DOS
   EFERMI =   0.00
   ISMEAR =     0;   SIGMA  =   0.00  broadening in eV -4-tet -1-fermi 0-gaus

 Electronic relaxation 2 (details)
   IALGO  =     38    algorithm
   LDIAG  =      T    sub-space diagonalisation (order eigenvalues)
   LSUBROT=      F    optimize rotation matrix (better conditioning)
   TURBO    =      0    0=normal 1=particle mesh
   IRESTART =      0    0=no restart 2=restart with 2 vectors
   NREBOOT  =      0    no. of reboots
   NMIN     =      0    reboot dimension
   EREF     =   0.00    reference energy to select bands
   IMIX   =      4    mixing-type and parameters
     AMIX     =   0.40;   BMIX     =  1.00
     AMIX_MAG =   1.60;   BMIX_MAG =  1.00
     AMIN     =   0.10
     WC   =   100.;   INIMIX=   1;  MIXPRE=   1;  MAXMIX= -45

 Intra band minimization:
   WEIMIN = 0.0000     energy-eigenvalue tresh-hold
   EBREAK =  0.98E-11  absolut break condition
   DEPER  =   0.30     relativ break condition  

   TIME   =   0.40     timestep for ELM

  volume/ion in A,a.u.               =      20.80       140.38
  Fermi-wavevector in a.u.,A,eV,Ry     =   0.957863  1.810099 12.483376  0.917502
  Thomas-Fermi vector in A             =   2.086919
 
 Write flags
   LWAVE  =      F    write WAVECAR
   LCHARG =      F    write CHGCAR
   LVTOT  =      F    write LOCPOT, total local potential
   LVHAR  =      F    write LOCPOT, Hartree potential only
   LELF   =      F    write electronic localiz. function (ELF)
   LORBIT =      0    0 simple, 1 ext, 2 COOP (PROOUT)


 Dipole corrections
   LMONO  =      F    monopole corrections only (constant potential shift)
   LDIPOL =      F    correct potential (dipole corrections)
   IDIPOL =      0    1-x, 2-y, 3-z, 4-all directions 
   EPSILON=  1.0000000 bulk dielectric constant

 Exchange correlation treatment:
   GGA     =    PS    GGA type
   LEXCH   =    14    internal setting for exchange type
   VOSKOWN=      0    Vosko Wilk Nusair interpolation
   LHFCALC =     F    Hartree Fock is set to
   LHFONE  =     F    Hartree Fock one center treatment
   AEXX    =    0.0000 exact exchange contribution

 Linear response parameters
   LEPSILON=     F    determine dielectric tensor
   LRPA    =     F    only Hartree local field effects (RPA)
   LNABLA  =     F    use nabla operator in PAW spheres
   LVEL    =     F    velocity operator in full k-point grid
   LINTERFAST=   F  fast interpolation
   KINTER  =     0    interpolate to denser k-point grid
   CSHIFT  =0.1000    complex shift for real part using Kramers Kronig
   OMEGAMAX=  -1.0    maximum frequency
   DEG_THRESHOLD= 0.2000000E-02 threshold for treating states as degnerate
   RTIME   =    0.100 relaxation time in fs

 Orbital magnetization related:
   ORBITALMAG=     F  switch on orbital magnetization
   LCHIMAG   =     F  perturbation theory with respect to B field
   DQ        =  0.001000  dq finite difference perturbation B field



--------------------------------------------------------------------------------------------------------


 Static calculation
 charge density and potential will be updated during run
 non-spin polarized calculation
 Variant of blocked Davidson
 Davidson routine will perform the subspace rotation
 perform sub-space diagonalisation
    after iterative eigenvector-optimisation
 modified Broyden-mixing scheme, WC =      100.0
 initial mixing is a Kerker type mixing with AMIX =  0.4000 and BMIX =      1.0000
 Hartree-type preconditioning will be used
 using additional bands           56
 reciprocal scheme for non local part
 use partial core corrections
 calculate Harris-corrections to forces 
   (improved forces if not selfconsistent)
 use gradient corrections 
 use of overlap-Matrix (Vanderbilt PP)
 Gauss-broadening in eV      SIGMA  =   0.00


--------------------------------------------------------------------------------------------------------


  energy-cutoff  :      700.00
  volume of cell :     1996.98
      direct lattice vectors                 reciprocal lattice vectors
    12.576837428  0.001915912  0.138198793     0.079520802 -0.000007684 -0.000869670
     0.001195632 12.457538083 -0.000746413    -0.000012224  0.080272684 -0.000000427
     0.139410704  0.000089045 12.747420625    -0.000862111  0.000004784  0.078456671

  length of vectors
    12.577596840 12.457538162 12.748182927     0.079525558  0.080272685  0.078461408


 
 k-points in units of 2pi/SCALE and weight: Automatic 3x3x3                         
   0.00000000  0.00000000  0.00000000       0.037
   0.02650693 -0.00000256 -0.00028989       0.074
  -0.00000407  0.02675756 -0.00000014       0.074
   0.02650286  0.02675500 -0.00029003       0.074
  -0.02651101  0.02676012  0.00028975       0.074
  -0.00028737  0.00000159  0.02615222       0.074
   0.02621956 -0.00000097  0.02586233       0.074
  -0.02679430  0.00000416  0.02644211       0.074
  -0.00029144  0.02675916  0.02615208       0.074
   0.02621549  0.02675659  0.02586219       0.074
  -0.02679838  0.02676172  0.02644197       0.074
  -0.00028330 -0.02675597  0.02615237       0.074
   0.02622364 -0.02675853  0.02586248       0.074
  -0.02679023 -0.02675341  0.02644226       0.074
 
 k-points in reciprocal lattice and weights: Automatic 3x3x3                         
   0.00000000  0.00000000  0.00000000       0.037
   0.33333333 -0.00000000 -0.00000000       0.074
   0.00000000  0.33333333 -0.00000000       0.074
   0.33333333  0.33333333  0.00000000       0.074
  -0.33333333  0.33333333  0.00000000       0.074
   0.00000000  0.00000000  0.33333333       0.074
   0.33333333  0.00000000  0.33333333       0.074
  -0.33333333  0.00000000  0.33333333       0.074
   0.00000000  0.33333333  0.33333333       0.074
   0.33333333  0.33333333  0.33333333       0.074
  -0.33333333  0.33333333  0.33333333       0.074
   0.00000000 -0.33333333  0.33333333       0.074
   0.33333333 -0.33333333  0.33333333       0.074
  -0.33333333 -0.33333333  0.33333333       0.074
 
 position of ions in fractional coordinates (direct lattice) 
   0.19822917  0.24981100  0.22835713
   0.69575909  0.25000555  0.22947358
   0.19575909  0.75000555  0.22947358
   0.69822917  0.74981100  0.22835713
   0.19575909  0.25000555  0.72947358
   0.69822917  0.24981100  0.72835713
   0.19822917  0.74981100  0.72835713
   0.69575909  0.75000555  0.72947358
   0.31595660  0.24994115  0.25042572
   0.79311784  0.25006613  0.29734287
   0.29311784  0.75006613  0.29734287
   0.81595660  0.74994115  0.25042572
   0.29311784  0.25006613  0.79734287
   0.81595660  0.24994115  0.75042572
   0.31595660  0.74994115  0.75042572
   0.79311784  0.75006613  0.79734287
   0.18736006  0.24972431  0.14098333
   0.72279027  0.24991788  0.14479392
   0.22279027  0.74991788  0.14479392
   0.68736006  0.74972431  0.14098333
   0.22279027  0.24991788  0.64479392
   0.68736006  0.24972431  0.64098333
   0.18736006  0.74972431  0.64098333
   0.72279027  0.74991788  0.64479392
   0.16079867  0.32211494  0.26357494
   0.64787694  0.32258943  0.24745570
   0.14787694  0.82258943  0.24745570
   0.66079867  0.82211494  0.26357494
   0.14787694  0.32258943  0.74745570
   0.66079867  0.32211494  0.76357494
   0.16079867  0.82211494  0.76357494
   0.64787694  0.82258943  0.74745570
   0.16098570  0.17748595  0.26369082
   0.64789997  0.17746619  0.24761059
   0.14789997  0.67746619  0.24761059
   0.66098570  0.67748595  0.26369082
   0.14789997  0.17746619  0.74761059
   0.66098570  0.17748595  0.76369082
   0.16098570  0.67748595  0.76369082
   0.64789997  0.67746619  0.74761059
   0.35503352  0.31768999  0.21873258
   0.84123563  0.31805858  0.28278040
   0.34123563  0.81805858  0.28278040
   0.85503352  0.81768999  0.21873258
   0.34123563  0.31805858  0.78278040
   0.85503352  0.31768999  0.71873258
   0.35503352  0.81768999  0.71873258
   0.84123563  0.81805858  0.78278040
   0.35520195  0.18223272  0.21878123
   0.84120865  0.18197706  0.28300057
   0.34120865  0.68197706  0.28300057
   0.85520195  0.68223272  0.21878123
   0.34120865  0.18197706  0.78300057
   0.85520195  0.18223272  0.71878123
   0.35520195  0.68223272  0.71878123
   0.84120865  0.68197706  0.78300057
   0.33407062  0.24996487  0.33286441
   0.77226953  0.25022217  0.37835408
   0.27226953  0.75022217  0.37835408
   0.83407062  0.74996487  0.33286441
   0.27226953  0.25022217  0.87835408
   0.83407062  0.24996487  0.83286441
   0.33407062  0.74996487  0.83286441
   0.77226953  0.75022217  0.87835408
   0.47243585  0.49693821  0.48880333
   0.97244770  0.50304138  0.48881956
   0.47244770  0.00304138  0.48881956
   0.97243585  0.99693821  0.48880333
   0.47244770  0.50304138  0.98881956
   0.97243585  0.49693821  0.98880333
   0.47243585  0.99693821  0.98880333
   0.97244770  0.00304138  0.98881956
   0.45467243  0.50630801  0.23757635
   0.95481492  0.49367409  0.23756913
   0.45481492  0.99367409  0.23756913
   0.95467243  0.00630801  0.23757635
   0.45481492  0.49367409  0.73756913
   0.95467243  0.50630801  0.73757635
   0.45467243  0.00630801  0.73757635
   0.95481492  0.99367409  0.73756913
   0.49647298  0.24996776  0.00973971
   0.90279790  0.24999026  0.01392473
   0.40279790  0.74999026  0.01392473
   0.99647298  0.74996776  0.00973971
   0.40279790  0.24999026  0.51392473
   0.99647298  0.24996776  0.50973971
   0.49647298  0.74996776  0.50973971
   0.90279790  0.74999026  0.51392473
   0.21615983  0.55372506  0.46129580
   0.71618305  0.44626981  0.46118361
   0.21618305  0.94626981  0.46118361
   0.71615983  0.05372506  0.46129580
   0.21618305  0.44626981  0.96118361
   0.71615983  0.55372506  0.96129580
   0.21615983  0.05372506  0.96129580
   0.71618305  0.94626981  0.96118361
 
 position of ions in cartesian coordinates  (Angst):
   2.52523020  3.11243015  2.93817295
   8.78273897  3.11580713  3.02116270
   2.49491807  9.34361821  2.95169010
   8.81424673  9.34215715  3.00689914
   2.56402561  3.11489369  9.32577362
   8.88335426  3.11343263  9.38098266
   2.59553337  9.34124372  9.31151005
   8.85304214  9.34462069  9.39449981
   4.00894562  3.11427905  3.23576025
  10.01666591  3.11675436  3.89977595
   3.72884501  9.34456545  3.83030335
  10.29796215  9.34400605  3.30448644
   3.79795255  3.11584093 10.20438687
  10.36706968  3.11528153  9.67856996
   4.07924879  9.34309262  9.60909735
  10.08696908  9.34556792 10.27311306
   2.37635021  3.11132161  1.82288040
   9.11090037  3.11475925  1.94545117
   2.82307948  9.34257034  1.87597857
   8.66536674  9.34104860  1.89160659
   2.89218701  3.11384582  8.25006209
   8.73447428  3.11232408  8.26569011
   2.44665338  9.34013517  8.19621751
   9.18120354  9.34357281  8.31878828
   2.05946901  4.01309074  3.38188242
   8.18312668  4.01993340  3.24371686
   1.89530578 10.24774449  3.17424426
   8.34848554 10.24281774  3.45060861
   1.96441332  4.01901997  9.54832777
   8.41759308  4.01409322  9.82469213
   2.12977218 10.24190430  9.75521953
   8.25342985 10.24874696  9.61705396
   2.06166448  2.21136993  3.38349336
   8.18326433  2.21205524  3.24580290
   1.89544344  8.43986632  3.17633030
   8.35068101  8.44109693  3.45221955
   1.96455097  2.21114181  9.55041382
   8.41978855  2.21237241  9.82630307
   2.13196765  8.44018349  9.75683047
   8.25356750  8.44086880  9.61914001
   4.49607243  3.95833482  2.83710432
  10.61988665  3.96386376  3.72074104
   4.33206575 10.19167484  3.65126843
  10.78508896 10.18806181  2.90583051
   4.40117329  3.96295032 10.02535195
  10.85419649  3.95933729  9.27991403
   4.56637560 10.18714838  9.21044142
  10.69018982 10.19267732 10.09407814
   4.49803555  2.27087102  2.83784882
  10.61941529  2.26862302  3.72364550
   4.33159439  8.49643410  3.65417289
  10.78705208  8.50059802  2.90657501
   4.40070192  2.26770958 10.02825641
  10.85615961  2.27187350  9.28065853
   4.56833872  8.49968459  9.21118592
  10.68971845  8.49743658 10.09698260
   4.24825557  3.11461662  4.28914421
   9.76575410  3.11866551  4.92957855
   3.47793320  9.34647659  4.86010595
  10.53727210  9.34434361  4.35787040
   3.54704073  3.11775207 11.23418947
  10.60637964  3.11561910 10.73195392
   4.31855874  9.34343018 10.66248132
   9.83605726  9.34747907 11.30291566
   6.01048745  6.19157532  6.29590080
  12.29906479  6.26856382  6.36520421
   6.01004826  0.03883683  6.29647802
  12.29950398 12.42130232  6.36462699
   6.08035142  6.26765039 12.66981512
  12.36861152  6.19257780 12.73871051
   6.08079062 12.42038888 12.66923791
  12.36817232  0.03983930 12.73928772
   5.75206724  6.30824354  3.09094296
  12.04226197  6.15181430  3.15997944
   5.75444108 12.37962538  3.09050683
  12.03988814  0.08043246  3.16041556
   5.82354861  6.15090086  9.46459035
  12.11019131  6.30924602  9.53375267
   5.82117478  0.07951903  9.46502648
  12.11256514 12.38062786  9.53331654
   6.24571666  3.11493495  0.19258152
  11.35658255  3.11599412  0.30208336
   5.06876165  9.34380521  0.23261076
  12.53473319  9.34466195  0.26130771
   5.13786919  3.11508069  6.60669428
  12.60384072  3.11593743  6.63539123
   6.31601982  9.34374852  6.56591863
  11.42688572  9.34480769  6.67542047
   2.78357868  6.89850627  5.90979126
   9.07214524  5.56083637  5.97754397
   2.78432434 11.78864745  5.90807137
   9.07139957  0.67069518  5.97926386
   2.85343188  5.55992294 12.28215489
   9.14170274  6.89950875 12.35260097
   2.85268621  0.66978175 12.28387478
   9.14244841 11.78964993 12.35088108
 


--------------------------------------------------------------------------------------------------------


 k-point  1 :   0.0000 0.0000 0.0000  plane waves:   84007
 k-point  2 :   0.3333-0.0000-0.0000  plane waves:   84003
 k-point  3 :   0.0000 0.3333-0.0000  plane waves:   83995
 k-point  4 :   0.3333 0.3333 0.0000  plane waves:   84018
 k-point  5 :  -0.3333 0.3333 0.0000  plane waves:   84019
 k-point  6 :   0.0000 0.0000 0.3333  plane waves:   83960
 k-point  7 :   0.3333 0.0000 0.3333  plane waves:   83937
 k-point  8 :  -0.3333 0.0000 0.3333  plane waves:   83982
 k-point  9 :   0.0000 0.3333 0.3333  plane waves:   83984
 k-point 10 :   0.3333 0.3333 0.3333  plane waves:   84012
 k-point 11 :  -0.3333 0.3333 0.3333  plane waves:   83970
 k-point 12 :   0.0000-0.3333 0.3333  plane waves:   83977
 k-point 13 :   0.3333-0.3333 0.3333  plane waves:   84013
 k-point 14 :  -0.3333-0.3333 0.3333  plane waves:   83973

 maximum and minimum number of plane-waves per node :     28039    27934

 maximum number of plane-waves:     84019
 maximum index in each direction: 
   IXMAX=   27   IYMAX=   27   IZMAX=   27
   IXMIN=  -27   IYMIN=  -27   IZMIN=  -27

 NGX is ok and might be reduce to 110
 WARNING: aliasing errors must be expected set NGY to 110 to avoid them
 NGZ is ok and might be reduce to 110
 aliasing errors are usually negligible using standard VASP settings
 and one can safely disregard these warnings

 parallel 3D FFT for wavefunctions:
    minimum data exchange during FFTs selected (reduces bandwidth)
 parallel 3D FFT for charge:
    minimum data exchange during FFTs selected (reduces bandwidth)


 total amount of memory used by VASP on root node   697522. kBytes
========================================================================

   base      :      30000. kBytes
   nonl-proj :     325712. kBytes
   fftplans  :      80881. kBytes
   grid      :      57435. kBytes
   one-center:        497. kBytes
   wavefun   :     202997. kBytes
 
     INWAV:  cpu time    0.0000: real time    0.0000
 Broyden mixing: mesh for mixing (old mesh)
   NGX = 55   NGY = 53   NGZ = 55
  (NGX  =224   NGY  =216   NGZ  =224)
  gives a total of 160325 points

 initial charge density was supplied:
 charge density of overlapping atoms calculated
 number of electron     400.0000000 magnetization 
 keeping initial charge density in first step


--------------------------------------------------------------------------------------------------------


 Maximum index for augmentation-charges        14538 (set IRDMAX)


--------------------------------------------------------------------------------------------------------


 First call to EWALD:  gamma=   0.141
 Maximum number of real-space cells 3x 3x 3
 Maximum number of reciprocal cells 3x 3x 3

 FEWALD executed in parallel
    FEWALD:  cpu time    0.0040: real time    0.0039


----------------------------------------- Iteration    1(   1)  ---------------------------------------


    POTLOK:  cpu time    0.4440: real time    0.4450
    SETDIJ:  cpu time    0.7520: real time    0.7500
     EDDAV:  cpu time  247.1114: real time  247.2707
       DOS:  cpu time    0.0000: real time    0.0005
    --------------------------------------------
      LOOP:  cpu time  248.3115: real time  248.4882

 eigenvalue-minimisations  :  7176
 total energy-change (2. order) : 0.3584899E+04  (-0.1892960E+05)
 number of electron     400.0000000 magnetization 
 augmentation part      400.0000000 magnetization 

 Free energy of the ion-electron system (eV)
  ---------------------------------------------------
  alpha Z        PSCENC =       370.05370877
  Ewald energy   TEWEN  =    -15644.99411678
  -Hartree energ DENC   =     -8035.57627412
  -exchange      EXHF   =         0.00000000
  -V(xc)+E(xc)   XCENC  =       388.32010734
  PAW double counting   =     20601.23165652   -19855.90553853
  entropy T*S    EENTRO =        -0.00000000
  eigenvalues    EBANDS =      1012.76276862
  atomic energy  EATOM  =     24749.00668030
  Solvation  Ediel_sol  =         0.00000000
  ---------------------------------------------------
  free energy    TOTEN  =      3584.89899212 eV

  energy without entropy =     3584.89899212  energy(sigma->0) =     3584.89899212


--------------------------------------------------------------------------------------------------------




----------------------------------------- Iteration    1(   2)  ---------------------------------------


     EDDAV:  cpu time  268.6688: real time  268.8398
       DOS:  cpu time    0.0000: real time    0.0003
    --------------------------------------------
      LOOP:  cpu time  268.6728: real time  268.8484

 eigenvalue-minimisations  :  8008
 total energy-change (2. order) :-0.3384477E+04  (-0.3180220E+04)
 number of electron     400.0000000 magnetization 
 augmentation part      400.0000000 magnetization 

 Free energy of the ion-electron system (eV)
  ---------------------------------------------------
  alpha Z        PSCENC =       370.05370877
  Ewald energy   TEWEN  =    -15644.99411678
  -Hartree energ DENC   =     -8035.57627412
  -exchange      EXHF   =         0.00000000
  -V(xc)+E(xc)   XCENC  =       388.32010734
  PAW double counting   =     20601.23165652   -19855.90553853
  entropy T*S    EENTRO =        -0.00000000
  eigenvalues    EBANDS =     -2371.71464297
  atomic energy  EATOM  =     24749.00668030
  Solvation  Ediel_sol  =         0.00000000
  ---------------------------------------------------
  free energy    TOTEN  =       200.42158053 eV

  energy without entropy =      200.42158053  energy(sigma->0) =      200.42158053


--------------------------------------------------------------------------------------------------------




----------------------------------------- Iteration    1(   3)  ---------------------------------------


     EDDAV:  cpu time  305.5071: real time  305.6993
       DOS:  cpu time    0.0000: real time    0.0004
    --------------------------------------------
      LOOP:  cpu time  305.5111: real time  305.7132

 eigenvalue-minimisations  :  9416
 total energy-change (2. order) :-0.5964926E+03  (-0.5873359E+03)
 number of electron     400.0000000 magnetization 
 augmentation part      400.0000000 magnetization 

 Free energy of the ion-electron system (eV)
  ---------------------------------------------------
  alpha Z        PSCENC =       370.05370877
  Ewald energy   TEWEN  =    -15644.99411678
  -Hartree energ DENC   =     -8035.57627412
  -exchange      EXHF   =         0.00000000
  -V(xc)+E(xc)   XCENC  =       388.32010734
  PAW double counting   =     20601.23165652   -19855.90553853
  entropy T*S    EENTRO =         0.00000000
  eigenvalues    EBANDS =     -2968.20727005
  atomic energy  EATOM  =     24749.00668030
  Solvation  Ediel_sol  =         0.00000000
  ---------------------------------------------------
  free energy    TOTEN  =      -396.07104655 eV

  energy without entropy =     -396.07104655  energy(sigma->0) =     -396.07104655


--------------------------------------------------------------------------------------------------------




----------------------------------------- Iteration    1(   4)  ---------------------------------------


     EDDAV:  cpu time  312.8035: real time  312.9971
       DOS:  cpu time    0.0000: real time    0.0003
    --------------------------------------------
      LOOP:  cpu time  312.8035: real time  313.0906

 eigenvalue-minimisations  :  9696
 total energy-change (2. order) :-0.4093010E+02  (-0.4075046E+02)
 number of electron     400.0000000 magnetization 
 augmentation part      400.0000000 magnetization 

 Free energy of the ion-electron system (eV)
  ---------------------------------------------------
  alpha Z        PSCENC =       370.05370877
  Ewald energy   TEWEN  =    -15644.99411678
  -Hartree energ DENC   =     -8035.57627412
  -exchange      EXHF   =         0.00000000
  -V(xc)+E(xc)   XCENC  =       388.32010734
  PAW double counting   =     20601.23165652   -19855.90553853
  entropy T*S    EENTRO =        -0.00000000
  eigenvalues    EBANDS =     -3009.13737137
  atomic energy  EATOM  =     24749.00668030
  Solvation  Ediel_sol  =         0.00000000
  ---------------------------------------------------
  free energy    TOTEN  =      -437.00114787 eV

  energy without entropy =     -437.00114787  energy(sigma->0) =     -437.00114787


--------------------------------------------------------------------------------------------------------




----------------------------------------- Iteration    1(   5)  ---------------------------------------


     EDDAV:  cpu time  316.5518: real time  316.7502
       DOS:  cpu time    0.0000: real time    0.0004
    CHARGE:  cpu time    9.1886: real time    9.1978
    MIXING:  cpu time    0.0120: real time    0.0130
    --------------------------------------------
      LOOP:  cpu time  325.7604: real time  326.5083

 eigenvalue-minimisations  :  9840
 total energy-change (2. order) :-0.1515874E+01  (-0.1513172E+01)
 number of electron     400.0000000 magnetization 
 augmentation part        7.5338093 magnetization 

 Broyden mixing:
  rms(total) = 0.28693E+01    rms(broyden)= 0.28692E+01
  rms(prec ) = 0.34173E+01
  weight for this iteration     100.00

 Free energy of the ion-electron system (eV)
  ---------------------------------------------------
  alpha Z        PSCENC =       370.05370877
  Ewald energy   TEWEN  =    -15644.99411678
  -Hartree energ DENC   =     -8035.57627412
  -exchange      EXHF   =         0.00000000
  -V(xc)+E(xc)   XCENC  =       388.32010734
  PAW double counting   =     20601.23165652   -19855.90553853
  entropy T*S    EENTRO =         0.00000000
  eigenvalues    EBANDS =     -3010.65324505
  atomic energy  EATOM  =     24749.00668030
  Solvation  Ediel_sol  =         0.00000000
  ---------------------------------------------------
  free energy    TOTEN  =      -438.51702154 eV

  energy without entropy =     -438.51702154  energy(sigma->0) =     -438.51702154


--------------------------------------------------------------------------------------------------------




----------------------------------------- Iteration    1(   6)  ---------------------------------------


    POTLOK:  cpu time    0.4360: real time    0.4365
    SETDIJ:  cpu time    0.7560: real time    0.7539
     EDDAV:  cpu time  328.4445: real time  328.6492
       DOS:  cpu time    0.0000: real time    0.0005
    CHARGE:  cpu time    9.1886: real time    9.1959
    MIXING:  cpu time    0.0120: real time    0.0131
    --------------------------------------------
      LOOP:  cpu time  338.8372: real time  339.0772

 eigenvalue-minimisations  : 10280
 total energy-change (2. order) : 0.1987806E+02  (-0.3826012E+01)
 number of electron     400.0000000 magnetization 
 augmentation part        7.8734808 magnetization 

 Broyden mixing:
  rms(total) = 0.15174E+01    rms(broyden)= 0.15174E+01
  rms(prec ) = 0.17015E+01
  weight for this iteration     100.00

 eigenvalues of (default mixing * dielectric matrix)
  average eigenvalue GAMMA=   1.5664
  1.5664

 Free energy of the ion-electron system (eV)
  ---------------------------------------------------
  alpha Z        PSCENC =       370.05370877
  Ewald energy   TEWEN  =    -15644.99411678
  -Hartree energ DENC   =     -8198.07000646
  -exchange      EXHF   =         0.00000000
  -V(xc)+E(xc)   XCENC  =       402.05131799
  PAW double counting   =     22896.12605184   -22147.94438643
  entropy T*S    EENTRO =         0.00000000
  eigenvalues    EBANDS =     -2844.86821097
  atomic energy  EATOM  =     24749.00668030
  Solvation  Ediel_sol  =         0.00000000
  ---------------------------------------------------
  free energy    TOTEN  =      -418.63896173 eV

  energy without entropy =     -418.63896173  energy(sigma->0) =     -418.63896173


--------------------------------------------------------------------------------------------------------




----------------------------------------- Iteration    1(   7)  ---------------------------------------


    POTLOK:  cpu time    0.4360: real time    0.4379
    SETDIJ:  cpu time    0.7560: real time    0.7536
     EDDAV:  cpu time  318.8399: real time  319.0392
       DOS:  cpu time    0.0000: real time    0.0007
    CHARGE:  cpu time    9.1886: real time    9.1923
    MIXING:  cpu time    0.0120: real time    0.0132
    --------------------------------------------
      LOOP:  cpu time  329.2366: real time  329.4750

 eigenvalue-minimisations  :  9912
 total energy-change (2. order) : 0.2234045E+01  (-0.1844550E+01)
 number of electron     400.0000000 magnetization 
 augmentation part        7.9815561 magnetization 

 Broyden mixing:
  rms(total) = 0.77409E+00    rms(broyden)= 0.77407E+00
  rms(prec ) = 0.82694E+00
  weight for this iteration     100.00

 eigenvalues of (default mixing * dielectric matrix)
  average eigenvalue GAMMA=   1.9177
  1.5432  2.2922

 Free energy of the ion-electron system (eV)
  ---------------------------------------------------
  alpha Z        PSCENC =       370.05370877
  Ewald energy   TEWEN  =    -15644.99411678
  -Hartree energ DENC   =     -8283.82116768
  -exchange      EXHF   =         0.00000000
  -V(xc)+E(xc)   XCENC  =       411.50167789
  PAW double counting   =     25829.27341764   -25079.36426311
  entropy T*S    EENTRO =         0.00000000
  eigenvalues    EBANDS =     -2768.06085342
  atomic energy  EATOM  =     24749.00668030
  Solvation  Ediel_sol  =         0.00000000
  ---------------------------------------------------
  free energy    TOTEN  =      -416.40491638 eV

  energy without entropy =     -416.40491638  energy(sigma->0) =     -416.40491638


--------------------------------------------------------------------------------------------------------




----------------------------------------- Iteration    1(   8)  ---------------------------------------


    POTLOK:  cpu time    0.4320: real time    0.4360
    SETDIJ:  cpu time    0.7560: real time    0.7537
     EDDAV:  cpu time  288.9101: real time  289.0908
       DOS:  cpu time    0.0000: real time    0.0007
    CHARGE:  cpu time    9.1886: real time    9.1949
    MIXING:  cpu time    0.0160: real time    0.0134
    --------------------------------------------
      LOOP:  cpu time  299.3067: real time  299.5344

 eigenvalue-minimisations  :  8768
 total energy-change (2. order) : 0.1342080E+00  (-0.3995248E+00)
 number of electron     400.0000000 magnetization 
 augmentation part        7.8816358 magnetization 

 Broyden mixing:
  rms(total) = 0.21405E+00    rms(broyden)= 0.21405E+00
  rms(prec ) = 0.26471E+00
  weight for this iteration     100.00

 eigenvalues of (default mixing * dielectric matrix)
  average eigenvalue GAMMA=   1.6176
  2.4220  1.2155  1.2155

 Free energy of the ion-electron system (eV)
  ---------------------------------------------------
  alpha Z        PSCENC =       370.05370877
  Ewald energy   TEWEN  =    -15644.99411678
  -Hartree energ DENC   =     -8282.48048757
  -exchange      EXHF   =         0.00000000
  -V(xc)+E(xc)   XCENC  =       413.81560194
  PAW double counting   =     28032.35270613   -27283.41376639
  entropy T*S    EENTRO =         0.00000000
  eigenvalues    EBANDS =     -2770.61103479
  atomic energy  EATOM  =     24749.00668030
  Solvation  Ediel_sol  =         0.00000000
  ---------------------------------------------------
  free energy    TOTEN  =      -416.27070839 eV

  energy without entropy =     -416.27070839  energy(sigma->0) =     -416.27070839


--------------------------------------------------------------------------------------------------------




----------------------------------------- Iteration    1(   9)  ---------------------------------------


    POTLOK:  cpu time    0.4360: real time    0.4382
    SETDIJ:  cpu time    0.7520: real time    0.7523
     EDDAV:  cpu time  300.1948: real time  300.3803
       DOS:  cpu time    0.0000: real time    0.0007
    CHARGE:  cpu time    9.1886: real time    9.1941
    MIXING:  cpu time    0.0120: real time    0.0136
    --------------------------------------------
      LOOP:  cpu time  310.5834: real time  310.8948

 eigenvalue-minimisations  :  9200
 total energy-change (2. order) : 0.1244536E+00  (-0.1024782E+00)
 number of electron     400.0000000 magnetization 
 augmentation part        7.9005426 magnetization 

 Broyden mixing:
  rms(total) = 0.72142E-01    rms(broyden)= 0.72135E-01
  rms(prec ) = 0.81794E-01
  weight for this iteration     100.00

 eigenvalues of (default mixing * dielectric matrix)
  average eigenvalue GAMMA=   1.5063
  2.3136  0.9638  1.3739  1.3739

 Free energy of the ion-electron system (eV)
  ---------------------------------------------------
  alpha Z        PSCENC =       370.05370877
  Ewald energy   TEWEN  =    -15644.99411678
  -Hartree energ DENC   =     -8305.81635680
  -exchange      EXHF   =         0.00000000
  -V(xc)+E(xc)   XCENC  =       415.39675974
  PAW double counting   =     28171.55234551   -27422.64397741
  entropy T*S    EENTRO =        -0.00000000
  eigenvalues    EBANDS =     -2748.70129808
  atomic energy  EATOM  =     24749.00668030
  Solvation  Ediel_sol  =         0.00000000
  ---------------------------------------------------
  free energy    TOTEN  =      -416.14625475 eV

  energy without entropy =     -416.14625475  energy(sigma->0) =     -416.14625475


--------------------------------------------------------------------------------------------------------




----------------------------------------- Iteration    1(  10)  ---------------------------------------


    POTLOK:  cpu time    0.4360: real time    0.4365
    SETDIJ:  cpu time    0.7520: real time    0.7544
     EDDAV:  cpu time  294.1344: real time  294.3179
       DOS:  cpu time    0.0000: real time    0.0005
    CHARGE:  cpu time    9.1926: real time    9.1949
    MIXING:  cpu time    0.0120: real time    0.0139
    --------------------------------------------
      LOOP:  cpu time  304.5310: real time  304.7368

 eigenvalue-minimisations  :  8968
 total energy-change (2. order) :-0.1425635E-01  (-0.1545056E-01)
 number of electron     400.0000000 magnetization 
 augmentation part        7.8729908 magnetization 

 Broyden mixing:
  rms(total) = 0.58725E-01    rms(broyden)= 0.58723E-01
  rms(prec ) = 0.67374E-01
  weight for this iteration     100.00

 eigenvalues of (default mixing * dielectric matrix)
  average eigenvalue GAMMA=   1.4380
  2.3852  1.8512  1.0399  1.0399  0.8740

 Free energy of the ion-electron system (eV)
  ---------------------------------------------------
  alpha Z        PSCENC =       370.05370877
  Ewald energy   TEWEN  =    -15644.99411678
  -Hartree energ DENC   =     -8306.92509082
  -exchange      EXHF   =         0.00000000
  -V(xc)+E(xc)   XCENC  =       415.43983638
  PAW double counting   =     28160.32709322   -27411.69176848
  entropy T*S    EENTRO =         0.00000000
  eigenvalues    EBANDS =     -2747.37685369
  atomic energy  EATOM  =     24749.00668030
  Solvation  Ediel_sol  =         0.00000000
  ---------------------------------------------------
  free energy    TOTEN  =      -416.16051111 eV

  energy without entropy =     -416.16051111  energy(sigma->0) =     -416.16051111


--------------------------------------------------------------------------------------------------------




----------------------------------------- Iteration    1(  11)  ---------------------------------------


    POTLOK:  cpu time    0.4400: real time    0.4363
    SETDIJ:  cpu time    0.7520: real time    0.7534
     EDDAV:  cpu time  314.4197: real time  314.6164
       DOS:  cpu time    0.0000: real time    0.0007
    CHARGE:  cpu time    9.1886: real time    9.1945
    MIXING:  cpu time    0.0160: real time    0.0141
    --------------------------------------------
      LOOP:  cpu time  324.8163: real time  325.0598

 eigenvalue-minimisations  :  9744
 total energy-change (2. order) : 0.1430575E-02  (-0.2632719E-02)
 number of electron     400.0000000 magnetization 
 augmentation part        7.8721499 magnetization 

 Broyden mixing:
  rms(total) = 0.21083E-01    rms(broyden)= 0.21082E-01
  rms(prec ) = 0.24962E-01
  weight for this iteration     100.00

 eigenvalues of (default mixing * dielectric matrix)
  average eigenvalue GAMMA=   1.4972
  2.3995  1.9018  1.5235  1.1202  1.0190  1.0190

 Free energy of the ion-electron system (eV)
  ---------------------------------------------------
  alpha Z        PSCENC =       370.05370877
  Ewald energy   TEWEN  =    -15644.99411678
  -Hartree energ DENC   =     -8305.74329864
  -exchange      EXHF   =         0.00000000
  -V(xc)+E(xc)   XCENC  =       415.43992715
  PAW double counting   =     28210.84645259   -27462.33952095
  entropy T*S    EENTRO =         0.00000000
  eigenvalues    EBANDS =     -2748.42891297
  atomic energy  EATOM  =     24749.00668030
  Solvation  Ediel_sol  =         0.00000000
  ---------------------------------------------------
  free energy    TOTEN  =      -416.15908053 eV

  energy without entropy =     -416.15908053  energy(sigma->0) =     -416.15908053


--------------------------------------------------------------------------------------------------------




----------------------------------------- Iteration    1(  12)  ---------------------------------------


    POTLOK:  cpu time    0.4360: real time    0.4368
    SETDIJ:  cpu time    0.7520: real time    0.7538
     EDDAV:  cpu time  315.8557: real time  316.0590
       DOS:  cpu time    0.0000: real time    0.0006
    CHARGE:  cpu time    9.1886: real time    9.1952
    MIXING:  cpu time    0.0120: real time    0.0144
    --------------------------------------------
      LOOP:  cpu time  326.2524: real time  326.4787

 eigenvalue-minimisations  :  9800
 total energy-change (2. order) :-0.1493724E-02  (-0.9902981E-03)
 number of electron     400.0000000 magnetization 
 augmentation part        7.8835738 magnetization 

 Broyden mixing:
  rms(total) = 0.10277E-01    rms(broyden)= 0.10276E-01
  rms(prec ) = 0.12382E-01
  weight for this iteration     100.00

 eigenvalues of (default mixing * dielectric matrix)
  average eigenvalue GAMMA=   1.4593
  2.5930  2.3222  1.2899  1.2899  0.8920  0.9141  0.9141

 Free energy of the ion-electron system (eV)
  ---------------------------------------------------
  alpha Z        PSCENC =       370.05370877
  Ewald energy   TEWEN  =    -15644.99411678
  -Hartree energ DENC   =     -8306.31450411
  -exchange      EXHF   =         0.00000000
  -V(xc)+E(xc)   XCENC  =       415.50290528
  PAW double counting   =     28198.95392990   -27450.48640888
  entropy T*S    EENTRO =         0.00000000
  eigenvalues    EBANDS =     -2747.88276874
  atomic energy  EATOM  =     24749.00668030
  Solvation  Ediel_sol  =         0.00000000
  ---------------------------------------------------
  free energy    TOTEN  =      -416.16057426 eV

  energy without entropy =     -416.16057426  energy(sigma->0) =     -416.16057426


--------------------------------------------------------------------------------------------------------




----------------------------------------- Iteration    1(  13)  ---------------------------------------


    POTLOK:  cpu time    0.4360: real time    0.4369
    SETDIJ:  cpu time    0.7560: real time    0.7560
     EDDAV:  cpu time  281.6776: real time  281.8540
       DOS:  cpu time    0.0000: real time    0.0007
    CHARGE:  cpu time    9.1886: real time    9.1965
    MIXING:  cpu time    0.0160: real time    0.0146
    --------------------------------------------
      LOOP:  cpu time  292.0783: real time  292.3177

 eigenvalue-minimisations  :  8496
 total energy-change (2. order) :-0.3059596E-03  (-0.1564797E-03)
 number of electron     400.0000000 magnetization 
 augmentation part        7.8816581 magnetization 

 Broyden mixing:
  rms(total) = 0.82558E-02    rms(broyden)= 0.82557E-02
  rms(prec ) = 0.94622E-02
  weight for this iteration     100.00

 eigenvalues of (default mixing * dielectric matrix)
  average eigenvalue GAMMA=   1.4223
  2.5531  2.3510  1.3144  1.3144  0.9612  0.9612  0.9615  0.9615

 Free energy of the ion-electron system (eV)
  ---------------------------------------------------
  alpha Z        PSCENC =       370.05370877
  Ewald energy   TEWEN  =    -15644.99411678
  -Hartree energ DENC   =     -8306.49835840
  -exchange      EXHF   =         0.00000000
  -V(xc)+E(xc)   XCENC  =       415.52534521
  PAW double counting   =     28199.90481801   -27451.46373329
  entropy T*S    EENTRO =         0.00000000
  eigenvalues    EBANDS =     -2747.69522404
  atomic energy  EATOM  =     24749.00668030
  Solvation  Ediel_sol  =         0.00000000
  ---------------------------------------------------
  free energy    TOTEN  =      -416.16088022 eV

  energy without entropy =     -416.16088022  energy(sigma->0) =     -416.16088022


--------------------------------------------------------------------------------------------------------




----------------------------------------- Iteration    1(  14)  ---------------------------------------


    POTLOK:  cpu time    0.4360: real time    0.4368
    SETDIJ:  cpu time    0.7520: real time    0.7548
     EDDAV:  cpu time  285.2578: real time  285.4320
       DOS:  cpu time    0.0000: real time    0.0007
    CHARGE:  cpu time    9.1886: real time    9.1954
    MIXING:  cpu time    0.0160: real time    0.0150
    --------------------------------------------
      LOOP:  cpu time  295.6545: real time  295.8483

 eigenvalue-minimisations  :  8632
 total energy-change (2. order) : 0.1932276E-06  (-0.3264245E-04)
 number of electron     400.0000000 magnetization 
 augmentation part        7.8820021 magnetization 

 Broyden mixing:
  rms(total) = 0.38487E-02    rms(broyden)= 0.38487E-02
  rms(prec ) = 0.44070E-02
  weight for this iteration     100.00

 eigenvalues of (default mixing * dielectric matrix)
  average eigenvalue GAMMA=   1.5436
  2.7872  2.7872  1.8300  1.4577  1.0523  1.0523  0.9510  0.9872  0.9872

 Free energy of the ion-electron system (eV)
  ---------------------------------------------------
  alpha Z        PSCENC =       370.05370877
  Ewald energy   TEWEN  =    -15644.99411678
  -Hartree energ DENC   =     -8306.87316250
  -exchange      EXHF   =         0.00000000
  -V(xc)+E(xc)   XCENC  =       415.54918183
  PAW double counting   =     28194.31257492   -27445.85715056
  entropy T*S    EENTRO =        -0.00000000
  eigenvalues    EBANDS =     -2747.35859599
  atomic energy  EATOM  =     24749.00668030
  Solvation  Ediel_sol  =         0.00000000
  ---------------------------------------------------
  free energy    TOTEN  =      -416.16088002 eV

  energy without entropy =     -416.16088002  energy(sigma->0) =     -416.16088002


--------------------------------------------------------------------------------------------------------




----------------------------------------- Iteration    1(  15)  ---------------------------------------


    POTLOK:  cpu time    0.4360: real time    0.4356
    SETDIJ:  cpu time    0.7560: real time    0.7540
     EDDAV:  cpu time  272.7210: real time  272.8977
       DOS:  cpu time    0.0040: real time    0.0007
    CHARGE:  cpu time    9.1886: real time    9.1949
    MIXING:  cpu time    0.0160: real time    0.0154
    --------------------------------------------
      LOOP:  cpu time  283.1217: real time  283.3502

 eigenvalue-minimisations  :  8152
 total energy-change (2. order) :-0.5827254E-04  (-0.1920486E-04)
 number of electron     400.0000000 magnetization 
 augmentation part        7.8815867 magnetization 

 Broyden mixing:
  rms(total) = 0.11861E-02    rms(broyden)= 0.11859E-02
  rms(prec ) = 0.13194E-02
  weight for this iteration     100.00

 eigenvalues of (default mixing * dielectric matrix)
  average eigenvalue GAMMA=   1.4933
  3.0083  2.4849  2.1293  1.4247  1.0056  1.0056  1.0092  1.0092  0.9977  0.8586

 Free energy of the ion-electron system (eV)
  ---------------------------------------------------
  alpha Z        PSCENC =       370.05370877
  Ewald energy   TEWEN  =    -15644.99411678
  -Hartree energ DENC   =     -8307.16017891
  -exchange      EXHF   =         0.00000000
  -V(xc)+E(xc)   XCENC  =       415.56818340
  PAW double counting   =     28186.49595942   -27438.02259137
  entropy T*S    EENTRO =        -0.00000000
  eigenvalues    EBANDS =     -2747.10858312
  atomic energy  EATOM  =     24749.00668030
  Solvation  Ediel_sol  =         0.00000000
  ---------------------------------------------------
  free energy    TOTEN  =      -416.16093830 eV

  energy without entropy =     -416.16093830  energy(sigma->0) =     -416.16093830


--------------------------------------------------------------------------------------------------------




----------------------------------------- Iteration    1(  16)  ---------------------------------------


    POTLOK:  cpu time    0.4360: real time    0.4362
    SETDIJ:  cpu time    0.7560: real time    0.7546
     EDDAV:  cpu time  329.8166: real time  330.0266
       DOS:  cpu time    0.0000: real time    0.0005
    CHARGE:  cpu time    9.1926: real time    9.1969
    MIXING:  cpu time    0.0160: real time    0.0157
    --------------------------------------------
      LOOP:  cpu time  340.2173: real time  340.4679

 eigenvalue-minimisations  : 10320
 total energy-change (2. order) :-0.5546215E-05  (-0.2183448E-05)
 number of electron     400.0000000 magnetization 
 augmentation part        7.8815669 magnetization 

 Broyden mixing:
  rms(total) = 0.15750E-02    rms(broyden)= 0.15749E-02
  rms(prec ) = 0.17458E-02
  weight for this iteration     100.00

 eigenvalues of (default mixing * dielectric matrix)
  average eigenvalue GAMMA=   1.4047
  3.0210  2.4189  2.0234  1.4619  1.0413  1.0413  0.9971  0.9971  1.1005  0.8805
  0.4687

 Free energy of the ion-electron system (eV)
  ---------------------------------------------------
  alpha Z        PSCENC =       370.05370877
  Ewald energy   TEWEN  =    -15644.99411678
  -Hartree energ DENC   =     -8307.23141344
  -exchange      EXHF   =         0.00000000
  -V(xc)+E(xc)   XCENC  =       415.57397392
  PAW double counting   =     28187.65410722   -27439.17726092
  entropy T*S    EENTRO =        -0.00000000
  eigenvalues    EBANDS =     -2747.04662290
  atomic energy  EATOM  =     24749.00668030
  Solvation  Ediel_sol  =         0.00000000
  ---------------------------------------------------
[...]
   0.156E+02 0.279E-01 0.450E+02   -.163E+02 -.331E-01 -.495E+02   0.843E+00 0.552E-02 0.530E+01   -.383E-05 -.109E-06 -.289E-06
   -.359E+01 0.553E-01 0.495E+02   0.479E+01 -.600E-01 -.539E+02   -.142E+01 0.493E-02 0.516E+01   0.321E-05 -.925E-07 -.986E-05
   0.269E+02 -.386E+02 -.177E+02   -.292E+02 0.430E+02 0.198E+02   0.250E+01 -.451E+01 -.220E+01   -.487E-05 0.763E-06 0.578E-06
   0.320E+02 -.392E+02 -.203E+01   -.349E+02 0.436E+02 0.304E+01   0.311E+01 -.452E+01 -.103E+01   -.850E-05 0.116E-04 0.658E-05
   0.320E+02 -.392E+02 -.203E+01   -.349E+02 0.436E+02 0.304E+01   0.311E+01 -.452E+01 -.103E+01   -.912E-05 0.126E-04 0.479E-05
   0.269E+02 -.386E+02 -.177E+02   -.292E+02 0.430E+02 0.198E+02   0.250E+01 -.451E+01 -.220E+01   -.454E-05 0.130E-05 -.367E-06
   0.320E+02 -.392E+02 -.203E+01   -.349E+02 0.436E+02 0.304E+01   0.311E+01 -.452E+01 -.103E+01   -.814E-05 0.111E-04 0.619E-05
   0.269E+02 -.386E+02 -.177E+02   -.292E+02 0.430E+02 0.198E+02   0.250E+01 -.451E+01 -.220E+01   -.532E-05 0.991E-06 0.337E-06
   0.269E+02 -.386E+02 -.177E+02   -.292E+02 0.430E+02 0.198E+02   0.250E+01 -.451E+01 -.220E+01   -.566E-05 0.215E-05 0.191E-05
   0.320E+02 -.392E+02 -.203E+01   -.349E+02 0.436E+02 0.304E+01   0.311E+01 -.452E+01 -.103E+01   -.823E-05 0.121E-04 0.701E-05
   0.269E+02 0.386E+02 -.178E+02   -.291E+02 -.430E+02 0.199E+02   0.249E+01 0.451E+01 -.220E+01   -.563E-05 -.206E-05 -.460E-06
   0.320E+02 0.392E+02 -.212E+01   -.349E+02 -.436E+02 0.314E+01   0.311E+01 0.451E+01 -.104E+01   -.794E-05 -.119E-04 0.533E-05
   0.320E+02 0.392E+02 -.212E+01   -.349E+02 -.436E+02 0.314E+01   0.311E+01 0.451E+01 -.104E+01   -.830E-05 -.110E-04 0.602E-05
   0.269E+02 0.386E+02 -.178E+02   -.291E+02 -.430E+02 0.199E+02   0.249E+01 0.451E+01 -.220E+01   -.513E-05 -.101E-05 0.717E-06
   0.320E+02 0.392E+02 -.212E+01   -.349E+02 -.436E+02 0.314E+01   0.311E+01 0.451E+01 -.104E+01   -.894E-05 -.127E-04 0.741E-05
   0.269E+02 0.386E+02 -.178E+02   -.291E+02 -.430E+02 0.199E+02   0.249E+01 0.451E+01 -.220E+01   -.482E-05 -.166E-05 0.145E-05
   0.269E+02 0.386E+02 -.178E+02   -.291E+02 -.430E+02 0.199E+02   0.249E+01 0.451E+01 -.220E+01   -.482E-05 -.339E-06 0.715E-06
   0.320E+02 0.392E+02 -.212E+01   -.349E+02 -.436E+02 0.314E+01   0.311E+01 0.451E+01 -.104E+01   -.876E-05 -.117E-04 0.594E-05
   -.284E+02 -.477E+02 0.219E+02   0.313E+02 0.528E+02 -.243E+02   -.314E+01 -.537E+01 0.255E+01   -.106E-04 -.943E-05 0.348E-05
   -.380E+02 -.470E+02 0.127E+02   0.415E+02 0.521E+02 -.138E+02   -.381E+01 -.535E+01 0.110E+01   0.572E-05 -.170E-05 0.478E-05
   -.380E+02 -.470E+02 0.127E+02   0.415E+02 0.521E+02 -.138E+02   -.381E+01 -.535E+01 0.110E+01   0.621E-05 -.613E-06 0.386E-05
   -.284E+02 -.477E+02 0.219E+02   0.313E+02 0.528E+02 -.243E+02   -.314E+01 -.537E+01 0.255E+01   -.101E-04 -.778E-05 0.193E-05
   -.380E+02 -.470E+02 0.127E+02   0.415E+02 0.521E+02 -.138E+02   -.381E+01 -.535E+01 0.110E+01   0.657E-05 -.553E-06 0.455E-05
   -.284E+02 -.477E+02 0.219E+02   0.313E+02 0.528E+02 -.243E+02   -.314E+01 -.537E+01 0.255E+01   -.111E-04 -.103E-04 0.330E-05
   -.284E+02 -.477E+02 0.219E+02   0.313E+02 0.528E+02 -.243E+02   -.314E+01 -.537E+01 0.255E+01   -.111E-04 -.956E-05 0.433E-05
   -.380E+02 -.470E+02 0.127E+02   0.415E+02 0.521E+02 -.138E+02   -.381E+01 -.535E+01 0.110E+01   0.724E-05 0.118E-05 0.617E-05
   -.285E+02 0.476E+02 0.219E+02   0.314E+02 -.527E+02 -.243E+02   -.315E+01 0.537E+01 0.254E+01   -.108E-04 0.878E-05 0.224E-05
   -.380E+02 0.471E+02 0.126E+02   0.414E+02 -.522E+02 -.136E+02   -.381E+01 0.535E+01 0.108E+01   0.666E-05 -.492E-06 0.343E-05
   -.380E+02 0.471E+02 0.126E+02   0.414E+02 -.522E+02 -.136E+02   -.381E+01 0.535E+01 0.108E+01   0.661E-05 0.125E-06 0.517E-05
   -.285E+02 0.476E+02 0.219E+02   0.314E+02 -.527E+02 -.243E+02   -.315E+01 0.537E+01 0.254E+01   -.112E-04 0.112E-04 0.314E-05
   -.380E+02 0.471E+02 0.126E+02   0.414E+02 -.522E+02 -.136E+02   -.381E+01 0.535E+01 0.108E+01   0.620E-05 0.307E-07 0.584E-05
   -.285E+02 0.476E+02 0.219E+02   0.314E+02 -.527E+02 -.243E+02   -.315E+01 0.537E+01 0.254E+01   -.104E-04 0.821E-05 0.446E-05
   -.285E+02 0.476E+02 0.219E+02   0.314E+02 -.527E+02 -.243E+02   -.315E+01 0.537E+01 0.254E+01   -.106E-04 0.889E-05 0.306E-05
   -.380E+02 0.471E+02 0.126E+02   0.414E+02 -.522E+02 -.136E+02   -.381E+01 0.535E+01 0.108E+01   0.631E-05 0.196E-05 0.495E-05
   -.106E+02 -.374E-01 -.552E+02   0.116E+02 0.403E-01 0.604E+02   -.137E+01 -.163E-02 -.588E+01   -.662E-05 0.627E-06 -.138E-04
   0.143E+02 -.689E-01 -.610E+02   -.157E+02 0.802E-01 0.667E+02   0.156E+01 -.115E-01 -.645E+01   0.367E-05 0.257E-06 0.312E-05
   0.143E+02 -.689E-01 -.610E+02   -.157E+02 0.802E-01 0.667E+02   0.156E+01 -.115E-01 -.645E+01   0.397E-05 -.788E-06 0.345E-05
   -.106E+02 -.374E-01 -.552E+02   0.116E+02 0.403E-01 0.604E+02   -.137E+01 -.163E-02 -.588E+01   -.674E-05 0.520E-06 -.143E-04
   0.143E+02 -.689E-01 -.610E+02   -.157E+02 0.802E-01 0.667E+02   0.156E+01 -.115E-01 -.645E+01   0.375E-05 -.134E-05 0.394E-05
   -.106E+02 -.374E-01 -.552E+02   0.116E+02 0.403E-01 0.604E+02   -.137E+01 -.163E-02 -.588E+01   -.628E-05 -.195E-05 -.124E-04
   -.106E+02 -.374E-01 -.552E+02   0.116E+02 0.403E-01 0.604E+02   -.137E+01 -.163E-02 -.588E+01   -.682E-05 0.904E-06 -.133E-04
   0.143E+02 -.689E-01 -.610E+02   -.157E+02 0.802E-01 0.667E+02   0.156E+01 -.115E-01 -.645E+01   0.447E-05 0.189E-05 0.426E-05
   -.285E+02 0.127E+02 -.101E+02   0.275E+02 -.127E+02 0.984E+01   0.992E+00 -.761E-01 0.303E+00   0.241E-05 0.433E-05 -.135E-04
   -.285E+02 -.126E+02 -.102E+02   0.275E+02 0.125E+02 0.985E+01   0.994E+00 0.853E-01 0.305E+00   0.930E-05 -.421E-06 -.569E-05
   -.285E+02 -.126E+02 -.102E+02   0.275E+02 0.125E+02 0.985E+01   0.994E+00 0.853E-01 0.305E+00   -.134E-05 -.586E-05 -.163E-04
   -.285E+02 0.127E+02 -.101E+02   0.275E+02 -.127E+02 0.984E+01   0.992E+00 -.761E-01 0.303E+00   0.933E-05 0.392E-05 -.862E-05
   -.285E+02 -.126E+02 -.102E+02   0.275E+02 0.125E+02 0.985E+01   0.994E+00 0.853E-01 0.305E+00   0.266E-06 0.518E-05 -.108E-04
   -.285E+02 0.127E+02 -.101E+02   0.275E+02 -.127E+02 0.984E+01   0.992E+00 -.761E-01 0.303E+00   0.760E-05 0.527E-05 -.174E-04
   -.285E+02 0.127E+02 -.101E+02   0.275E+02 -.127E+02 0.984E+01   0.992E+00 -.761E-01 0.303E+00   -.576E-08 -.518E-05 -.874E-05
   -.285E+02 -.126E+02 -.102E+02   0.275E+02 0.125E+02 0.985E+01   0.994E+00 0.853E-01 0.305E+00   0.150E-04 -.897E-05 -.960E-05
   -.163E+02 -.580E+01 0.493E+01   0.164E+02 0.596E+01 -.486E+01   -.836E-01 -.160E+00 -.595E-01   0.749E-05 0.106E-04 0.203E-04
   -.165E+02 0.589E+01 0.490E+01   0.166E+02 -.605E+01 -.484E+01   -.874E-01 0.160E+00 -.596E-01   0.574E-05 -.106E-04 0.128E-04
   -.165E+02 0.589E+01 0.490E+01   0.166E+02 -.605E+01 -.484E+01   -.874E-01 0.160E+00 -.596E-01   0.644E-05 -.110E-04 -.121E-04
   -.163E+02 -.580E+01 0.493E+01   0.164E+02 0.596E+01 -.486E+01   -.836E-01 -.160E+00 -.595E-01   0.732E-05 0.985E-05 -.193E-04
   -.165E+02 0.589E+01 0.490E+01   0.166E+02 -.605E+01 -.484E+01   -.874E-01 0.160E+00 -.596E-01   0.641E-05 -.105E-04 -.738E-05
   -.163E+02 -.580E+01 0.493E+01   0.164E+02 0.596E+01 -.486E+01   -.836E-01 -.160E+00 -.595E-01   0.635E-05 0.116E-04 -.215E-06
   -.163E+02 -.580E+01 0.493E+01   0.164E+02 0.596E+01 -.486E+01   -.836E-01 -.160E+00 -.595E-01   0.577E-05 0.100E-04 0.247E-04
   -.165E+02 0.589E+01 0.490E+01   0.166E+02 -.605E+01 -.484E+01   -.874E-01 0.160E+00 -.596E-01   0.792E-05 -.107E-04 0.304E-04
   -.495E+02 -.472E-01 -.559E+01   0.501E+02 0.483E-01 0.599E+01   -.592E+00 -.899E-03 -.460E+00   -.175E-04 -.160E-04 -.272E-04
   0.223E+02 -.506E-01 -.156E+02   -.230E+02 0.519E-01 0.166E+02   0.863E+00 -.119E-02 -.123E+01   0.483E-04 -.298E-04 -.215E-04
   0.223E+02 -.506E-01 -.156E+02   -.230E+02 0.519E-01 0.166E+02   0.863E+00 -.119E-02 -.123E+01   0.453E-04 0.157E-04 -.217E-04
   -.495E+02 -.473E-01 -.559E+01   0.501E+02 0.483E-01 0.599E+01   -.592E+00 -.899E-03 -.460E+00   -.176E-04 0.318E-04 -.274E-04
   0.223E+02 -.506E-01 -.156E+02   -.230E+02 0.519E-01 0.166E+02   0.863E+00 -.119E-02 -.123E+01   0.472E-04 0.156E-04 -.206E-04
   -.495E+02 -.472E-01 -.559E+01   0.501E+02 0.483E-01 0.599E+01   -.592E+00 -.899E-03 -.460E+00   -.172E-04 0.376E-06 -.264E-04
   -.495E+02 -.472E-01 -.559E+01   0.501E+02 0.483E-01 0.599E+01   -.592E+00 -.899E-03 -.460E+00   -.175E-04 -.166E-04 -.266E-04
   0.223E+02 -.506E-01 -.156E+02   -.230E+02 0.519E-01 0.166E+02   0.863E+00 -.119E-02 -.123E+01   0.444E-04 -.718E-06 -.205E-04
   0.808E+01 0.934E+01 -.111E+02   -.757E+01 -.897E+01 0.107E+02   -.620E+00 -.577E+00 0.659E+00   0.103E-04 -.341E-05 0.105E-04
   0.809E+01 -.940E+01 -.113E+02   -.758E+01 0.903E+01 0.109E+02   -.621E+00 0.576E+00 0.662E+00   -.118E-04 0.329E-05 0.101E-04
   0.809E+01 -.940E+01 -.113E+02   -.758E+01 0.903E+01 0.109E+02   -.621E+00 0.576E+00 0.662E+00   -.317E-05 -.558E-06 0.637E-05
   0.808E+01 0.934E+01 -.111E+02   -.757E+01 -.897E+01 0.107E+02   -.620E+00 -.577E+00 0.659E+00   0.512E-05 0.833E-06 0.550E-05
   0.809E+01 -.940E+01 -.113E+02   -.758E+01 0.903E+01 0.109E+02   -.621E+00 0.576E+00 0.662E+00   0.506E-05 -.242E-05 0.712E-05
   0.808E+01 0.934E+01 -.111E+02   -.757E+01 -.897E+01 0.107E+02   -.620E+00 -.577E+00 0.659E+00   -.287E-05 0.331E-05 0.778E-05
   0.808E+01 0.934E+01 -.111E+02   -.757E+01 -.897E+01 0.107E+02   -.620E+00 -.577E+00 0.659E+00   -.121E-04 -.953E-05 0.128E-04
   0.809E+01 -.940E+01 -.113E+02   -.758E+01 0.903E+01 0.109E+02   -.621E+00 0.576E+00 0.662E+00   0.873E-05 0.788E-05 0.128E-04
 -----------------------------------------------------------------------------------------------
   -.577E+02 -.776E-01 -.179E+02   -.765E-12 -.167E-12 0.464E-12   0.577E+02 0.776E-01 0.179E+02   0.305E-03 -.482E-06 0.135E-03
 
 
 POSITION                                       TOTAL-FORCE (eV/Angst)
 -----------------------------------------------------------------------------------
      2.52523      3.11243      2.93817         0.389881     -0.001423     -0.278826
      8.78274      3.11581      3.02116         0.513657     -0.001957     -0.045145
      2.49492      9.34362      2.95169         0.513657     -0.001957     -0.045145
      8.81425      9.34216      3.00690         0.389881     -0.001423     -0.278826
      2.56403      3.11489      9.32577         0.513657     -0.001957     -0.045145
      8.88335      3.11343      9.38098         0.389881     -0.001423     -0.278826
      2.59553      9.34124      9.31151         0.389881     -0.001423     -0.278826
      8.85304      9.34462      9.39450         0.513657     -0.001957     -0.045145
      4.00895      3.11428      3.23576        -0.125222     -0.002174      0.251980
     10.01667      3.11675      3.89978        -0.165308     -0.003466     -0.265675
      3.72885      9.34457      3.83030        -0.165308     -0.003466     -0.265675
     10.29796      9.34401      3.30449        -0.125222     -0.002174      0.251980
      3.79795      3.11584     10.20439        -0.165308     -0.003466     -0.265675
     10.36707      3.11528      9.67857        -0.125222     -0.002174      0.251980
      4.07925      9.34309      9.60910        -0.125222     -0.002174      0.251980
     10.08697      9.34557     10.27311        -0.165308     -0.003466     -0.265675
      2.37635      3.11132      1.82288         0.177286      0.000305      0.763052
      9.11090      3.11476      1.94545        -0.222817      0.000193      0.777558
      2.82308      9.34257      1.87598        -0.222817      0.000193      0.777558
      8.66537      9.34105      1.89161         0.177286      0.000305      0.763052
      2.89219      3.11385      8.25006        -0.222817      0.000193      0.777558
      8.73447      3.11232      8.26569         0.177286      0.000305      0.763052
      2.44665      9.34014      8.19622         0.177286      0.000305      0.763052
      9.18120      9.34357      8.31879        -0.222817      0.000193      0.777558
      2.05947      4.01309      3.38188         0.215197     -0.139402     -0.104636
      8.18313      4.01993      3.24372         0.231027     -0.140505     -0.020493
      1.89531     10.24774      3.17424         0.231027     -0.140505     -0.020493
      8.34849     10.24282      3.45061         0.215197     -0.139402     -0.104636
      1.96441      4.01902      9.54833         0.231027     -0.140505     -0.020493
      8.41759      4.01409      9.82469         0.215197     -0.139402     -0.104636
      2.12977     10.24190      9.75522         0.215197     -0.139402     -0.104636
      8.25343     10.24875      9.61705         0.231027     -0.140505     -0.020493
      2.06166      2.21137      3.38349         0.214406      0.141053     -0.106468
      8.18326      2.21206      3.24580         0.231195      0.141725     -0.022264
      1.89544      8.43987      3.17633         0.231195      0.141725     -0.022264
      8.35068      8.44110      3.45222         0.214406      0.141053     -0.106468
      1.96455      2.21114      9.55041         0.231195      0.141725     -0.022264
      8.41979      2.21237      9.82630         0.214406      0.141053     -0.106468
      2.13197      8.44018      9.75683         0.214406      0.141053     -0.106468
      8.25357      8.44087      9.61914         0.231195      0.141725     -0.022264
      4.49607      3.95833      2.83710        -0.262462     -0.195141      0.131945
     10.61989      3.96386      3.72074        -0.313531     -0.218190      0.009392
      4.33207     10.19167      3.65127        -0.313531     -0.218190      0.009392
     10.78509     10.18806      2.90583        -0.262462     -0.195141      0.131945
      4.40117      3.96295     10.02535        -0.313531     -0.218190      0.009392
     10.85420      3.95934      9.27991        -0.262462     -0.195141      0.131945
      4.56638     10.18715      9.21044        -0.262462     -0.195141      0.131945
     10.69019     10.19268     10.09408        -0.313531     -0.218190      0.009392
      4.49804      2.27087      2.83785        -0.265154      0.196243      0.130639
     10.61942      2.26862      3.72365        -0.315164      0.219892      0.006561
      4.33159      8.49643      3.65417        -0.315164      0.219892      0.006561
     10.78705      8.50060      2.90658        -0.265154      0.196243      0.130639
      4.40070      2.26771     10.02826        -0.315164      0.219892      0.006561
     10.85616      2.27187      9.28066        -0.265154      0.196243      0.130639
      4.56834      8.49968      9.21119        -0.265154      0.196243      0.130639
     10.68972      8.49744     10.09698        -0.315164      0.219892      0.006561
      4.24826      3.11462      4.28914        -0.376261      0.001227     -0.741357
      9.76575      3.11867      4.92958         0.106693     -0.000154     -0.704151
      3.47793      9.34648      4.86011         0.106693     -0.000154     -0.704151
     10.53727      9.34434      4.35787        -0.376261      0.001227     -0.741357
      3.54704      3.11775     11.23419         0.106693     -0.000154     -0.704151
     10.60638      3.11562     10.73195        -0.376261      0.001227     -0.741357
      4.31856      9.34343     10.66248        -0.376261      0.001227     -0.741357
      9.83606      9.34748     11.30292         0.106693     -0.000154     -0.704151
      6.01049      6.19158      6.29590         0.011841     -0.020093     -0.009286
     12.29906      6.26856      6.36520         0.012148      0.019878     -0.009123
      6.01005      0.03884      6.29648         0.012148      0.019878     -0.009123
     12.29950     12.42130      6.36463         0.011841     -0.020093     -0.009286
      6.08035      6.26765     12.66982         0.012148      0.019878     -0.009123
     12.36861      6.19258     12.73871         0.011841     -0.020093     -0.009286
      6.08079     12.42039     12.66924         0.011841     -0.020093     -0.009286
     12.36817      0.03984     12.73929         0.012148      0.019878     -0.009123
      5.75207      6.30824      3.09094         0.013455      0.000833      0.005016
     12.04226      6.15181      3.15998         0.013531     -0.001477      0.005083
      5.75444     12.37963      3.09051         0.013531     -0.001477      0.005083
     12.03989      0.08043      3.16042         0.013455      0.000833      0.005016
      5.82355      6.15090      9.46459         0.013531     -0.001477      0.005083
     12.11019      6.30925      9.53375         0.013455      0.000833      0.005016
      5.82117      0.07952      9.46503         0.013455      0.000833      0.005016
     12.11257     12.38063      9.53332         0.013531     -0.001477      0.005083
      6.24572      3.11493      0.19258         0.010488      0.000112     -0.059415
     11.35658      3.11599      0.30208         0.125508      0.000064     -0.208530
      5.06876      9.34381      0.23261         0.125508      0.000064     -0.208530
     12.53473      9.34466      0.26131         0.010488      0.000112     -0.059415
      5.13787      3.11508      6.60669         0.125508      0.000064     -0.208530
     12.60384      3.11594      6.63539         0.010488      0.000112     -0.059415
      6.31602      9.34375      6.56592         0.010488      0.000112     -0.059415
     11.42689      9.34481      6.67542         0.125508      0.000064     -0.208530
      2.78358      6.89851      5.90979        -0.109644     -0.203940      0.245802
      9.07215      5.56084      5.97754        -0.110752      0.206397      0.248341
      2.78432     11.78865      5.90807        -0.110752      0.206397      0.248341
      9.07140      0.67070      5.97926        -0.109644     -0.203940      0.245802
      2.85343      5.55992     12.28215        -0.110752      0.206397      0.248341
      9.14170      6.89951     12.35260        -0.109644     -0.203940      0.245802
      2.85269      0.66978     12.28387        -0.109644     -0.203940      0.245802
      9.14245     11.78965     12.35088        -0.110752      0.206397      0.248341
 -----------------------------------------------------------------------------------
    total drift:                                0.000924     -0.000048      0.000143


--------------------------------------------------------------------------------------------------------



  FREE ENERGIE OF THE ION-ELECTRON SYSTEM (eV)
  ---------------------------------------------------
  free  energy   TOTEN  =      -416.16094268 eV

  energy  without entropy=     -416.16094268  energy(sigma->0) =     -416.16094268
 


--------------------------------------------------------------------------------------------------------


    POTLOK:  cpu time    1.2041: real time    1.2027


--------------------------------------------------------------------------------------------------------


     LOOP+:  cpu time 6965.0593: real time 6970.8794
    4ORBIT:  cpu time    0.0000: real time    0.0000

 total amount of memory used by VASP on root node   697522. kBytes
========================================================================

   base      :      30000. kBytes
   nonl-proj :     325712. kBytes
   fftplans  :      80881. kBytes
   grid      :      57435. kBytes
   one-center:        497. kBytes
   wavefun   :     202997. kBytes
 
  
  
 General timing and accounting informations for this job:
 ========================================================
  
                  Total CPU time used (sec):     7013.930
                            User time (sec):     7012.034
                          System time (sec):        1.896
                         Elapsed time (sec):     7020.055
  
                   Maximum memory used (kb):      640388.
                   Average memory used (kb):           0.
  
                          Minor page faults:       281204
                          Major page faults:            0
                 Voluntary context switches:         1816
