  96  96   0   0
  0.2080188E+02  0.1257760E-08  0.1245754E-08  0.1274818E-08  0.5000000E-15
  1.000000000000000E-004
  CAR 
 MAPbI3-Cubic                            
     10.09308114    -22.28660278  301      1.16168499      1.00000000
    -22.287  0.0000E+00  0.0000E+00
    -22.179  0.0000E+00  0.0000E+00
    -22.071  0.0000E+00  0.0000E+00
    -21.963  0.0000E+00  0.0000E+00
    -21.855  0.0000E+00  0.0000E+00
    -21.747  0.0000E+00  0.0000E+00
    -21.639  0.0000E+00  0.0000E+00
    -21.531  0.0000E+00  0.0000E+00
    -21.423  0.0000E+00  0.0000E+00
    -21.315  0.0000E+00  0.0000E+00
    -21.207  0.0000E+00  0.0000E+00
    -21.099  0.0000E+00  0.0000E+00
    -20.991  0.0000E+00  0.0000E+00
    -20.883  0.0000E+00  0.0000E+00
    -20.776  0.0000E+00  0.1600E+02
    -20.668  0.0000E+00  0.1600E+02
    -20.560  0.0000E+00  0.1600E+02
    -20.452  0.0000E+00  0.1600E+02
    -20.344  0.0000E+00  0.1600E+02
    -20.236  0.0000E+00  0.1600E+02
    -20.128  0.0000E+00  0.1600E+02
    -20.020  0.0000E+00  0.1600E+02
    -19.912  0.0000E+00  0.1600E+02
    -19.804  0.0000E+00  0.1600E+02
    -19.696  0.0000E+00  0.1600E+02
    -19.588  0.0000E+00  0.1600E+02
    -19.480  0.0000E+00  0.1600E+02
    -19.372  0.0000E+00  0.1600E+02
    -19.264  0.0000E+00  0.1600E+02
    -19.157  0.0000E+00  0.1600E+02
    -19.049  0.0000E+00  0.1600E+02
    -18.941  0.0000E+00  0.1600E+02
    -18.833  0.0000E+00  0.1600E+02
    -18.725  0.0000E+00  0.1600E+02
    -18.617  0.0000E+00  0.1600E+02
    -18.509  0.0000E+00  0.1600E+02
    -18.401  0.0000E+00  0.1600E+02
    -18.293  0.0000E+00  0.1600E+02
    -18.185  0.0000E+00  0.1600E+02
    -18.077  0.0000E+00  0.1600E+02
    -17.969  0.0000E+00  0.1600E+02
    -17.861  0.0000E+00  0.1600E+02
    -17.753  0.0000E+00  0.1600E+02
    -17.646  0.0000E+00  0.1600E+02
    -17.538  0.0000E+00  0.1600E+02
    -17.430  0.0000E+00  0.1600E+02
    -17.322  0.0000E+00  0.1600E+02
    -17.214  0.8392E+02  0.2906E+02
    -17.106  0.0000E+00  0.9600E+02
    -16.998  0.0000E+00  0.9600E+02
    -16.890  0.0000E+00  0.9600E+02
    -16.782  0.0000E+00  0.9600E+02
    -16.674  0.0000E+00  0.9600E+02
    -16.566  0.0000E+00  0.9600E+02
    -16.458  0.0000E+00  0.9600E+02
    -16.350  0.0000E+00  0.9600E+02
    -16.242  0.0000E+00  0.9600E+02
    -16.134  0.0000E+00  0.9600E+02
    -16.027  0.0000E+00  0.9600E+02
    -15.919  0.0000E+00  0.9600E+02
    -15.811  0.0000E+00  0.9600E+02
    -15.703  0.0000E+00  0.9600E+02
    -15.595  0.0000E+00  0.9600E+02
    -15.487  0.0000E+00  0.9600E+02
    -15.379  0.0000E+00  0.9600E+02
    -15.271  0.0000E+00  0.9600E+02
    -15.163  0.0000E+00  0.9600E+02
    -15.055  0.0000E+00  0.9600E+02
    -14.947  0.0000E+00  0.9600E+02
    -14.839  0.0000E+00  0.9600E+02
    -14.731  0.0000E+00  0.9600E+02
    -14.623  0.0000E+00  0.9600E+02
    -14.515  0.0000E+00  0.9600E+02
    -14.408  0.0000E+00  0.9600E+02
    -14.300  0.0000E+00  0.9600E+02
    -14.192  0.0000E+00  0.9600E+02
    -14.084  0.0000E+00  0.9600E+02
    -13.976  0.0000E+00  0.9600E+02
    -13.868  0.0000E+00  0.9600E+02
    -13.760  0.0000E+00  0.9600E+02
    -13.652  0.0000E+00  0.9600E+02
    -13.544  0.0000E+00  0.9600E+02
    -13.436  0.0000E+00  0.9600E+02
    -13.328  0.2137E+02  0.9868E+02
    -13.220  0.0000E+00  0.1120E+03
    -13.112  0.0000E+00  0.1120E+03
    -13.004  0.0000E+00  0.1120E+03
    -12.896  0.0000E+00  0.1120E+03
    -12.789  0.0000E+00  0.1120E+03
    -12.681  0.0000E+00  0.1120E+03
    -12.573  0.0000E+00  0.1120E+03
    -12.465  0.0000E+00  0.1120E+03
    -12.357  0.6863E+00  0.1121E+03
    -12.249  0.5590E+00  0.1135E+03
    -12.141  0.5480E+01  0.1179E+03
    -12.033  0.2813E+01  0.1234E+03
    -11.925  0.8071E-05  0.1281E+03
    -11.817  0.2054E+02  0.1326E+03
    -11.709  0.3250E-03  0.1399E+03
    -11.601  0.4118E+01  0.1436E+03
    -11.493  0.4450E+01  0.1489E+03
    -11.385  0.8638E+01  0.1576E+03
    -11.278  0.0000E+00  0.1600E+03
    -11.170  0.0000E+00  0.1600E+03
    -11.062  0.0000E+00  0.1600E+03
    -10.954  0.0000E+00  0.1600E+03
    -10.846  0.0000E+00  0.1600E+03
    -10.738  0.0000E+00  0.1600E+03
    -10.630  0.0000E+00  0.1600E+03
    -10.522  0.0000E+00  0.1600E+03
    -10.414  0.0000E+00  0.1600E+03
    -10.306  0.0000E+00  0.1600E+03
    -10.198  0.0000E+00  0.1600E+03
    -10.090  0.0000E+00  0.1600E+03
     -9.982  0.0000E+00  0.1600E+03
     -9.874  0.0000E+00  0.1600E+03
     -9.766  0.0000E+00  0.1600E+03
     -9.659  0.0000E+00  0.1600E+03
     -9.551  0.0000E+00  0.1600E+03
     -9.443  0.0000E+00  0.1600E+03
     -9.335  0.0000E+00  0.1600E+03
     -9.227  0.1055E-12  0.1600E+03
     -9.119  0.1620E+02  0.1754E+03
     -9.011  0.0000E+00  0.1920E+03
     -8.903  0.0000E+00  0.1920E+03
     -8.795  0.0000E+00  0.1920E+03
     -8.687  0.0000E+00  0.1920E+03
     -8.579  0.0000E+00  0.1920E+03
     -8.471  0.0000E+00  0.1920E+03
     -8.363  0.0000E+00  0.1920E+03
     -8.255  0.0000E+00  0.1920E+03
     -8.147  0.0000E+00  0.1920E+03
     -8.040  0.0000E+00  0.1920E+03
     -7.932  0.0000E+00  0.1921E+03
     -7.824  0.0000E+00  0.1925E+03
     -7.716  0.0000E+00  0.1934E+03
     -7.608  0.2745E+01  0.1937E+03
     -7.500  0.0000E+00  0.1944E+03
     -7.392  0.9603E-01  0.1960E+03
     -7.284  0.2799E-01  0.1976E+03
     -7.176  0.0000E+00  0.1991E+03
     -7.068  0.1818E+02  0.2054E+03
     -6.960  0.0000E+00  0.2178E+03
     -6.852  0.0000E+00  0.2196E+03
     -6.744  0.0000E+00  0.2214E+03
     -6.636  0.0000E+00  0.2223E+03
     -6.528  0.0000E+00  0.2226E+03
     -6.421  0.0000E+00  0.2235E+03
     -6.313  0.0000E+00  0.2236E+03
     -6.205  0.0000E+00  0.2239E+03
     -6.097  0.0000E+00  0.2240E+03
     -5.989  0.0000E+00  0.2240E+03
     -5.881  0.0000E+00  0.2240E+03
     -5.773  0.0000E+00  0.2240E+03
     -5.665  0.0000E+00  0.2240E+03
     -5.557  0.0000E+00  0.2240E+03
     -5.449  0.0000E+00  0.2240E+03
     -5.341  0.0000E+00  0.2240E+03
     -5.233  0.0000E+00  0.2240E+03
     -5.125  0.0000E+00  0.2240E+03
     -5.017  0.0000E+00  0.2240E+03
     -4.910  0.0000E+00  0.2240E+03
     -4.802  0.7294E+01  0.2288E+03
     -4.694  0.0000E+00  0.2560E+03
     -4.586  0.0000E+00  0.2560E+03
     -4.478  0.0000E+00  0.2560E+03
     -4.370  0.0000E+00  0.2560E+03
     -4.262  0.0000E+00  0.2560E+03
     -4.154  0.0000E+00  0.2560E+03
     -4.046  0.0000E+00  0.2560E+03
     -3.938  0.0000E+00  0.2560E+03
     -3.830  0.0000E+00  0.2560E+03
     -3.722  0.0000E+00  0.2560E+03
     -3.614  0.0000E+00  0.2560E+03
     -3.506  0.0000E+00  0.2560E+03
     -3.398  0.0000E+00  0.2560E+03
     -3.291  0.0000E+00  0.2560E+03
     -3.183  0.0000E+00  0.2560E+03
     -3.075  0.0000E+00  0.2560E+03
     -2.967  0.0000E+00  0.2560E+03
     -2.859  0.0000E+00  0.2560E+03
     -2.751  0.1454E+00  0.2571E+03
     -2.643  0.9266E+00  0.2602E+03
     -2.535  0.1381E+01  0.2627E+03
     -2.427  0.2745E+01  0.2653E+03
     -2.319  0.3772E+01  0.2672E+03
     -2.211  0.2745E+01  0.2714E+03
     -2.103  0.1373E+01  0.2742E+03
     -1.995  0.2905E+01  0.2778E+03
     -1.887  0.0000E+00  0.2796E+03
     -1.779  0.0000E+00  0.2800E+03
     -1.672  0.1780E-12  0.2802E+03
     -1.564  0.4242E+00  0.2836E+03
     -1.456  0.4121E+01  0.2882E+03
     -1.348  0.3397E+01  0.2958E+03
     -1.240  0.1373E+01  0.3018E+03
     -1.132  0.1429E-01  0.3057E+03
     -1.024  0.1373E+01  0.3103E+03
     -0.916  0.5005E+01  0.3157E+03
     -0.808  0.8222E+01  0.3239E+03
     -0.700  0.7545E+01  0.3309E+03
     -0.592  0.7549E+01  0.3368E+03
     -0.484  0.6862E+01  0.3448E+03
     -0.376  0.2564E+01  0.3535E+03
     -0.268  0.5945E+01  0.3615E+03
     -0.160  0.8325E+01  0.3704E+03
     -0.053  0.1632E+01  0.3783E+03
      0.055  0.1373E+01  0.3857E+03
      0.163  0.3857E-11  0.3901E+03
      0.271  0.5995E-10  0.3931E+03
      0.379  0.1979E+01  0.3950E+03
      0.487  0.0000E+00  0.3967E+03
      0.595  0.1307E+00  0.3981E+03
      0.703  0.0000E+00  0.3993E+03
      0.811  0.0000E+00  0.3993E+03
      0.919  0.0000E+00  0.3998E+03
      1.027  0.0000E+00  0.3999E+03
      1.135  0.6863E+00  0.4000E+03
      1.243  0.0000E+00  0.4000E+03
      1.351  0.0000E+00  0.4000E+03
      1.458  0.0000E+00  0.4000E+03
      1.566  0.0000E+00  0.4000E+03
      1.674  0.0000E+00  0.4000E+03
      1.782  0.0000E+00  0.4000E+03
      1.890  0.0000E+00  0.4000E+03
      1.998  0.0000E+00  0.4000E+03
      2.106  0.0000E+00  0.4000E+03
      2.214  0.0000E+00  0.4000E+03
      2.322  0.0000E+00  0.4000E+03
      2.430  0.0000E+00  0.4000E+03
      2.538  0.0000E+00  0.4000E+03
      2.646  0.0000E+00  0.4000E+03
      2.754  0.0000E+00  0.4000E+03
      2.862  0.0000E+00  0.4000E+03
      2.970  0.0000E+00  0.4000E+03
      3.077  0.0000E+00  0.4000E+03
      3.185  0.0000E+00  0.4000E+03
      3.293  0.0000E+00  0.4001E+03
      3.401  0.0000E+00  0.4007E+03
      3.509  0.6495E+00  0.4013E+03
      3.617  0.0000E+00  0.4029E+03
      3.725  0.0000E+00  0.4041E+03
      3.833  0.4945E-08  0.4059E+03
      3.941  0.0000E+00  0.4067E+03
      4.049  0.3110E+00  0.4079E+03
      4.157  0.0000E+00  0.4087E+03
      4.265  0.2517E-08  0.4093E+03
      4.373  0.0000E+00  0.4108E+03
      4.481  0.1991E+01  0.4127E+03
      4.589  0.0000E+00  0.4150E+03
      4.696  0.8645E-05  0.4169E+03
      4.804  0.3122E-02  0.4197E+03
      4.912  0.0000E+00  0.4227E+03
      5.020  0.0000E+00  0.4239E+03
      5.128  0.1373E+01  0.4240E+03
      5.236  0.0000E+00  0.4240E+03
      5.344  0.0000E+00  0.4240E+03
      5.452  0.0000E+00  0.4240E+03
      5.560  0.0000E+00  0.4241E+03
      5.668  0.1286E+01  0.4245E+03
      5.776  0.2746E+01  0.4263E+03
      5.884  0.0000E+00  0.4290E+03
      5.992  0.0000E+00  0.4336E+03
      6.100  0.3463E+01  0.4370E+03
      6.208  0.0000E+00  0.4390E+03
      6.315  0.3407E+00  0.4417E+03
      6.423  0.8985E+00  0.4442E+03
      6.531  0.1371E+01  0.4473E+03
      6.639  0.1792E+01  0.4506E+03
      6.747  0.2366E+01  0.4562E+03
      6.855  0.1373E+01  0.4607E+03
      6.963  0.2762E+01  0.4641E+03
      7.071  0.2760E+01  0.4689E+03
      7.179  0.7160E+00  0.4739E+03
      7.287  0.1726E+01  0.4783E+03
      7.395  0.9309E+00  0.4811E+03
      7.503  0.2789E+01  0.4851E+03
      7.611  0.6087E-12  0.4887E+03
      7.719  0.1373E+01  0.4924E+03
      7.827  0.4455E+01  0.4960E+03
      7.934  0.3658E+01  0.4993E+03
      8.042  0.5235E+01  0.5029E+03
      8.150  0.1610E+01  0.5057E+03
      8.258  0.0000E+00  0.5077E+03
      8.366  0.5307E+01  0.5100E+03
      8.474  0.6861E+00  0.5116E+03
      8.582  0.0000E+00  0.5119E+03
      8.690  0.0000E+00  0.5120E+03
      8.798  0.0000E+00  0.5120E+03
      8.906  0.0000E+00  0.5120E+03
      9.014  0.0000E+00  0.5120E+03
      9.122  0.0000E+00  0.5120E+03
      9.230  0.0000E+00  0.5120E+03
      9.338  0.0000E+00  0.5120E+03
      9.445  0.0000E+00  0.5120E+03
      9.553  0.0000E+00  0.5120E+03
      9.661  0.0000E+00  0.5120E+03
      9.769  0.0000E+00  0.5120E+03
      9.877  0.0000E+00  0.5120E+03
      9.985  0.0000E+00  0.5120E+03
     10.093  0.0000E+00  0.5120E+03
