       N       E                     dE             d eps       ncg     rms          ort
DAV:   1     0.347090679650E+05    0.34709E+05   -0.11437E+06  3584   0.486E+03
DAV:   2     0.862753679445E+04   -0.26082E+05   -0.25354E+05  3584   0.168E+03
DAV:   3     0.178400442076E+04   -0.68435E+04   -0.67400E+04  3584   0.500E+02
DAV:   4     0.437108293273E+03   -0.13469E+04   -0.12931E+04  3584   0.206E+02
DAV:   5     0.274272345824E+03   -0.16284E+03   -0.16021E+03  3584   0.773E+01
SDA:   6    -0.449223573583E+03   -0.72350E+03   -0.16021E+03  3584   0.110E+03 0.000E+00
CGA:   7    -0.467707293599E+03   -0.18484E+02   -0.18548E+02  3584   0.387E+02 0.624E+00
CGA:   8    -0.475326083343E+03   -0.76188E+01   -0.76191E+01  3584   0.816E+01 0.112E-01
CGA:   9    -0.478061546922E+03   -0.27355E+01   -0.27351E+01  3584   0.273E+01-0.796E-02
CGA:  10    -0.478926509448E+03   -0.86496E+00   -0.86578E+00  3584   0.101E+01-0.756E-02
CGA:  11    -0.479146394720E+03   -0.21989E+00   -0.21990E+00  3584   0.402E+00-0.132E-02
CGA:  12    -0.479257320412E+03   -0.11093E+00   -0.11103E+00  3584   0.100E+00-0.159E-02
CGA:  13    -0.479291661179E+03   -0.34341E-01   -0.34402E-01  3584   0.305E-01-0.442E-03
CGA:  14    -0.479301561785E+03   -0.99006E-02   -0.99062E-02  3584   0.121E-01-0.422E-04
CGA:  15    -0.479304357682E+03   -0.27959E-02   -0.27974E-02  3584   0.597E-02-0.243E-03
CGA:  16    -0.479305805071E+03   -0.14474E-02   -0.14466E-02  3584   0.180E-02 0.424E-04
CGA:  17    -0.479306473071E+03   -0.66800E-03   -0.67584E-03  3584   0.686E-03-0.539E-04
CGA:  18    -0.479306699183E+03   -0.22611E-03   -0.22531E-03  3584   0.256E-03 0.794E-05
CGA:  19    -0.479306783835E+03   -0.84651E-04   -0.85026E-04  3584   0.104E-03-0.418E-05
CGA:  20    -0.479306808997E+03   -0.25163E-04   -0.25158E-04  3584   0.425E-04 0.128E-04
CGA:  21    -0.479306824353E+03   -0.15356E-04   -0.16265E-04  3584   0.318E-04-0.946E-05
CGA:  22    -0.479306829054E+03   -0.47005E-05   -0.49067E-05  3584   0.108E-04 0.404E-05
CGA:  23    -0.479306831525E+03   -0.24713E-05   -0.25367E-05  3584   0.513E-05 0.175E-05
CGA:  24    -0.479306833188E+03   -0.16635E-05   -0.21128E-05  3584   0.763E-05-0.411E-05
CGA:  25    -0.479306833601E+03   -0.41261E-06   -0.75020E-06  3584   0.147E-05 0.222E-05
CGA:  26    -0.479306833866E+03   -0.26504E-06   -0.29784E-06  3584   0.610E-06 0.382E-06
CGA:  27    -0.479306834354E+03   -0.48785E-06    0.27505E-06  3584   0.423E-06-0.169E-06
CGA:  28    -0.479306834506E+03   -0.15182E-06    0.87517E-06  3584   0.362E-06 0.575E-07
CGA:  29    -0.479306834508E+03   -0.23028E-08   -0.36163E-07  3584   0.195E-06 0.225E-06
CGA:  30    -0.479306834537E+03   -0.28889E-07   -0.33730E-07  3584   0.532E-07 0.857E-07
CGA:  31    -0.479306834561E+03   -0.23971E-07   -0.36351E-07  3584   0.938E-07-0.493E-07
CGA:  32    -0.479306834576E+03   -0.14792E-07   -0.16793E-07  3584   0.194E-07 0.338E-07
CGA:  33    -0.479306834616E+03   -0.40742E-07    0.13921E-08  3584   0.105E-07 0.539E-08
CGA:  34    -0.479306834616E+03    0.81855E-09   -0.10981E-08  3584   0.972E-08 0.114E-07
   1 F= -.47930683E+03 E0= -.47930683E+03  d E =0.000000E+00
