       N       E                     dE             d eps       ncg     rms          ort
DAV:   1     0.139106664789E+03    0.13911E+03   -0.87056E+03  6912   0.102E+03
DAV:   2     0.328151095420E+02   -0.10629E+03   -0.10052E+03  6912   0.241E+02
DAV:   3     0.278925908796E+02   -0.49225E+01   -0.48921E+01  6912   0.527E+01
DAV:   4     0.278149110297E+02   -0.77680E-01   -0.77647E-01  6912   0.532E+00
DAV:   5     0.278141679159E+02   -0.74311E-03   -0.73929E-03  6912   0.553E-01
