 running on  192 total cores
 distrk:  each k-point on  192 cores,    1 groups
 distr:  one band on   24 cores,    8 groups
 using from now: INCAR     
 vasp.5.4.1 24Jun15 (build Nov 25 2015 16:39:35) complex                        
  
 POSCAR found :  2 types and       2 ions
 scaLAPACK will be used

 ----------------------------------------------------------------------------- 
|                                                                             |
|  ADVICE TO THIS USER RUNNING 'VASP/VAMP'   (HEAR YOUR MASTER'S VOICE ...):  |
|                                                                             |
|      You enforced a specific xc-type in the INCAR file,                     |
|      a different type was found on the POTCAR file                          |
|          I HOPE YOU KNOW, WHAT YOU ARE  DOING                               |
|                                                                             |
 ----------------------------------------------------------------------------- 

 LDA part: xc-table for Pade appr. of Perdew
 POSCAR, INCAR and KPOINTS ok, starting setup
 FFT: planning ...
 WAVECAR not read
 entering main loop
       N       E                     dE             d eps       ncg     rms          ort
DAV:   1     0.139106664789E+03    0.13911E+03   -0.87056E+03  6912   0.102E+03
DAV:   2     0.328151095420E+02   -0.10629E+03   -0.10052E+03  6912   0.241E+02
DAV:   3     0.278925908796E+02   -0.49225E+01   -0.48921E+01  6912   0.527E+01
DAV:   4     0.278149110297E+02   -0.77680E-01   -0.77647E-01  6912   0.532E+00
DAV:   5     0.278141679159E+02   -0.74311E-03   -0.73929E-03  6912   0.553E-01
 gam= 0.000 g(H,U,f)=        NaN       NaN       NaN ort(H,U,f) =       NaN       NaN       NaN
{   11,    0}:  On entry to {   10,    0}:  On entry to {    8,    0}:  On entry to 
{    5,    0}:  On entry to {    7,    0}:  On entry to {    4,    0}:  On entry to {   19,    0}:  On entry to {   21,    0}:  On entry to 
{   17,    0}:  On entry to 
{    3,    0}:  On entry to 
{   23,    0}:  On entry to {   13,    0}:  On entry to {   16,    0}:  On entry to {    5,    5}:  On entry to {   10,    5}:  On entry to 
{    7,    5}:  On entry to {   11,    5}:  On entry to {   22,    5}:  On entry to 


{    2,    5}:  On entry to {   12,    5}:  On entry to PZSTEIN parameter number    4 had an illegal value {   21,    5}:  On entry to {    7,    3}:  On entry to {   18,    3}:  On entry to {    9,    3}:  On entry to 
{   20,    3}:  On entry to {    8,    3}:  On entry to 

{    5,    1}:  On entry to {   18,    1}:  On entry to 
{   23,    1}:  On entry to {    3,    1}:  On entry to {   14,    1}:  On entry to {   20,    1}:  On entry to {   17,    1}:  On entry to {    8,    1}:  On entry to 
{   15,    0}:  On entry to PZSTEIN parameter number    4 had an illegal value {    6,    0}:  On entry to {   20,    0}:  On entry to 
{    9,    0}:  On entry to PZSTEIN parameter number    4 had an illegal value 
PZSTEIN parameter number    4 had an illegal value 

PZSTEIN parameter number    4 had an illegal value PZSTEIN parameter number    4 had an illegal value 
PZSTEIN parameter number    4 had an illegal value 

{   14,    0}:  On entry to 

PZSTEIN parameter number    4 had an illegal value PZSTEIN parameter number    4 had an illegal value 

{    2,    0}:  On entry to 


PZSTEIN parameter number    4 had an illegal value PZSTEIN parameter number    4 had an illegal value PZSTEIN parameter number    4 had an illegal value 


{   12,    0}:  On entry to {   18,    0}:  On entry to 
{   22,    0}:  On entry to 
PZSTEIN parameter number    4 had an illegal value 
PZSTEIN parameter number    4 had an illegal value 
PZSTEIN parameter number    4 had an illegal value PZSTEIN parameter number    4 had an illegal value 




PZSTEIN parameter number    4 had an illegal value 
PZSTEIN parameter number    4 had an illegal value 


PZSTEIN parameter number    4 had an illegal value 
PZSTEIN parameter number    4 had an illegal value 


{    0,    0}:  On entry to PZSTEIN parameter number    4 had an illegal value {    1,    0}:  On entry to 




PZSTEIN parameter number    4 had an illegal value PZSTEIN parameter number    4 had an illegal value PZSTEIN parameter number    4 had an illegal value 



PZSTEIN parameter number    4 had an illegal value 
{    6,    5}:  On entry to 

{   23,    5}:  On entry to 

{   20,    5}:  On entry to PZSTEIN parameter number    4 had an illegal value 
{   13,    5}:  On entry to {    8,    5}:  On entry to PZSTEIN parameter number    4 had an illegal value 
{   14,    5}:  On entry to {   18,    5}:  On entry to 

PZSTEIN parameter number    4 had an illegal value PZSTEIN parameter number    4 had an illegal value 
PZSTEIN parameter number    4 had an illegal value 

{    4,    5}:  On entry to {    9,    5}:  On entry to 

PZSTEIN parameter number    4 had an illegal value {   19,    5}:  On entry to 
PZSTEIN parameter number    4 had an illegal value 

{   17,    5}:  On entry to PZSTEIN parameter number    4 had an illegal value 


PZSTEIN parameter number    4 had an illegal value 
PZSTEIN parameter number    4 had an illegal value 
{    1,    5}:  On entry to PZSTEIN parameter number    4 had an illegal value 
{    3,    5}:  On entry to 
PZSTEIN parameter number    4 had an illegal value 
PZSTEIN parameter number    4 had an illegal value 
PZSTEIN parameter number    4 had an illegal value 


PZSTEIN parameter number    4 had an illegal value 
{    0,    5}:  On entry to {   15,    5}:  On entry to 

PZSTEIN parameter number    4 had an illegal value PZSTEIN parameter number    4 had an illegal value 



PZSTEIN parameter number    4 had an illegal value 
PZSTEIN parameter number    4 had an illegal value 


PZSTEIN parameter number    4 had an illegal value 
PZSTEIN parameter number    4 had an illegal value 
{   16,    5}:  On entry to 
PZSTEIN parameter number    4 had an illegal value PZSTEIN parameter number    4 had an illegal value 

{    9,    7}:  On entry to {   14,    7}:  On entry to {   13,    7}:  On entry to 
{    4,    7}:  On entry to 

{   16,    7}:  On entry to {   19,    7}:  On entry to PZSTEIN parameter number    4 had an illegal value {    6,    7}:  On entry to 

{    7,    7}:  On entry to {   23,    7}:  On entry to {    2,    6}:  On entry to {    1,    6}:  On entry to {   13,    6}:  On entry to {   16,    6}:  On entry to {   23,    6}:  On entry to {    3,    6}:  On entry to 
{    6,    6}:  On entry to {   17,    5}:  On entry to {   18,    5}:  On entry to {   22,    5}:  On entry to {   19,    5}:  On entry to {   21,    5}:  On entry to {   11,    5}:  On entry to {    1,    5}:  On entry to {   12,    5}:  On entry to {   14,    5}:  On entry to 
{   10,    5}:  On entry to {    5,    5}:  On entry to {    3,    4}:  On entry to {   22,    4}:  On entry to 
{   23,    4}:  On entry to {    5,    4}:  On entry to {   13,    4}:  On entry to 
{    1,    4}:  On entry to {   21,    4}:  On entry to {    6,    4}:  On entry to {    3,    2}:  On entry to {   23,    2}:  On entry to {   14,    2}:  On entry to {   17,    2}:  On entry to 
{   20,    2}:  On entry to 

{    5,    2}:  On entry to {    2,    2}:  On entry to {   17,    0}:  On entry to {    9,    0}:  On entry to {   11,    0}:  On entry to {   20,    0}:  On entry to {   22,    0}:  On entry to {    5,    0}:  On entry to {    8,    0}:  On entry to {   15,    0}:  On entry to 

{   16,    0}:  On entry to PZUNMTR parameter number    5 had an illegal value 



{    2,    0}:  On entry to 
PZUNMTR parameter number    5 had an illegal value PZUNMTR parameter number    5 had an illegal value PZUNMTR parameter number    5 had an illegal value 
{    4,    0}:  On entry to PZUNMTR parameter number    5 had an illegal value PZUNMTR parameter number    5 had an illegal value 



PZUNMTR parameter number    5 had an illegal value 
 GSD%LWWORK         800        1952        1158          32
PZUNMTR parameter number    5 had an illegal value 
 ERROR in subspace rotation PSSYEVX: not enough eigenvalues found         527


          32
{   12,    0}:  On entry to  GSD%LWWORK         800        1952        1158          32
 GSD%LWWORK         800        1952        1158          32

 ERROR in subspace rotation PSSYEVX: not enough eigenvalues found         527
PZUNMTR parameter number    5 had an illegal value  GSD%LWWORK         800        1952        1158          32
 ERROR in subspace rotation PSSYEVX: not enough eigenvalues found         527
          32
 ERROR in subspace rotation PSSYEVX: not enough eigenvalues found         527

          32
 GSD%LWWORK         800        1952        1158          32
 GSD%LWWORK         800        1952        1158          32
          32
 ERROR in subspace rotation PSSYEVX: not enough eigenvalues found         527
 GSD%LWWORK         800        1952        1158          32
 GSD%LWWORK         800        1952        1158          32
 ERROR in subspace rotation PSSYEVX: not enough eigenvalues found         527
          32
          32
 ERROR in subspace rotation PSSYEVX: not enough eigenvalues found         527
          32
 GSD%LWWORK         800        1952        1158          32
{   21,    0}:  On entry to  ERROR in subspace rotation PSSYEVX: not enough eigenvalues found         527
          32

{   19,    0}:  On entry to PZUNMTR parameter number    5 had an illegal value 

{   18,    0}:  On entry to PZUNMTR parameter number    5 had an illegal value 

{   14,    0}:  On entry to PZUNMTR parameter number    5 had an illegal value 

{   13,    0}:  On entry to PZUNMTR parameter number    5 had an illegal value 

{    0,    0}:  On entry to PZUNMTR parameter number    5 had an illegal value 

 GSD%LWWORK         800        1952        1158          32
{    3,    0}:  On entry to  ERROR in subspace rotation PSSYEVX: not enough eigenvalues found         527

 GSD%LWWORK         800        1952        1158          32
          32
 GSD%LWWORK         800        1952        1158          32
PZUNMTR parameter number    5 had an illegal value  ERROR in subspace rotation PSSYEVX: not enough eigenvalues found         527
 GSD%LWWORK         800        1952        1158          32
 ERROR in subspace rotation PSSYEVX: not enough eigenvalues found         527

          32
 GSD%LWWORK         800        1952        1158          32
          32
 ERROR in subspace rotation PSSYEVX: not enough eigenvalues found         527
 ERROR in subspace rotation PSSYEVX: not enough eigenvalues found         527
          32
          32

PZUNMTR parameter number    5 had an illegal value 
{   10,    0}:  On entry to {    6,    0}:  On entry to 

{    7,    0}:  On entry to PZUNMTR parameter number    5 had an illegal value 

PZUNMTR parameter number    5 had an illegal value PZUNMTR parameter number    5 had an illegal value 

 GSD%LWWORK         800        1952        1158          32
{    1,    0}:  On entry to  ERROR in subspace rotation PSSYEVX: not enough eigenvalues found         527
 GSD%LWWORK         800        1952        1158          32
          32

 ERROR in subspace rotation PSSYEVX: not enough eigenvalues found         527
          32
PZUNMTR parameter number    5 had an illegal value 
{   23,    0}:  On entry to 
 GSD%LWWORK         800        1952        1158          32
PZUNMTR parameter number    5 had an illegal value  ERROR in subspace rotation PSSYEVX: not enough eigenvalues found         527
 GSD%LWWORK         800        1952        1158          32

 GSD%LWWORK         800        1952        1158          32
 ERROR in subspace rotation PSSYEVX: not enough eigenvalues found         527
          32
 ERROR in subspace rotation PSSYEVX: not enough eigenvalues found         527
          32
          32

PZUNMTR parameter number    5 had an illegal value 
 GSD%LWWORK         800        1952        1158          32

 ERROR in subspace rotation PSSYEVX: not enough eigenvalues found         527
 GSD%LWWORK         800        1952        1158          32
          32
PZUNMTR parameter number    5 had an illegal value  ERROR in subspace rotation PSSYEVX: not enough eigenvalues found         527

          32
 ERROR in subspace rotation PSSYEVX: not enough eigenvalues found         527
PZUNMTR parameter number    5 had an illegal value           32
 GSD%LWWORK         800        1952        1158          32

 ERROR in subspace rotation PSSYEVX: not enough eigenvalues found         527
          32
 GSD%LWWORK         800        1952        1158          32
 ERROR in subspace rotation PSSYEVX: not enough eigenvalues found         527
          32
 GSD%LWWORK         800        1952        1158          32
 ERROR in subspace rotation PSSYEVX: not enough eigenvalues found         527
          32
{   13,    5}:  On entry to PZUNMTR parameter number    5 had an illegal value 

PZUNMTR parameter number    5 had an illegal value 


{    6,    5}:  On entry to PZUNMTR parameter number    5 had an illegal value PZUNMTR parameter number    5 had an illegal value {    3,    5}:  On entry to 



{    7,    5}:  On entry to PZUNMTR parameter number    5 had an illegal value PZUNMTR parameter number    5 had an illegal value 


{    8,    5}:  On entry to PZUNMTR parameter number    5 had an illegal value 

{    0,    5}:  On entry to PZUNMTR parameter number    5 had an illegal value 

 GSD%LWWORK         800        1952        1158          32
 GSD%LWWORK         800        1952        1158          32
PZUNMTR parameter number    5 had an illegal value  GSD%LWWORK         800        1952        1158          32
 GSD%LWWORK         800        1952        1158          32
 ERROR in subspace rotation PSSYEVX: not enough eigenvalues found         527

 ERROR in subspace rotation PSSYEVX: not enough eigenvalues found         527
 ERROR in subspace rotation PSSYEVX: not enough eigenvalues found         527
          32
          32
 ERROR in subspace rotation PSSYEVX: not enough eigenvalues found         527
          32
          32
 GSD%LWWORK         800        1952        1158          32
 GSD%LWWORK         800        1952        1158          32
 ERROR in subspace rotation PSSYEVX: not enough eigenvalues found         527
{   16,    5}:  On entry to           32

 GSD%LWWORK         800        1952        1158          32
 ERROR in subspace rotation PSSYEVX: not enough eigenvalues found         527
PZUNMTR parameter number    5 had an illegal value  ERROR in subspace rotation PSSYEVX: not enough eigenvalues found         527
          32
          32

{   23,    5}:  On entry to 

PZUNMTR parameter number    5 had an illegal value 
PZUNMTR parameter number    5 had an illegal value PZUNMTR parameter number    5 had an illegal value 


{   15,    5}:  On entry to 
{    9,    5}:  On entry to PZUNMTR parameter number    5 had an illegal value 

PZUNMTR parameter number    5 had an illegal value  GSD%LWWORK         800        1952        1158          32

{    4,    5}:  On entry to  ERROR in subspace rotation PSSYEVX: not enough eigenvalues found         527

 GSD%LWWORK         800        1952        1158          32
PZUNMTR parameter number    5 had an illegal value  GSD%LWWORK         800        1952        1158          32
 GSD%LWWORK         800        1952        1158          32
 ERROR in subspace rotation PSSYEVX: not enough eigenvalues found         527

          32
 ERROR in subspace rotation PSSYEVX: not enough eigenvalues found         527
 GSD%LWWORK         800        1952        1158          32
          32
          32
 ERROR in subspace rotation PSSYEVX: not enough eigenvalues found         527
 GSD%LWWORK         800        1952        1158          32
 ERROR in subspace rotation PSSYEVX: not enough eigenvalues found         527
 ERROR in subspace rotation PSSYEVX: not enough eigenvalues found         527
          32
          32

 GSD%LWWORK         800        1952        1158          32
PZUNMTR parameter number    5 had an illegal value 
 ERROR in subspace rotation PSSYEVX: not enough eigenvalues found         527
PZUNMTR parameter number    5 had an illegal value           32

{   20,    5}:  On entry to 
PZUNMTR parameter number    5 had an illegal value 


PZUNMTR parameter number    5 had an illegal value 
PZUNMTR parameter number    5 had an illegal value 
 GSD%LWWORK         800        1952        1158          32
 ERROR in subspace rotation PSSYEVX: not enough eigenvalues found         527
          32
 GSD%LWWORK         800        1952        1158          32
{    2,    5}:  On entry to  ERROR in subspace rotation PSSYEVX: not enough eigenvalues found         527

 GSD%LWWORK         800        1952        1158          32
 GSD%LWWORK         800        1952        1158          32
PZUNMTR parameter number    5 had an illegal value           32
 ERROR in subspace rotation PSSYEVX: not enough eigenvalues found         527

 ERROR in subspace rotation PSSYEVX: not enough eigenvalues found         527
          32

          32
PZUNMTR parameter number    5 had an illegal value 

 GSD%LWWORK         800        1952        1158          32
 GSD%LWWORK         800        1952        1158          32
 ERROR in subspace rotation PSSYEVX: not enough eigenvalues found         527
          32
 ERROR in subspace rotation PSSYEVX: not enough eigenvalues found         527
          32
PZUNMTR parameter number    5 had an illegal value           32
 GSD%LWWORK         800        1952        1158          32
 ERROR in subspace rotation PSSYEVX: not enough eigenvalues found         527
 GSD%LWWORK         800        1952        1158          32
          32
 ERROR in subspace rotation PSSYEVX: not enough eigenvalues found         527
          32


 GSD%LWWORK         800        1952        1158          32
 ERROR in subspace rotation PSSYEVX: not enough eigenvalues found         527
          32
 GSD%LWWORK         800        1952        1158          32
 ERROR in subspace rotation PSSYEVX: not enough eigenvalues found         527
          32
{    7,    1}:  On entry to 
{    4,    1}:  On entry to {   16,    1}:  On entry to PZSTEIN parameter number    4 had an illegal value 
PZSTEIN parameter number    4 had an illegal value PZSTEIN parameter number    4 had an illegal value {   19,    1}:  On entry to 





{    2,    1}:  On entry to PZSTEIN parameter number    4 had an illegal value PZSTEIN parameter number    4 had an illegal value 

{   12,    1}:  On entry to 
{   22,    1}:  On entry to PZSTEIN parameter number    4 had an illegal value {   13,    1}:  On entry to 


PZSTEIN parameter number    4 had an illegal value 

PZSTEIN parameter number    4 had an illegal value PZSTEIN parameter number    4 had an illegal value 


{   11,    1}:  On entry to PZSTEIN parameter number    4 had an illegal value 

PZSTEIN parameter number    4 had an illegal value 
{    6,    1}:  On entry to 

PZSTEIN parameter number    4 had an illegal value 
{    0,    1}:  On entry to {   15,    1}:  On entry to 

PZSTEIN parameter number    4 had an illegal value PZSTEIN parameter number    4 had an illegal value {   21,    1}:  On entry to 


{    1,    1}:  On entry to PZSTEIN parameter number    4 had an illegal value 


PZSTEIN parameter number    4 had an illegal value PZSTEIN parameter number    4 had an illegal value 
PZSTEIN parameter number    4 had an illegal value 

PZSTEIN parameter number    4 had an illegal value {    9,    1}:  On entry to 

{   10,    1}:  On entry to PZSTEIN parameter number    4 had an illegal value 

PZSTEIN parameter number    4 had an illegal value PZSTEIN parameter number    4 had an illegal value 

PZSTEIN parameter number    4 had an illegal value 


PZSTEIN parameter number    4 had an illegal value 
PZSTEIN parameter number    4 had an illegal value {    3,    7}:  On entry to 

{    8,    7}:  On entry to 


PZSTEIN parameter number    4 had an illegal value PZSTEIN parameter number    4 had an illegal value PZSTEIN parameter number    4 had an illegal value 
{   21,    7}:  On entry to 


PZSTEIN parameter number    4 had an illegal value PZSTEIN parameter number    4 had an illegal value 
{   18,    7}:  On entry to 

{   11,    7}:  On entry to PZSTEIN parameter number    4 had an illegal value 

PZSTEIN parameter number    4 had an illegal value 
{   10,    7}:  On entry to {    5,    7}:  On entry to 
PZSTEIN parameter number    4 had an illegal value 
PZSTEIN parameter number    4 had an illegal value 

PZSTEIN parameter number    4 had an illegal value 

{    1,    7}:  On entry to PZSTEIN parameter number    4 had an illegal value 

PZSTEIN parameter number    4 had an illegal value 
{    2,    7}:  On entry to 
{   20,    7}:  On entry to PZSTEIN parameter number    4 had an illegal value 


PZSTEIN parameter number    4 had an illegal value 
PZSTEIN parameter number    4 had an illegal value PZSTEIN parameter number    4 had an illegal value 

{   12,    7}:  On entry to {   15,    7}:  On entry to 
{   17,    7}:  On entry to 
PZSTEIN parameter number    4 had an illegal value 

PZSTEIN parameter number    4 had an illegal value PZSTEIN parameter number    4 had an illegal value 


{   22,    7}:  On entry to PZSTEIN parameter number    4 had an illegal value 

{    0,    7}:  On entry to PZSTEIN parameter number    4 had an illegal value 

PZSTEIN parameter number    4 had an illegal value 
{    5,    7}:  On entry to {   17,    7}:  On entry to {   18,    7}:  On entry to {   20,    7}:  On entry to {   16,    7}:  On entry to {   13,    7}:  On entry to {   22,    7}:  On entry to {   21,    7}:  On entry to {    1,    7}:  On entry to 
{    7,    7}:  On entry to {    4,    7}:  On entry to 
{   19,    7}:  On entry to 
{   23,    7}:  On entry to {    9,    7}:  On entry to 

PZUNMTR parameter number    5 had an illegal value {    3,    7}:  On entry to PZUNMTR parameter number    5 had an illegal value PZUNMTR parameter number    5 had an illegal value 




PZUNMTR parameter number    5 had an illegal value PZUNMTR parameter number    5 had an illegal value 

{   12,    7}:  On entry to 
{   11,    7}:  On entry to PZUNMTR parameter number    5 had an illegal value 

PZUNMTR parameter number    5 had an illegal value 
{   15,    7}:  On entry to 


PZUNMTR parameter number    5 had an illegal value PZUNMTR parameter number    5 had an illegal value 
PZUNMTR parameter number    5 had an illegal value  GSD%LWWORK         800        1952        1158          32

 GSD%LWWORK         800        1952        1158          32
 ERROR in subspace rotation PSSYEVX: not enough eigenvalues found         527

 ERROR in subspace rotation PSSYEVX: not enough eigenvalues found         527
          32
 GSD%LWWORK         800        1952        1158          32
 GSD%LWWORK         800        1952        1158          32
          32

 ERROR in subspace rotation PSSYEVX: not enough eigenvalues found         527
 ERROR in subspace rotation PSSYEVX: not enough eigenvalues found         527
PZUNMTR parameter number    5 had an illegal value           32

 GSD%LWWORK         800        1952        1158          32
 GSD%LWWORK         800        1952        1158          32
 GSD%LWWORK         800        1952        1158          32
 ERROR in subspace rotation PSSYEVX: not enough eigenvalues found         527
 ERROR in subspace rotation PSSYEVX: not enough eigenvalues found         527
 ERROR in subspace rotation PSSYEVX: not enough eigenvalues found         527
          32
          32
          32
{    2,    7}:  On entry to 
{    0,    7}:  On entry to PZUNMTR parameter number    5 had an illegal value  GSD%LWWORK         800        1952        1158          32


 ERROR in subspace rotation PSSYEVX: not enough eigenvalues found         527
PZUNMTR parameter number    5 had an illegal value {   10,    7}:  On entry to {   22,    6}:  On entry to {   10,    6}:  On entry to 
PZSTEIN parameter number    4 had an illegal value {   12,    6}:  On entry to 
{    7,    6}:  On entry to 


PZSTEIN parameter number    4 had an illegal value PZSTEIN parameter number    4 had an illegal value 

{   11,    6}:  On entry to {   15,    6}:  On entry to 


PZSTEIN parameter number    4 had an illegal value PZSTEIN parameter number    4 had an illegal value 
{   21,    6}:  On entry to 

PZSTEIN parameter number    4 had an illegal value PZSTEIN parameter number    4 had an illegal value {   14,    6}:  On entry to 

{    9,    6}:  On entry to 
PZSTEIN parameter number    4 had an illegal value 

{   18,    6}:  On entry to {    4,    6}:  On entry to 
PZSTEIN parameter number    4 had an illegal value 

PZSTEIN parameter number    4 had an illegal value PZSTEIN parameter number    4 had an illegal value {   20,    6}:  On entry to 

{    5,    6}:  On entry to 

{    8,    6}:  On entry to PZSTEIN parameter number    4 had an illegal value 

PZSTEIN parameter number    4 had an illegal value PZSTEIN parameter number    4 had an illegal value 

{   17,    6}:  On entry to 


PZSTEIN parameter number    4 had an illegal value PZSTEIN parameter number    4 had an illegal value 

PZSTEIN parameter number    4 had an illegal value 
{   19,    6}:  On entry to {    0,    6}:  On entry to 

PZSTEIN parameter number    4 had an illegal value PZSTEIN parameter number    4 had an illegal value 


PZSTEIN parameter number    4 had an illegal value 
PZSTEIN parameter number    4 had an illegal value PZSTEIN parameter number    4 had an illegal value 


PZSTEIN parameter number    4 had an illegal value 

PZSTEIN parameter number    4 had an illegal value 
{    5,    6}:  On entry to {   17,    6}:  On entry to {    7,    6}:  On entry to {   16,    6}:  On entry to {    1,    6}:  On entry to {   12,    6}:  On entry to {    2,    6}:  On entry to {   22,    6}:  On entry to 

{    9,    6}:  On entry to {    4,    6}:  On entry to 
{   18,    6}:  On{   10,    4}:  On entry to 

PZSTEIN parameter number    4 had an illegal value PZSTEIN parameter number    4 had an illegal value 
{   16,    4}:  On entry to 

{   17,    4}:  On entry to {    9,    4}:  On entry to PZSTEIN parameter number    4 had an illegal value 
PZSTEIN parameter number    4 had an illegal value 
PZSTEIN parameter number    4 had an illegal value 
PZSTEIN parameter number    4 had an illegal value 


PZSTEIN parameter number    4 had an illegal value 
{   14,    4}:  On entry to 

PZSTEIN parameter number    4 had an illegal value {   19,    4}:  On entry to PZSTEIN parameter number    4 had an illegal value 


{    4,    4}:  On entry to PZSTEIN parameter number    4 had an illegal value 

PZSTEIN parameter number    4 had an illegal value PZSTEIN parameter number    4 had an illegal value 


{   18,    4}:  On entry to PZSTEIN parameter number    4 had an illegal value 


PZSTEIN parameter number    4 had an illegal value {   15,    4}:  On entry to 
PZSTEIN parameter number    4 had an illegal value 

{   12,    4}:  On entry to PZSTEIN parameter number    4 had an illegal value 

{   20,    4}:  On entry to PZSTEIN parameter number    4 had an illegal value 

{   11,    4}:  On entry to PZSTEIN parameter number    4 had an illegal value 

PZSTEIN parameter number    4 had an illegal value 
{    7,    4}:  On entry to {    2,    4}:  On entry to 
{    8,    4}:  On entry to 
PZSTEIN parameter number    4 had an illegal value 
PZSTEIN parameter number    4 had an illegal value 

PZSTEIN parameter number    4 had an illegal value 

PZSTEIN parameter number    4 had an illegal value 
{    0,    4}:  On entry to 

PZSTEIN parameter number    4 had an illegal value 
{   17,    4}:  On entry to {   18,    4}:  On entry to {    5,    4}:  On entry to {   22,    4}:  On entry to {   15,    4}:  On entry to {    7,    4}:  On entry to {    8,    4}:  On entry to {    0,    4}:  On entry to 


PZUNMTR parameter number    5 had an illegal value PZUNMTR parameter number    5 had an illegal value 
{   16,    3}:  On entry to {    5,    3}:  On entry to {   22,    3}:  On entry to {    2,    3}:  On entry to {    3,    3}:  On entry to {   17,    3}:  On entry to {   10,    3}:  On entry to 

{    4,    3}:  On entry to PZSTEIN parameter number    4 had an illegal value 

{   21,    3}:  On entry to PZSTEIN parameter number    4 had an illegal value 
PZSTEIN parameter number    4 had an illegal value PZSTEIN parameter number    4 had an illegal value 


PZSTEIN parameter number    4 had an illegal value PZSTEIN parameter number    4 had an illegal value 

{   11,    3}:  On entry to PZSTEIN parameter number    4 had an illegal value {    1,    3}:  On entry to 



PZSTEIN parameter number    4 had an illegal value PZSTEIN parameter number    4 had an illegal value 

{   12,    3}:  On entry to {   14,    3}:  On entry to 

PZSTEIN parameter number    4 had an illegal value PZSTEIN parameter number    4 had an illegal value 



PZSTEIN parameter number    4 had an illegal value 
PZSTEIN parameter number    4 had an illegal value 

{    6,    3}:  On entry to PZSTEIN parameter number    4 had an illegal value 

PZSTEIN parameter number    4 had an illegal value PZSTEIN parameter number    4 had an illegal value 

{   13,    3}:  On entry to {   23,    3}:  On entry to 


PZSTEIN parameter number    4 had an illegal value PZSTEIN parameter number    4 had an illegal value 
PZSTEIN parameter number    4 had an illegal value PZSTEIN parameter number    4 had an illegal value 


{   15,    3}:  On entry to 
PZSTEIN parameter number    4 had an illegal value 
{    0,    3}:  On entry to {   19,    3}:  On entry to 


PZSTEIN parameter number    4 had an illegal value 
PZSTEIN parameter number    4 had an illegal value 

PZSTEIN parameter number    4 had an illegal value 
{   19,    2}:  On entry to 
PZSTEIN parameter number    4 had an illegal value {   22,    2}:  On entry to {    9,    2}:  On entry to 
PZSTEIN parameter number    4 had an illegal value {   15,    2}:  On entry to 


PZSTEIN parameter number    4 had an illegal value PZSTEIN parameter number    4 had an illegal value 
PZSTEIN parameter number    4 had an illegal value {   10,    2}:  On entry to 


PZSTEIN parameter number    4 had an illegal value {    4,    2}:  On entry to PZSTEIN parameter number    4 had an illegal value 


{    7,    2}:  On entry to PZSTEIN parameter number    4 had an illegal value 

{   13,    2}:  On entry to PZSTEIN parameter number    4 had an illegal value 
{    6,    2}:  On entry to 

PZSTEIN parameter number    4 had an illegal value 

PZSTEIN parameter number    4 had an illegal value {   16,    2}:  On entry to {   11,    2}:  On entry to PZSTEIN parameter number    4 had an illegal value 


PZSTEIN parameter number    4 had an illegal value 

{   18,    2}:  On entry to PZSTEIN parameter number    4 had an illegal value 

PZSTEIN parameter number    4 had an illegal value PZSTEIN parameter number    4 had an illegal value 


{    8,    2}:  On entry to PZSTEIN parameter number    4 had an illegal value 

{   12,    2}:  On entry to PZSTEIN parameter number    4 had an illegal value 

{   21,    2}:  On entry to PZSTEIN parameter number    4 had an illegal value 


{    1,    2}:  On entry to PZSTEIN parameter number    4 had an illegal value PZSTEIN parameter number    4 had an illegal value 




PZSTEIN parameter number    4 had an illegal value 
{    0,    2}:  On entry to PZSTEIN parameter number    4 had an illegal value 

PZSTEIN parameter number    4 had an illegal value 
{   17,    2}:  On entry to {    5,    2}:  On entry to {   22,    2}:  On entry to {   14,    2}:  On entry to {   16,    2}:  On entry to 
{    6,    2}:  On entry to {    4,    2}:  On entry to PZUNMTR parameter number    5 had an illegal value {    3,    2}:  On entry to {    8,    2}:  On entry to{    5,    1}:  On entry to {    9,    1}:  On entry to {    3,    1}:  On entry to {   23,    1}:  On entry to {   21,    1}:  On entry to {   10,    1}:  On entry to {   12,    1}:  On entry to {   22,    1}:  On entry to {   15,    1}:  On entry to {   20,    1}:  On entry to 
{   17,    1}:  On entry to {    7,    1}:  On entry to 


PZUNMTR parameter number    5 had an illegal value 



PZUNMTR parameter number    5 had an illegal value PZUNMTR parameter number    5 had an illegal value PZUNMTR parameter number    5 had an illegal value 
{   19,    1}:  On entry to PZUNMTR parameter number    5 had an illegal value PZUNMTR parameter number    5 had an illegal value 

{    1,    1}:  On entry to PZUNMTR parameter number    5 had an illegal value 

PZUNMTR parameter number    5 had an illegal value 
{   11,    1}:  On entry to 
{    2,    1}:  On entry to PZUNMTR parameter number    5 had an illegal value {    8,    1}:  On entry to 


{    4,    1}:  On entry to PZUNMTR parameter number    5 had an illegal value PZUNMTR parameter number    5 had an illegal value 


PZUNMTR parameter number    5 had an illegal value 
{    6,    1}:  On entry to  GSD%LWWORK         800        1952        1158          32

 GSD%LWWORK         800        1952        1158          32
PZUNMTR parameter number    5 had an illegal value  ERROR in subspace rotation PSSYEVX: not enough eigenvalues found         527
 ERROR in subspace rotation PSSYEVX: not enough eigenvalues found         527
          32
 GSD%LWWORK         800        1952        1158          32
 GSD%LWWORK         800        1952        1158          32
 GSD%LWWORK         800        1952        1158          32
 ERROR in subspace rotation PSSYEVX: not enough eigenvalues found         527
 GSD%LWWORK         800        1952        1158          32
 ERROR in subspace rotation PSSYEVX: not enough eigenvalues found         527
 ERROR in subspace rotation PSSYEVX: not enough eigenvalues found         527
 ERROR in subspace rotation PSSYEVX: not enough eigenvalues found         527
 GSD%LWWORK         800        1952        1158          32
          32
          32
          32
          32
 ERROR in subspace rotation PSSYEVX: not enough eigenvalues found         527
          32
{   14,    1}:  On entry to {   13,    1}:  On entry to 

PZUNMTR p 

PZUNMTR parameter number    5 had an illegal value 


PZUNMTR parameter number    5 had an illegal value 
PZUNMTR parameter number    5 had an illegal value 
{    1,    2}:  On entry to 
{   20,    2}:  On entry to {   15,    2}:  On entry to 
PZUNMTR parameter number    5 had an illegal value 
PZUNMTR parameter number    5 had an illegal value PZUNMTR parameter number    5 had an illegal value 

{   18,    2}:  On entry to {   12,    2}:  On entry to 

PZUNMTR parameter number    5 had an illegal value {   19,    2}:  On entry to 

PZUNMTR parameter number    5 had an illegal value  GSD%LWWORK         800        1952        1158          32

PZUNMTR parameter number    5 had an illegal value  GSD%LWWORK         800        1952        1158          32

 GSD%LWWORK         800        1952        1158          32
 ERROR in subspace rotation PSSYEVX: not enough eigenvalues found         527
 ERROR in subspace rotation PSSYEVX: not enough eigenvalues found         527
 ERROR in subspace rotation PSSYEVX: not enough eigenvalues found         527
          32
          32
 GSD%LWWORK         800        1952        1158          32
 GSD%LWWORK         800        1952        1158          32
          32
 ERROR in subspace rotation PSSYEVX: not enough eigenvalues found         527
          32
{   13,    2}:  On entry to  GSD%LWWORK         800        1952        1158          32

 ERROR in subspace rotation PSSYEVX: not enough eigenvalues found         527

          32
PZUNMTR parameter number    5 had an illegal value PZUNMTR parameter number    5 had an illegal value 


{   21,    2}:  On entry to PZUNMTR parameter number    5 had an illegal value 

{    2,    2}:  On entry to PZUNMTR parameter number    5 had an illegal value 

PZUNMTR parameter number    5 had an illegal value {   17,    3}:  On entry to {    5,    3}:  On entry to {    2,    3}:  On entry to 

{   12,    3}:  On entry to 
{   20,    4}:  On entry to {   21,    4}:  On entry to 

PZUNMTR parameter number    5 had an illegal value {   13,    4}:  On entry to PZUNMTR parameter number    5 had an illegal value 


{    3,    4}:  On entry to PZUNMTR parameter number    5 had an illegal value 

PZUNMTR parameter number    5 had an illegal value {    1,    4}:  On entry to 


PZUNMTR parameter number    5 had an illegal value {   11,    4}:  On entry to 
PZUNMTR parameter number    5 had an illegal value 
 GSD%LWWORK         800        1952        1158          32
 GSD%LWWORK         800        1952        1158          32
 GSD%LWWORK         800        1952        1158          32
 GSD%LWWORK         800        1952        1158          32
 ERROR in subspace rotation PSSYEVX: not enough eigenvalues found         527
 ERROR in subspace rotation PSSYEVX: not enough eigenvalues found         527
 ERROR in subspace rotation PSSYEVX: not enough eigenvalues found         527
          32
 GSD%LWWORK         800        1952        1158          32
          32
          32
 ERROR in subspace rotation PSSYEVX: not enough eigenvalues found         527

          32
PZUNMTR parameter number    5 had an illegal value 
{    9,    4}:  On entry to 
{   14,    4}:  On entry to PZUNMTR parameter number    5 had an illegal value 

PZUNMTR parameter number    5 had an illegal value 
{   12,    4}:  On entry to 
{   19,    4}:  On entry to PZUNMTR parameter number    5 had an illegal value  GSD%LWWORK         800        1952        1158          32


 ERROR in subspace rotation PSSYEVX: not enough eigenvalues found         527
 GSD%LWWORK         800        1952        1158          32
PZUNMTR parameter number    5 had an illegal value  ERROR in subspace rotation PSSYEVX: not enough eigenvalues found         527

          32
 GSD%LWWORK         800        1952        1158          32
{   23,    4}:  On entry to  ERROR in subspace rotation PSSYEVX: not enough eigenvalues found         527
{   16,    4}:  On entry to 
          32

PZUNMTR parameter numb entry to PZUNMTR parameter number    5 had an illegal value {   21,    6}:  On entry to 
{   15,    6}:  On entry to {   13,    6}:  On entry to 


PZUNMTR parameter number    5 had an illegal value 

PZUNMTR parameter number    5 had an illegal value 
PZUNMTR parameter number    5 had an illegal value 

PZUNMTR parameter number    5 had an illegal value PZUNMTR parameter number    5 had an illegal value 

{    3,    6}:  On entry to 
{   20,    6}:  On entry to PZUNMTR parameter number    5 had an illegal value 
 GSD%LWWORK         800        1952        1158          32

PZUNMTR parameter number    5 had an illegal value  ERROR in subspace rotation PSSYEVX: not enough eigenvalues found         527
 GSD%LWWORK         800        1952        1158          32
          32
 GSD%LWWORK         800        1952        1158          32
 GSD%LWWORK         800        1952        1158          32
 ERROR in subspace rotation PSSYEVX: not enough eigenvalues found         527
 ERROR in subspace rotation PSSYEVX: not enough eigenvalues found         527
 GSD%LWWORK         800        1952        1158          32
 ERROR in subspace rotation PSSYEVX: not enough eigenvalues found         527
 GSD%LWWORK         800        1952        1158          32
          32

          32
 ERROR in subspace rotation PSSYEVX: not enough eigenvalues found         527
PZUNMTR parameter number    5 had an illegal value {   23,    6}:  On entry to           32



PZUNMTR parameter number    5 had an illegal value 
PZUNMTR parameter number    5 had an illegal value 
{    0,    6}:  On entry to {   11,    6}:  On entry to 

{    6,    6}:  On entry to PZUNMTR parameter number    5 had an illegal value 

{   10,    6}:  On entry to  GSD%LWWORK         800        1952        1158          32

 GSD%LWWORK         800        1952        1158          32
PZUNMTR parameter number    5 had an illegal value  ERROR in subspace rotation PSSYEVX: not enough eigenvalues found         527

          32


PZUNMTR parameter number    5 had an illegal value PZU
          32

{    8,    7}:  On entry to PZUNMTR parameter number    5 had an illegal value {    6,    7}:  On entry to 


PZUNMTR parameter number    5 had an illegal value PZUNMTR parameter number    5 had an illegal value 


PZUNMTR parameter number    5 had an illegal value PZUNMTR parameter number    5 had an illegal value 

 GSD%LWWORK         800        1952        1158          32
 GSD%LWWORK         800        1952        1158          32

 ERROR in subspace rotation PSSYEVX: not enough eigenvalues found         527
 ERROR in subspace rotation PSSYEVX: not enough eigenvalues found         527
PZUNMTR parameter number    5 had an illegal value           32

 GSD%LWWORK         800        1952        1158          32
          32
 GSD%LWWORK         800        1952        1158          32
 ERROR in subspace rotation PSSYEVX: not enough eigenvalues found         527
 ERROR in subspace rotation PSSYEVX: not enough eigenvalues found         527
          32
 GSD%LWWORK         800        1952        1158          32
 GSD%LWWORK         800        1952        1158          32
          32
 ERROR in subspace rotation PSSYEVX: not enough eigenvalues found         527
 ERROR in subspace rotation PSSYEVX: not enough eigenvalues found         527
          32
          32
PZUNMTR parameter number    5 had an illegal value 
PZUNMTR parameter number    5 had an illegal value  GSD%LWWORK         800        1952        1158          32


 ERROR in subspace rotation PSSYEVX: not enough eigenvalues found         527
          32

{   14,    7}:  On entry to PZUNMTR parameter number    5 had an illegal value 

 GSD%LWWORK         800        1952        1158          32
PZUNMTR parameter number    5 had an illegal value           32

 ERROR in subspace rotation PSSYEVX: not enough eigenvalues found         527
 GSD%LWWORK         800        1952        1158          32
          32
 ERROR in subspace rotation PSSYEVX: not enough eigenvalues found         527
 GSD%LWWORK         800        1952        1158          32
          32
 ERROR in subspace rotation PSSYEVX: not enough eigenvalues found         527
 GSD%LWWORK         800        1952        1158          32
          32

 GSD%LWWORK         800        1952        1158          32
 ERROR in subspace rotation PSSYEVX: not enough eigenvalues found         527
 GSD%LWWORK         800        1952        1158          32
 GSD%LWWORK         800        1952        1158          32
 ERROR in subspace rotation PSSYEVX: not enough eigenvalues found         527
 ERROR in subspace rotation PSSYEVX: not enough eigenvalues found         527
 ERROR in subspace rotation PSSYEVX: not enough eigenvalues found         527
          32
          32
          32
          32
 GSD%LWWORK         800        1952        1158          32
 ERROR in subspace rotation PSSYEVX: not enough eigenvalues found         527
          32
PZUNMTR parameter number    5 had an illegal value 
 GSD%LWWORK         800        1952        1158          32
 ERROR in subspace rotation PSSYEVX: not enough eigenvalues found         527
          32
NMTR parameter number    5 had an illegal value  GSD%LWWORK         800        1952        1158          32


 ERROR in subspace rotation PSSYEVX: not enough eigenvalues found         527
          32
{   19,    6}:  On entry to 
 GSD%LWWORK         800        1952        1158          32
PZUNMTR parameter number    5 had an illegal value  ERROR in subspace rotation PSSYEVX: not enough eigenvalues found         527

          32
{    8,    6}:  On entry to 
PZUNMTR parameter number    5 had an illegal value PZUNMTR parameter number    5 had an illegal value 

 GSD%LWWORK         800        1952        1158          32
 GSD%LWWORK         800        1952        1158          32
 ERROR in subspace rotation PSSYEVX: not enough eigenvalues found         527
 ERROR in subspace rotation PSSYEVX: not enough eigenvalues found         527
          32
          32

{   14,    6}:  On entry to PZUNMTR parameter number    5 had an illegal value  GSD%LWWORK         800        1952        1158          32


 GSD%LWWORK         800        1952        1158          32
 GSD%LWWORK         800        1952        1158          32
 ERROR in subspace rotation PSSYEVX: not enough eigenvalues found         527
PZUNMTR parameter number    5 had an illegal value           32


PZUNMTR parameter number    5 had an illegal value PZUNMTR parameter number    5 had an illegal value 

 GSD%LWWORK         800        1952        1158          32
 ERROR in subspace rotation PSSYEVX: not enough eigenvalues found         527
          32

 GSD%LWWORK         800        1952        1158          32
 GSD%LWWORK         800        1952        1158          32
 ERROR in subspace rotation PSSYEVX: not enough eigenvalues found         527
 ERROR in subspace rotation PSSYEVX: not enough eigenvalues found         527
          32
          32
 GSD%LWWORK         800        1952        1158          32
 GSD%LWWORK         800        1952        1158          32
 ERROR in subspace rotation PSSYEVX: not enough eigenvalues found         527
 ERROR in subspaceer    5 had an illegal value PZUNMTR parameter number    5 had an illegal value 


 GSD%LWWORK         800        1952        1158          32
PZUNMTR parameter number    5 had an illegal value  ERROR in subspace rotation PSSYEVX: not enough eigenvalues found         527

 GSD%LWWORK         800        1952        1158          32
          32
 ERROR in subspace rotation PSSYEVX: not enough eigenvalues found         527
          32


PZUNMTR parameter number    5 had an illegal value PZUNMTR parameter number    5 had an illegal value 

 GSD%LWWORK         800        1952        1158          32
 GSD%LWWORK         800        1952        1158          32
{    4,    4}:  On entry to  ERROR in subspace rotation PSSYEVX: not enough eigenvalues found         527

 ERROR in subspace rotation PSSYEVX: not enough eigenvalues found         527
PZUNMTR parameter number    5 had an illegal value  GSD%LWWORK         800        1952        1158          32
          32
          32

 ERROR in subspace rotation PSSYEVX: not enough eigenvalues found         527
          32
{    2,    4}:  On entry to  GSD%LWWORK         800        1952        1158          32
 GSD%LWWORK         800        1952        1158          32
 ERROR in subspace rotation PSSYEVX: not enough eigenvalues found         527

          32
 ERROR in subspace rotation PSSYEVX: not enough eigenvalues found         527
PZUNMTR parameter number    5 had an illegal value           32

{    6,    4}:  On entry to 
 GSD%LWWORK         800        1952        1158          32
PZUNMTR parameter number    5 had an illegal value 
 ERROR in subspace rotation PSSYEVX: not enough eigenvalues found         527
          32
{   10,    4}:  On entry to 

PZUNMTR parameter number    5 had an illegal value 
PZUNMTR parameter number    5 had an illegal value  GSD%LWWORK         800        1952        1158          32

 GSD%LWWORK         800        1952        1158          32
 ERROR in subspace rotation PSSYEVX: not enough eigenvalues found         527
 ERROR in subspace rotat{   22,    3}:  On entry to {   23,    3}:  On entry to {    3,    3}:  On entry to 

{   18,    3}:  On entry to PZUNMTR parameter number    5 had an illegal value PZUNMTR parameter number    5 had an illegal value {    7,    3}:  On entry to PZUNMTR parameter number    5 had an illegal value 

{   19,    3}:  On entry to PZUNMTR parameter number    5 had an illegal value {    1,    3}:  On entry to 



{   20,    3}:  On entry to 
{   15,    3}:  On entry to PZUNMTR parameter number    5 had an illegal value 

{   10,    3}:  On entry to PZUNMTR parameter number    5 had an illegal value 

PZUNMTR parameter number    5 had an illegal value {    9,    3}:  On entry to 

{   11,    3}:  On entry to PZUNMTR parameter number    5 had an illegal value {    8,    3}:  On entry to 
 GSD%LWWORK         800        1952        1158          32

{    4,    3}:  On entry to 
PZUNMTR parameter number    5 had an illegal value  GSD%LWWORK         800        1952        1158          32

PZUNMTR parameter number    5 had an illegal value  GSD%LWWORK         800        1952        1158          32

 ERROR in subspace rotation PSSYEVX: not enough eigenvalues found         527
 GSD%LWWORK         800        1952        1158          32
          32
 GSD%LWWORK         800        1952        1158          32
 GSD%LWWORK         800        1952        1158          32
 ERROR in subspace rotation PSSYEVX: not enough eigenvalues found         527
 ERROR in subspace rotation PSSYEVX: not enough eigenvalues found         527
 ERROR in subspace rotation PSSYEVX: not enough eigenvalues found         527
          32
          32
 GSD%LWWORK         800        1952        1158          32
          32
 GSD%LWWORK         800        1952        1158          32
 ERROR in subspace rotation PSSYEVX: not enough eigenvalues found         527
{    6,    3}:  On entry to  GSD%LWWORK         800        1952        1158          32
          32
 ERROR in subspace rotation PSSYEVX: not enough eigenvalues found         527
 ERROR in subspace rotati{    0,    2}:  On entry to 
 GSD%LWWORK         800        1952        1158          32

 GSD%LWWORK         800        1952        1158          32
 ERROR in subspace rotation PSSYEVX: not enough eigenvalues found         527

 ERROR in subspace rotation PSSYEVX: not enough eigenvalues found         527
PZUNMTR parameter number    5 had an illegal value           32

{   11,    2}:  On entry to 
 GSD%LWWORK         800        1952        1158          32
PZUNMTR parameter number    5 had an illegal value  ERROR in subspace rotation PSSYEVX: not enough eigenvalues found         527

 GSD%LWWORK         800        1952        1158          32
          32
 ERROR in subspace rotation PSSYEVX: not enough eigenvalues found         527
          32
{   23,    2}:  On entry to 
{    7,    2}:  On entry to PZUNMTR parameter number    5 had an illegal value 
 GSD%LWWORK         800        1952        1158          32

 GSD%LWWORK         800        1952        1158          32
PZUNMTR parameter number    5 had an illegal value  ERROR in subspace rotation PSSYEVX: not enough eigenvalues found         527

 ERROR in subspace rotation PSSYEVX: not enough eigenvalues found         527
          32
          32

PZUNMTR parameter number    5 had an illegal value 
{    9,    2}:  On entry to 

PZUNMTR parameter number    5 had an illegal value  GSD%LWWORK         800        1952        1158          32

PZUNMTR parameter number    5 had an illegal value  ERROR in subspace rotation PSSYEVX: not enough eigenvalues found         527
 GSD%LWWORK         800        1952        1158          32

          32
 ERROR in subspace rotation PSSYEVX: not enough eigenvalues found         527
{   10,    2}:  On entry to           32
 GSD%LWWORK         800        1952        1158          32

 ERROR in subspace rotation PSSYEVX: not enough eigenvalues found         527
          32
PZUNMTR parameter number    5 had an illegal value 

 GSD%LWWORK         800        1952        1158          32
 GSD%LWWORK         800        1952        1158arameter number    5 had an illegal value PZUNMTR parameter number    5 had an illegal value 

{    0,    1}:  On entry to {   16,    1}:  On entry to 

{   18,    1}:  On entry to PZUNMTR parameter number    5 had an illegal value 
PZUNMTR parameter number    5 had an illegal value 

PZUNMTR parameter number    5 had an illegal value  GSD%LWWORK         800        1952        1158          32

 GSD%LWWORK         800        1952        1158          32
 ERROR in subspace rotation PSSYEVX: not enough eigenvalues found         527

          32
PZUNMTR parameter number    5 had an illegal value 
 ERROR in subspace rotation PSSYEVX: not enough eigenvalues found         527

PZUNMTR parameter number    5 had an illegal value           32



PZUNMTR parameter number    5 had an illegal value  GSD%LWWORK         800        1952        1158          32


 GSD%LWWORK         800        1952        1158          32
 ERROR in subspace rotation PSSYEVX: not enough eigenvalues found         527

 ERROR in subspace rotation PSSYEVX: not enough eigenvalues found         527
          32
          32
PZUNMTR parameter number    5 had an illegal value  GSD%LWWORK         800        1952        1158          32

 ERROR in subspace rotation PSSYEVX: not enough eigenvalues found         527

          32
 GSD%LWWORK         800        1952        1158          32
PZUNMTR parameter number    5 had an illegal value  ERROR in subspace rotation PSSYEVX: not enough eigenvalues found         527

          32
 GSD%LWWORK         800        1952        1158          32
 GSD%LWWORK         800        1952        1158          32
 ERROR in subspace rotation PSSYEVX: not enough eigenvalues found         527
 ERROR in subspace rotation PSSYEVX: not enough eigenvalues found         527
          32
          32
 GSD%LWWORK         800        1952        1158          32
 GSD%LWWORK         800        1952        1158          32
 ERROR in subspace rotation PSSYEVX: not enough eigenvalues found         527
 ERROR in subspace rotation PSSYEVX: not enough eigenvalues found         527
          32
          32
 GSD%LWWORK         800        1952        1158          32

 ERROR in subspace rotation PSSYEVX: not enough eigenvalues found         527
          32
          32

 GSD%LWWORK         800        1952        1158          32
PZUNMTR parameter number    5 had an illegal value  ERROR in subspace rotation PSSYEVX: not enough eigenvalues found         527
          32
 GSD%LWWORK         800        1952        1158          32

 ERROR in subspace rotation PSSYEVX: not enough eigenvalues found         527
          32
 GSD%LWWORK         800        1952        1158          32
 GSD%LWWORK         800        1952        1158          32
 ERROR in subspace rotation PSSYEVX: not enough eigenvalues found         527
 ERROR in subspace rotation PSSYEVX: not enough eigenvalues found         527
          32
 GSD%LWWORK         800        1952        1158          32
          32
 ERROR in subspace rotation PSSYEVX: not enough eigenvalues found         527
          32
 GSD%LWWORK         800        1952        1158          32
 ERROR in subspace rotation PSSYEVX: not enough eigenvalues found         527
          32
          32
 ERROR in subspace rotation PSSYEVX: not enough eigenvalues found         527
          32
 ERROR in subspace rotation PSSYEVX: not enough eigenvalues found         527
          32
 GSD%LWWORK         800        1952        1158          32
 GSD%LWWORK         800        1952        1158          32
 ERROR in subspace rotation PSSYEVX: not enough eigenvalues found         527
 ERROR in subspace rotation PSSYEVX: not enough eigenvalues found         527
          32
          32
 GSD%LWWORK         800        1952        1158          32
 GSD%LWWORK         800        1952        1158          32
 ERROR in subspace rotation PSSYEVX: not enough eigenvalues found         527
 ERROR in subspace rotation PSSYEVX: not enough eigenvalues found         527
          32
          32
 ERROR in subspace rotation PSSYEVX: not enough eigenvalues found         527
          32
          32
PZUNMTR parameter number    5 had an illegal value 
 GSD%LWWORK         800        1952        1158          32
 ERROR in subspace rotation PSSYEVX: not enough eigenvalues found         527
          32
 GSD%LWWORK         800        1952        1158          32
 ERROR in subspace rotation PSSYEVX: not enough eigenvalues found         527
          32
 GSD%LWWORK         800        1952        1158          32
 ERROR in subspace rotation PSSYEVX: not enough eigenvalues found         527
          32
on PSSYEVX: not enough eigenvalues found         527

          32
          32
PZUNMTR parameter number    5 had an illegal value 
{    0,    3}:  On entry to {   13,    3}:  On entry to 

{   21,    3}:  On entry to PZUNMTR parameter number    5 had an illegal value 


{   16,    3}:  On entry to PZUNMTR parameter number    5 had an illegal value PZUNMTR parameter number    5 had an illegal value 

 GSD%LWWORK         800        1952        1158          32
PZUNMTR parameter number    5 had an illegal value  ERROR in subspace rotation PSSYEVX: not enough eigenvalues found         527

          32

{   14,    3}:  On entry to  GSD%LWWORK         800        1952        1158          32

PZUNMTR parameter number    5 had an illegal value  ERROR in subspace rotation PSSYEVX: not enough eigenvalues found         527
 GSD%LWWORK         800        1952        1158          32
          32

 ERROR in subspace rotation PSSYEVX: not enough eigenvalues found         527
          32

PZUNMTR parameter number    5 had an illegal value  GSD%LWWORK         800        1952        1158          32


 ERROR in subspace rotation PSSYEVX: not enough eigenvalues found         527
 GSD%LWWORK         800        1952        1158          32
          32
PZUNMTR parameter number    5 had an illegal value  ERROR in subspace rotation PSSYEVX: not enough eigenvalues found         527

          32
PZUNMTR parameter number    5 had an illegal value 

 GSD%LWWORK         800        1952        1158          32
 GSD%LWWORK         800        1952        1158          32
PZUNMTR parameter number    5 had an illegal value  ERROR in subspace rotation PSSYEVX: not enough eigenvalues found         527
 ERROR in subspace rotation PSSYEVX: not enough eigenvalues found         527
 GSD%LWWORK         800        1952        1158          32
          32
          32
 GSD%LWWORK         800        1952        1158          32
 ERROR in subspace rotation PSSYEVX: not enough eigenvalues found         527
 ERROR in subspace rotation PSSYEVX: not enouion PSSYEVX: not enough eigenvalues found         527
          32
          32
 GSD%LWWORK         800        1952        1158          32
 ERROR in subspace rotation PSSYEVX: not enough eigenvalues found         527
 ERROR in subspace rotation PSSYEVX: not enough eigenvalues found         527
 GSD%LWWORK         800        1952        1158          32
          32
          32
 GSD%LWWORK         800        1952        1158          32
 ERROR in subspace rotation PSSYEVX: not enough eigenvalues found         527
 GSD%LWWORK         800        1952        1158          32
 ERROR in subspace rotation PSSYEVX: not enough eigenvalues found         527
          32
          32
 ERROR in subspace rotation PSSYEVX: not enough eigenvalues found         527
 GSD%LWWORK         800        1952        1158          32
          32
          32
 ERROR in subspace rotation PSSYEVX: not enough eigenvalues found         527
          32
PZUNMTR parameter number    5 had an illegal value 
 GSD%LWWORK         800        1952        1158          32
 ERROR in subspace rotation PSSYEVX: not enough eigenvalues found         527
          32
 rotation PSSYEVX: not enough eigenvalues found         527
          32
          32
 GSD%LWWORK         800        1952        1158          32
          32
 ERROR in subspace rotation PSSYEVX: not enough eigenvalues found         527
 ERROR in subspace rotation PSSYEVX: not enough eigenvalues found         527
          32
          32
PZUNMTR parameter number    5 had an illegal value PZUNMTR parameter number    5 had an illegal value 

 ERROR in subspace rotation PSSYEVX: not enough eigenvalues found         527
 GSD%LWWORK         800        1952        1158          32
          32
 ERROR in subspace rotation PSSYEVX: not enough eigenvalues found         527
 ERROR in subspace rotation PSSYEVX: not enough eigenvalues found         527
          32
          32
 ERROR in subspace rotation PSSYEVX: not enough eigenvalues found         527
          32
 GSD%LWWORK         800        1952        1158          32
 ERROR in subspace rotation PSSYEVX: not enough eigenvalues found         527
          32
 GSD%LWWORK         800        1952        1158          32
 ERROR in subspace rotation PSSYEVX: not enough eigenvalues found         527
          32
gh eigenvalues found         527
 GSD%LWWORK         800        1952        1158          32
          32
          32

 ERROR in subspace rotation PSSYEVX: not enough eigenvalues found         527
PZUNMTR parameter number    5 had an illegal value           32


PZUNMTR parameter number    5 had an illegal value 
 ERROR in subspace rotation PSSYEVX: not enough eigenvalues found         527
 ERROR in subspace rotation PSSYEVX: not enough eigenvalues found         527
          32

          32
PZUNMTR parameter number    5 had an illegal value PZUNMTR parameter number    5 had an illegal value  GSD%LWWORK         800        1952        1158          32

 ERROR in subspace rotation PSSYEVX: not enough eigenvalues found         527
 GSD%LWWORK         800        1952        1158          32
          32
 GSD%LWWORK         800        1952        1158          32
 ERROR in subspace rotation PSSYEVX: not enough eigenvalues found         527
          32
 ERROR in subspace rotation PSSYEVX: not enough eigenvalues found         527
          32

 GSD%LWWORK         800        1952        1158          32
 ERROR in subspace rotation PSSYEVX: not enough eigenvalues found         527
          32
 GSD%LWWORK         800        1952        1158          32
 ERROR in subspace rotation PSSYEVX: not enough eigenvalues found         527
          32
Application 23213175 resources: utime ~123179s, stime ~447s, Rss ~153940, inblocks ~1193838, outblocks ~1660026
