  96  96   0   0
  0.2080188E+02  0.1257760E-08  0.1245754E-08  0.1274818E-08  0.5000000E-15
  1.000000000000000E-004
  CAR 
 MAPbI3-Cubic                            
      8.88410493    -19.49905484  301      1.36256759      1.00000000
    -19.499  0.0000E+00  0.0000E+00
    -19.404  0.0000E+00  0.0000E+00
    -19.310  0.0000E+00  0.0000E+00
    -19.215  0.0000E+00  0.0000E+00
    -19.121  0.0000E+00  0.0000E+00
    -19.026  0.0000E+00  0.0000E+00
    -18.931  0.0000E+00  0.0000E+00
    -18.837  0.0000E+00  0.0000E+00
    -18.742  0.0000E+00  0.0000E+00
    -18.648  0.0000E+00  0.0000E+00
    -18.553  0.0000E+00  0.0000E+00
    -18.458  0.0000E+00  0.0000E+00
    -18.364  0.0000E+00  0.0000E+00
    -18.269  0.0000E+00  0.0000E+00
    -18.175  0.0000E+00  0.1600E+02
    -18.080  0.0000E+00  0.1600E+02
    -17.985  0.0000E+00  0.1600E+02
    -17.891  0.0000E+00  0.1600E+02
    -17.796  0.0000E+00  0.1600E+02
    -17.701  0.0000E+00  0.1600E+02
    -17.607  0.0000E+00  0.1600E+02
    -17.512  0.0000E+00  0.1600E+02
    -17.418  0.0000E+00  0.1600E+02
    -17.323  0.0000E+00  0.1600E+02
    -17.228  0.0000E+00  0.1600E+02
    -17.134  0.0000E+00  0.1600E+02
    -17.039  0.0000E+00  0.1600E+02
    -16.945  0.0000E+00  0.1600E+02
    -16.850  0.0000E+00  0.1600E+02
    -16.755  0.0000E+00  0.1600E+02
    -16.661  0.0000E+00  0.1600E+02
    -16.566  0.0000E+00  0.1600E+02
    -16.472  0.0000E+00  0.1600E+02
    -16.377  0.0000E+00  0.1600E+02
    -16.282  0.0000E+00  0.1600E+02
    -16.188  0.0000E+00  0.1600E+02
    -16.093  0.0000E+00  0.1600E+02
    -15.998  0.0000E+00  0.1600E+02
    -15.904  0.0000E+00  0.1600E+02
    -15.809  0.0000E+00  0.1600E+02
    -15.715  0.0000E+00  0.1600E+02
    -15.620  0.0000E+00  0.1600E+02
    -15.525  0.0000E+00  0.1600E+02
    -15.431  0.0000E+00  0.1600E+02
    -15.336  0.0000E+00  0.1600E+02
    -15.242  0.0000E+00  0.1600E+02
    -15.147  0.0000E+00  0.1600E+02
    -15.052  0.1691E+03  0.6400E+02
    -14.958  0.0000E+00  0.9600E+02
    -14.863  0.0000E+00  0.9600E+02
    -14.769  0.0000E+00  0.9600E+02
    -14.674  0.0000E+00  0.9600E+02
    -14.579  0.0000E+00  0.9600E+02
    -14.485  0.0000E+00  0.9600E+02
    -14.390  0.0000E+00  0.9600E+02
    -14.295  0.0000E+00  0.9600E+02
    -14.201  0.0000E+00  0.9600E+02
    -14.106  0.0000E+00  0.9600E+02
    -14.012  0.0000E+00  0.9600E+02
    -13.917  0.0000E+00  0.9600E+02
    -13.822  0.0000E+00  0.9600E+02
    -13.728  0.0000E+00  0.9600E+02
    -13.633  0.0000E+00  0.9600E+02
    -13.539  0.0000E+00  0.9600E+02
    -13.444  0.0000E+00  0.9600E+02
    -13.349  0.0000E+00  0.9600E+02
    -13.255  0.0000E+00  0.9600E+02
    -13.160  0.0000E+00  0.9600E+02
    -13.066  0.0000E+00  0.9600E+02
    -12.971  0.0000E+00  0.9600E+02
    -12.876  0.0000E+00  0.9600E+02
    -12.782  0.0000E+00  0.9600E+02
    -12.687  0.0000E+00  0.9600E+02
    -12.592  0.0000E+00  0.9600E+02
    -12.498  0.0000E+00  0.9600E+02
    -12.403  0.0000E+00  0.9600E+02
    -12.309  0.0000E+00  0.9600E+02
    -12.214  0.0000E+00  0.9600E+02
    -12.119  0.0000E+00  0.9600E+02
    -12.025  0.0000E+00  0.9600E+02
    -11.930  0.0000E+00  0.9600E+02
    -11.836  0.0000E+00  0.9600E+02
    -11.741  0.0000E+00  0.9600E+02
    -11.646  0.0000E+00  0.9600E+02
    -11.552  0.0000E+00  0.9600E+02
    -11.457  0.0000E+00  0.9600E+02
    -11.363  0.0000E+00  0.9600E+02
    -11.268  0.0000E+00  0.1040E+03
    -11.173  0.0000E+00  0.1120E+03
    -11.079  0.0000E+00  0.1120E+03
    -10.984  0.0000E+00  0.1120E+03
    -10.889  0.0000E+00  0.1120E+03
    -10.795  0.1772E+01  0.1122E+03
    -10.700  0.0000E+00  0.1141E+03
    -10.606  0.5759E+01  0.1194E+03
    -10.511  0.7194E+01  0.1255E+03
    -10.416  0.1561E+01  0.1288E+03
    -10.322  0.1253E+02  0.1345E+03
    -10.227  0.0000E+00  0.1400E+03
    -10.133  0.1580E-02  0.1436E+03
    -10.038  0.1364E+02  0.1508E+03
     -9.943  0.1114E+02  0.1588E+03
     -9.849  0.0000E+00  0.1600E+03
     -9.754  0.0000E+00  0.1600E+03
     -9.660  0.0000E+00  0.1600E+03
     -9.565  0.0000E+00  0.1600E+03
     -9.470  0.0000E+00  0.1600E+03
     -9.376  0.0000E+00  0.1600E+03
     -9.281  0.0000E+00  0.1600E+03
     -9.187  0.0000E+00  0.1600E+03
     -9.092  0.0000E+00  0.1600E+03
     -8.997  0.0000E+00  0.1600E+03
     -8.903  0.0000E+00  0.1600E+03
     -8.808  0.0000E+00  0.1600E+03
     -8.713  0.0000E+00  0.1600E+03
     -8.619  0.0000E+00  0.1600E+03
     -8.524  0.0000E+00  0.1600E+03
     -8.430  0.0000E+00  0.1600E+03
     -8.335  0.0000E+00  0.1600E+03
     -8.240  0.0000E+00  0.1600E+03
     -8.146  0.0000E+00  0.1600E+03
     -8.051  0.0000E+00  0.1600E+03
     -7.957  0.0000E+00  0.1600E+03
     -7.862  0.0000E+00  0.1600E+03
     -7.767  0.0000E+00  0.1600E+03
     -7.673  0.0000E+00  0.1680E+03
     -7.578  0.0000E+00  0.1840E+03
     -7.484  0.0000E+00  0.1920E+03
     -7.389  0.0000E+00  0.1920E+03
     -7.294  0.0000E+00  0.1920E+03
     -7.200  0.0000E+00  0.1920E+03
     -7.105  0.0000E+00  0.1920E+03
     -7.010  0.0000E+00  0.1921E+03
     -6.916  0.1566E+01  0.1924E+03
     -6.821  0.0000E+00  0.1925E+03
     -6.727  0.0000E+00  0.1934E+03
     -6.632  0.0000E+00  0.1943E+03
     -6.537  0.6025E+01  0.1953E+03
     -6.443  0.1738E-15  0.1964E+03
     -6.348  0.1529E+01  0.1990E+03
     -6.254  0.3132E+01  0.2003E+03
     -6.159  0.1625E+01  0.2019E+03
     -6.064  0.0000E+00  0.2036E+03
     -5.970  0.6766E+00  0.2055E+03
     -5.875  0.4346E-15  0.2064E+03
     -5.781  0.2740E+01  0.2144E+03
     -5.686  0.3132E+01  0.2223E+03
     -5.591  0.0000E+00  0.2235E+03
     -5.497  0.0000E+00  0.2239E+03
     -5.402  0.0000E+00  0.2240E+03
     -5.307  0.0000E+00  0.2240E+03
     -5.213  0.0000E+00  0.2240E+03
     -5.118  0.0000E+00  0.2240E+03
     -5.024  0.0000E+00  0.2240E+03
     -4.929  0.0000E+00  0.2240E+03
     -4.834  0.0000E+00  0.2240E+03
     -4.740  0.0000E+00  0.2240E+03
     -4.645  0.0000E+00  0.2240E+03
     -4.551  0.0000E+00  0.2240E+03
     -4.456  0.0000E+00  0.2240E+03
     -4.361  0.0000E+00  0.2240E+03
     -4.267  0.0000E+00  0.2240E+03
     -4.172  0.0000E+00  0.2240E+03
     -4.078  0.0000E+00  0.2240E+03
     -3.983  0.0000E+00  0.2240E+03
     -3.888  0.0000E+00  0.2240E+03
     -3.794  0.0000E+00  0.2240E+03
     -3.699  0.0000E+00  0.2240E+03
     -3.604  0.2349E+01  0.2242E+03
     -3.510  0.1722E+02  0.2446E+03
     -3.415  0.0000E+00  0.2560E+03
     -3.321  0.0000E+00  0.2560E+03
     -3.226  0.0000E+00  0.2560E+03
     -3.131  0.0000E+00  0.2560E+03
     -3.037  0.0000E+00  0.2560E+03
     -2.942  0.0000E+00  0.2560E+03
     -2.848  0.0000E+00  0.2560E+03
     -2.753  0.0000E+00  0.2560E+03
     -2.658  0.0000E+00  0.2560E+03
     -2.564  0.0000E+00  0.2560E+03
     -2.469  0.0000E+00  0.2560E+03
     -2.375  0.0000E+00  0.2560E+03
     -2.280  0.0000E+00  0.2560E+03
     -2.185  0.0000E+00  0.2560E+03
     -2.091  0.1602E+01  0.2565E+03
     -1.996  0.3851E+01  0.2590E+03
     -1.901  0.3132E+01  0.2616E+03
     -1.807  0.7829E+00  0.2636E+03
     -1.712  0.1572E+01  0.2660E+03
     -1.618  0.1050E-07  0.2689E+03
     -1.523  0.6575E-03  0.2726E+03
     -1.428  0.3132E+01  0.2763E+03
     -1.334  0.0000E+00  0.2791E+03
     -1.239  0.0000E+00  0.2799E+03
     -1.145  0.0000E+00  0.2800E+03
     -1.050  0.0000E+00  0.2800E+03
     -0.955  0.1566E+01  0.2813E+03
     -0.861  0.3214E+01  0.2861E+03
     -0.766  0.7793E+01  0.2931E+03
     -0.672  0.4745E+01  0.2983E+03
     -0.577  0.4698E+01  0.3028E+03
     -0.482  0.6263E+01  0.3063E+03
     -0.388  0.5644E+00  0.3098E+03
     -0.293  0.4732E+01  0.3151E+03
     -0.199  0.4737E+01  0.3219E+03
     -0.104  0.4247E+01  0.3287E+03
     -0.009  0.1096E+02  0.3347E+03
      0.085  0.8555E+00  0.3406E+03
      0.180  0.3145E+01  0.3491E+03
      0.275  0.4371E+01  0.3589E+03
      0.369  0.6257E+01  0.3663E+03
      0.464  0.5529E+01  0.3733E+03
      0.558  0.6172E+01  0.3823E+03
      0.653  0.4246E+01  0.3887E+03
      0.748  0.3507E+01  0.3934E+03
      0.842  0.4872E-06  0.3963E+03
      0.937  0.7829E+00  0.3982E+03
      1.031  0.0000E+00  0.3993E+03
      1.126  0.0000E+00  0.3996E+03
      1.221  0.1566E+01  0.3999E+03
      1.315  0.0000E+00  0.3999E+03
      1.410  0.0000E+00  0.4000E+03
      1.504  0.0000E+00  0.4000E+03
      1.599  0.0000E+00  0.4000E+03
      1.694  0.0000E+00  0.4000E+03
      1.788  0.0000E+00  0.4000E+03
      1.883  0.0000E+00  0.4000E+03
      1.978  0.0000E+00  0.4000E+03
      2.072  0.0000E+00  0.4000E+03
      2.167  0.0000E+00  0.4000E+03
      2.261  0.0000E+00  0.4000E+03
      2.356  0.0000E+00  0.4000E+03
      2.451  0.0000E+00  0.4000E+03
      2.545  0.0000E+00  0.4000E+03
      2.640  0.0000E+00  0.4000E+03
      2.734  0.0000E+00  0.4000E+03
      2.829  0.0000E+00  0.4000E+03
      2.924  0.0000E+00  0.4000E+03
      3.018  0.8692E-15  0.4005E+03
      3.113  0.0000E+00  0.4007E+03
      3.207  0.3915E+01  0.4021E+03
      3.302  0.2349E+01  0.4033E+03
      3.397  0.0000E+00  0.4041E+03
      3.491  0.7725E+00  0.4059E+03
      3.586  0.0000E+00  0.4067E+03
      3.681  0.8076E-09  0.4077E+03
      3.775  0.7829E+00  0.4084E+03
      3.870  0.0000E+00  0.4093E+03
      3.964  0.4698E+01  0.4107E+03
      4.059  0.6263E+01  0.4121E+03
      4.154  0.6089E+01  0.4144E+03
      4.248  0.1738E-15  0.4159E+03
      4.343  0.1819E+01  0.4184E+03
      4.437  0.0000E+00  0.4210E+03
      4.532  0.1566E+01  0.4231E+03
      4.627  0.0000E+00  0.4239E+03
      4.721  0.0000E+00  0.4240E+03
      4.816  0.0000E+00  0.4240E+03
      4.910  0.0000E+00  0.4240E+03
      5.005  0.2010E-03  0.4240E+03
      5.100  0.0000E+00  0.4241E+03
      5.194  0.0000E+00  0.4247E+03
      5.289  0.3132E+01  0.4269E+03
      5.384  0.3134E+01  0.4290E+03
      5.478  0.4698E+01  0.4330E+03
      5.573  0.3391E+01  0.4365E+03
      5.667  0.6532E-07  0.4388E+03
      5.762  0.0000E+00  0.4412E+03
      5.857  0.4698E+01  0.4434E+03
      5.951  0.3168E+01  0.4457E+03
      6.046  0.2146E-01  0.4484E+03
      6.140  0.3450E+01  0.4527E+03
      6.235  0.3132E+01  0.4573E+03
      6.330  0.5481E+01  0.4612E+03
      6.424  0.3132E+01  0.4638E+03
      6.519  0.4712E+01  0.4700E+03
      6.613  0.7771E+01  0.4741E+03
      6.708  0.4981E+01  0.4784E+03
      6.803  0.1253E+02  0.4827E+03
      6.897  0.1003E+02  0.4864E+03
      6.992  0.0000E+00  0.4888E+03
      7.087  0.0000E+00  0.4919E+03
      7.181  0.2324E+01  0.4976E+03
      7.276  0.1566E+01  0.5021E+03
      7.370  0.7047E+01  0.5061E+03
      7.465  0.4678E+01  0.5101E+03
      7.560  0.0000E+00  0.5119E+03
      7.654  0.0000E+00  0.5120E+03
      7.749  0.0000E+00  0.5120E+03
      7.843  0.0000E+00  0.5120E+03
      7.938  0.0000E+00  0.5120E+03
      8.033  0.0000E+00  0.5120E+03
      8.127  0.0000E+00  0.5120E+03
      8.222  0.0000E+00  0.5120E+03
      8.316  0.0000E+00  0.5120E+03
      8.411  0.0000E+00  0.5120E+03
      8.506  0.0000E+00  0.5120E+03
      8.600  0.0000E+00  0.5120E+03
      8.695  0.0000E+00  0.5120E+03
      8.789  0.0000E+00  0.5120E+03
      8.884  0.0000E+00  0.5120E+03
