 vasp.5.4.1 24Jun15 (build Nov 25 2015 16:01:35) complex                        
  
 executed on         CrayXC-Intel date 2016.06.10  04:48:41
 running on   24 total cores
 distrk:  each k-point on   24 cores,    1 groups
 distr:  one band on NCORES_PER_BAND=   3 cores,    8 groups


--------------------------------------------------------------------------------------------------------


 INCAR:
 POTCAR:    PAW_PBE C 08Apr2002                   
 POTCAR:    PAW_PBE N 08Apr2002                   
 POTCAR:    PAW_PBE H 15Jun2001                   
 POTCAR:    PAW_PBE Pb_d 06Sep2000                
 POTCAR:    PAW_PBE I 08Apr2002                   
 POTCAR:    PAW_PBE C 08Apr2002                   
   VRHFIN =C: s2p2                                                              
   LEXCH  = PE                                                                  
   EATOM  =   147.1560 eV,   10.8157 Ry                                         
                                                                                
   TITEL  = PAW_PBE C 08Apr2002                                                 
   LULTRA =        F    use ultrasoft PP ?                                      
   IUNSCR =        1    unscreen: 0-lin 1-nonlin 2-no                           
   RPACOR =    1.200    partial core radius                                     
   POMASS =   12.011; ZVAL   =    4.000    mass and valenz                      
   RCORE  =    1.500    outmost cutoff radius                                   
   RWIGS  =    1.630; RWIGS  =    0.863    wigner-seitz radius (au A)           
   ENMAX  =  400.000; ENMIN  =  300.000 eV                                      
   ICORE  =        2    local potential                                         
   LCOR   =        T    correct aug charges                                     
   LPAW   =        T    paw PP                                                  
   EAUG   =  644.873                                                            
   DEXC   =    0.000                                                            
   RMAX   =    1.529    core radius for proj-oper                               
   RAUG   =    1.300    factor for augmentation sphere                          
   RDEP   =    1.501    radius for radial grids                                 
   RDEPT  =    1.300    core radius for aug-charge                              
                                                                                
   Atomic configuration                                                         
    4 entries                                                                   
     n  l   j            E        occ.                                          
     1  0  0.50      -273.3789   2.0000                                         
     2  0  0.50       -13.7508   2.0000                                         
     2  1  0.50        -5.2854   2.0000                                         
     3  2  1.50        -5.4423   0.0000                                         
   Description                                                                  
     l       E           TYP  RCUT    TYP  RCUT                                 
     0    -13.7508458     23  1.200                                             
     0     -8.2022199     23  1.200                                             
     1     -5.2854383     23  1.500                                             
     1     34.0145650     23  1.500                                             
     2     -5.4423304      7  1.500                                             
  local pseudopotential read in
  partial core-charges read in
  partial kinetic energy density read in
  atomic valenz-charges read in
  non local Contribution for L=           0  read in
    real space projection operators read in
  non local Contribution for L=           0  read in
    real space projection operators read in
  non local Contribution for L=           1  read in
    real space projection operators read in
  non local Contribution for L=           1  read in
    real space projection operators read in
    PAW grid and wavefunctions read in
 
   number of l-projection  operators is LMAX  =           4
   number of lm-projection operators is LMMAX =           8
 
 POTCAR:    PAW_PBE N 08Apr2002                   
   VRHFIN =N: s2p3                                                              
   LEXCH  = PE                                                                  
   EATOM  =   264.5486 eV,   19.4438 Ry                                         
                                                                                
   TITEL  = PAW_PBE N 08Apr2002                                                 
   LULTRA =        F    use ultrasoft PP ?                                      
   IUNSCR =        1    unscreen: 0-lin 1-nonlin 2-no                           
   RPACOR =    1.200    partial core radius                                     
   POMASS =   14.001; ZVAL   =    5.000    mass and valenz                      
   RCORE  =    1.500    outmost cutoff radius                                   
   RWIGS  =    1.400; RWIGS  =    0.741    wigner-seitz radius (au A)           
   ENMAX  =  400.000; ENMIN  =  300.000 eV                                      
   ICORE  =        2    local potential                                         
   LCOR   =        T    correct aug charges                                     
   LPAW   =        T    paw PP                                                  
   EAUG   =  627.112                                                            
   DEXC   =    0.000                                                            
   RMAX   =    1.529    core radius for proj-oper                               
   RAUG   =    1.300    factor for augmentation sphere                          
   RDEP   =    1.514    radius for radial grids                                 
   RDEPT  =    1.338    core radius for aug-charge                              
                                                                                
   Atomic configuration                                                         
    4 entries                                                                   
     n  l   j            E        occ.                                          
     1  0  0.50      -384.7179   2.0000                                         
     2  0  0.50       -18.5828   2.0000                                         
     2  1  0.50        -7.0898   3.0000                                         
     3  2  1.50        -6.8029   0.0000                                         
   Description                                                                  
     l       E           TYP  RCUT    TYP  RCUT                                 
     0    -18.5828119     23  1.200                                             
     0    -13.5018863     23  1.200                                             
     1     -7.0897853     23  1.500                                             
     1      9.5240782     23  1.500                                             
     2     -6.8029130      7  1.500                                             
  local pseudopotential read in
  partial core-charges read in
  partial kinetic energy density read in
  atomic valenz-charges read in
  non local Contribution for L=           0  read in
    real space projection operators read in
  non local Contribution for L=           0  read in
    real space projection operators read in
  non local Contribution for L=           1  read in
    real space projection operators read in
  non local Contribution for L=           1  read in
    real space projection operators read in
    PAW grid and wavefunctions read in
 
   number of l-projection  operators is LMAX  =           4
   number of lm-projection operators is LMMAX =           8
 
 POTCAR:    PAW_PBE H 15Jun2001                   
   VRHFIN =H: ultrasoft test                                                    
   LEXCH  = PE                                                                  
   EATOM  =    12.4884 eV,    0.9179 Ry                                         
                                                                                
   TITEL  = PAW_PBE H 15Jun2001                                                 
   LULTRA =        F    use ultrasoft PP ?                                      
   IUNSCR =        0    unscreen: 0-lin 1-nonlin 2-no                           
   RPACOR =    0.000    partial core radius                                     
   POMASS =    1.000; ZVAL   =    1.000    mass and valenz                      
   RCORE  =    1.100    outmost cutoff radius                                   
   RWIGS  =    0.700; RWIGS  =    0.370    wigner-seitz radius (au A)           
   ENMAX  =  250.000; ENMIN  =  200.000 eV                                      
   RCLOC  =    0.701    cutoff for local pot                                    
   LCOR   =        T    correct aug charges                                     
   LPAW   =        T    paw PP                                                  
   EAUG   =  400.000                                                            
   RMAX   =    1.123    core radius for proj-oper                               
   RAUG   =    1.200    factor for augmentation sphere                          
   RDEP   =    1.112    radius for radial grids                                 
   RDEPT  =    0.926    core radius for aug-charge                              
                                                                                
   Atomic configuration                                                         
    2 entries                                                                   
     n  l   j            E        occ.                                          
     1  0  0.50        -6.4927   1.0000                                         
     2  1  0.50        -3.4015   0.0000                                         
   Description                                                                  
     l       E           TYP  RCUT    TYP  RCUT                                 
     0     -6.4927494     23  1.100                                             
     0      6.8029130     23  1.100                                             
     1     -4.0817478     23  1.100                                             
  local pseudopotential read in
  atomic valenz-charges read in
  non local Contribution for L=           0  read in
    real space projection operators read in
  non local Contribution for L=           0  read in
    real space projection operators read in
  non local Contribution for L=           1  read in
    real space projection operators read in
    PAW grid and wavefunctions read in
 
   number of l-projection  operators is LMAX  =           3
   number of lm-projection operators is LMMAX =           5
 
 POTCAR:    PAW_PBE Pb_d 06Sep2000                
   VRHFIN =Pb:                                                                  
   LEXCH  = PE                                                                  
   EATOM  =  1661.6185 eV,  122.1255 Ry                                         
                                                                                
   TITEL  = PAW_PBE Pb_d 06Sep2000                                              
   LULTRA =        F    use ultrasoft PP ?                                      
   IUNSCR =        1    unscreen: 0-lin 1-nonlin 2-no                           
   RPACOR =    2.200    partial core radius                                     
   POMASS =  207.200; ZVAL   =   14.000    mass and valenz                      
   RCORE  =    2.500    outmost cutoff radius                                   
   RWIGS  =    3.260; RWIGS  =    1.725    wigner-seitz radius (au A)           
   ENMAX  =  237.835; ENMIN  =  178.376 eV                                      
   ICORE  =        3    local potential                                         
   LCOR   =        T    correct aug charges                                     
   LPAW   =        T    paw PP                                                  
   EAUG   =  391.914                                                            
   DEXC   =    0.000                                                            
   RMAX   =    2.565    core radius for proj-oper                               
   RAUG   =    1.300    factor for augmentation sphere                          
   RDEP   =    2.643    radius for radial grids                                 
   RDEPT  =    2.092    core radius for aug-charge                              
                                                                                
   Atomic configuration                                                         
   16 entries                                                                   
     n  l   j            E        occ.                                          
     1  0  0.50    -88091.8466   2.0000                                         
     2  0  0.50    -15753.4197   2.0000                                         
     2  1  1.50    -13508.1797   6.0000                                         
     3  0  0.50     -3781.7194   2.0000                                         
     3  1  1.50     -3138.2529   6.0000                                         
     3  2  2.50     -2483.2977  10.0000                                         
     4  0  0.50      -856.2895   2.0000                                         
     4  1  1.50      -645.4942   6.0000                                         
     4  2  2.50      -401.8768  10.0000                                         
     4  3  3.50      -132.9059  14.0000                                         
     5  0  0.50      -144.0950   2.0000                                         
     5  1  1.50       -85.7879   6.0000                                         
     5  2  2.50       -21.1769  10.0000                                         
     6  0  0.50       -12.0372   2.0000                                         
     6  1  1.50        -3.4971   2.0000                                         
     5  3  2.50        -2.7212   0.0000                                         
   Description                                                                  
     l       E           TYP  RCUT    TYP  RCUT                                 
     2    -21.1768523     23  2.500                                             
     2      1.3605826     23  2.500                                             
     0    -12.0371562     23  2.500                                             
     0     13.6058260     23  2.500                                             
     1     -3.4971339     23  2.500                                             
     1     13.6058260     23  2.500                                             
     3     -1.3605826      7  2.500                                             
  local pseudopotential read in
  partial core-charges read in
  partial kinetic energy density read in
  atomic valenz-charges read in
  non local Contribution for L=           2  read in
    real space projection operators read in
  non local Contribution for L=           2  read in
    real space projection operators read in
  non local Contribution for L=           0  read in
    real space projection operators read in
  non local Contribution for L=           0  read in
    real space projection operators read in
  non local Contribution for L=           1  read in
    real space projection operators read in
  non local Contribution for L=           1  read in
    real space projection operators read in
    PAW grid and wavefunctions read in
 
   number of l-projection  operators is LMAX  =           6
   number of lm-projection operators is LMMAX =          18
 
 POTCAR:    PAW_PBE I 08Apr2002                   
   VRHFIN =I : s2p5                                                             
   LEXCH  = PE                                                                  
   EATOM  =   315.8678 eV,   23.2156 Ry                                         
                                                                                
   TITEL  = PAW_PBE I 08Apr2002                                                 
   LULTRA =        F    use ultrasoft PP ?                                      
   IUNSCR =        1    unscreen: 0-lin 1-nonlin 2-no                           
   RPACOR =    2.200    partial core radius                                     
   POMASS =  126.904; ZVAL   =    7.000    mass and valenz                      
   RCORE  =    2.300    outmost cutoff radius                                   
   RWIGS  =    2.810; RWIGS  =    1.487    wigner-seitz radius (au A)           
   ENMAX  =  175.647; ENMIN  =  131.735 eV                                      
   ICORE  =        3    local potential                                         
   LCOR   =        T    correct aug charges                                     
   LPAW   =        T    paw PP                                                  
   EAUG   =  370.139                                                            
   DEXC   =    0.000                                                            
   RMAX   =    2.359    core radius for proj-oper                               
   RAUG   =    1.300    factor for augmentation sphere                          
   RDEP   =    2.392    radius for radial grids                                 
   RDEPT  =    2.170    core radius for aug-charge                              
                                                                                
   Atomic configuration                                                         
   13 entries                                                                   
     n  l   j            E        occ.                                          
     1  0  0.50    -32976.3739   2.0000                                         
     2  0  0.50     -5094.5933   2.0000                                         
     2  1  1.50     -4572.0131   6.0000                                         
     3  0  0.50     -1028.2813   2.0000                                         
     3  1  1.50      -859.0250   6.0000                                         
     3  2  2.50      -605.7620  10.0000                                         
     4  0  0.50      -180.5540   2.0000                                         
     4  1  1.50      -127.5306   6.0000                                         
     4  2  2.50       -50.2720  10.0000                                         
     5  0  0.50       -17.4058   2.0000                                         
     5  1  0.50        -7.0851   5.0000                                         
     5  2  1.50        -7.0750   0.0000                                         
     4  3  2.50        -7.0750   0.0000                                         
   Description                                                                  
     l       E           TYP  RCUT    TYP  RCUT                                 
     0    -17.4058016     23  2.300                                             
     0    -18.7663842     23  2.300                                             
     1     -7.0850686     23  2.300                                             
     1     -4.2150896     23  2.300                                             
     2     -7.0750295     23  2.300                                             
     3     -1.3605826     23  2.300                                             
  local pseudopotential read in
  partial core-charges read in
  partial kinetic energy density read in
  atomic valenz-charges read in
  non local Contribution for L=           0  read in
    real space projection operators read in
  non local Contribution for L=           0  read in
    real space projection operators read in
  non local Contribution for L=           1  read in
    real space projection operators read in
  non local Contribution for L=           1  read in
    real space projection operators read in
  non local Contribution for L=           2  read in
    real space projection operators read in
    PAW grid and wavefunctions read in
 
   number of l-projection  operators is LMAX  =           5
   number of lm-projection operators is LMMAX =          13
 

 ----------------------------------------------------------------------------- 
|                                                                             |
|  ADVICE TO THIS USER RUNNING 'VASP/VAMP'   (HEAR YOUR MASTER'S VOICE ...):  |
|                                                                             |
|      You have a (more or less) 'large supercell' and for larger cells       |
|      it might be more efficient to use real space projection opertators     |
|      So try LREAL= Auto  in the INCAR   file.                               |
|      Mind: At the moment your POTCAR file does not contain real space       |
|       projectors, and has to be modified,  BUT if you                       |
|      want to do an extremely  accurate calculation you might also keep the  |
|      reciprocal projection scheme          (i.e. LREAL=.FALSE.)             |
|                                                                             |
 ----------------------------------------------------------------------------- 


 ----------------------------------------------------------------------------- 
|                                                                             |
|  ADVICE TO THIS USER RUNNING 'VASP/VAMP'   (HEAR YOUR MASTER'S VOICE ...):  |
|                                                                             |
|      You enforced a specific xc-type in the INCAR file,                     |
|      a different type was found on the POTCAR file                          |
|          I HOPE YOU KNOW, WHAT YOU ARE  DOING                               |
|                                                                             |
 ----------------------------------------------------------------------------- 

  PAW_PBE C 08Apr2002                   :
 energy of atom  1       EATOM= -147.1560
 kinetic energy error for atom=    0.0032 (will be added to EATOM!!)
  PAW_PBE N 08Apr2002                   :
 energy of atom  2       EATOM= -264.5486
 kinetic energy error for atom=    0.0061 (will be added to EATOM!!)
  PAW_PBE H 15Jun2001                   :
 energy of atom  3       EATOM=  -12.4884
 kinetic energy error for atom=    0.0002 (will be added to EATOM!!)
  PAW_PBE Pb_d 06Sep2000                :
 energy of atom  4       EATOM=-1661.6185
 kinetic energy error for atom=    0.0012 (will be added to EATOM!!)
  PAW_PBE I 08Apr2002                   :
 energy of atom  5       EATOM= -315.8678
 kinetic energy error for atom=    0.0003 (will be added to EATOM!!)
 
 
 POSCAR: C N H Pb I                              
  positions in direct lattice
  No initial velocities read in
 exchange correlation table for  LEXCH =       14
   RHO(1)=    0.500       N(1)  =     2000
   RHO(2)=  100.500       N(2)  =     4000
 


--------------------------------------------------------------------------------------------------------


 ion  position               nearest neighbor table
   1  0.198  0.250  0.229-  25 1.10  33 1.10  17 1.11   9 1.49
   2  0.696  0.250  0.229-  26 1.10  34 1.10  18 1.11  10 1.49
   3  0.196  0.750  0.229-  27 1.10  35 1.10  19 1.11  11 1.49
   4  0.698  0.750  0.229-  28 1.10  36 1.10  20 1.11  12 1.49
   5  0.196  0.250  0.729-  29 1.10  37 1.10  21 1.11  13 1.49
   6  0.698  0.250  0.729-  30 1.10  38 1.10  22 1.11  14 1.49
   7  0.198  0.750  0.729-  31 1.10  39 1.10  23 1.11  15 1.49
   8  0.696  0.750  0.729-  32 1.10  40 1.10  24 1.11  16 1.49
   9  0.310  0.250  0.262-  41 1.05  49 1.05  57 1.05   1 1.49
  10  0.799  0.250  0.285-  58 1.04  42 1.05  50 1.05   2 1.49
  11  0.299  0.750  0.285-  59 1.04  43 1.05  51 1.05   3 1.49
  12  0.810  0.750  0.262-  44 1.05  52 1.05  60 1.05   4 1.49
  13  0.299  0.250  0.785-  61 1.04  45 1.05  53 1.05   5 1.49
  14  0.810  0.250  0.762-  46 1.05  54 1.05  62 1.05   6 1.49
  15  0.310  0.750  0.762-  47 1.05  55 1.05  63 1.05   7 1.49
  16  0.799  0.750  0.785-  64 1.04  48 1.05  56 1.05   8 1.49
  17  0.196  0.250  0.142-   1 1.11
  18  0.714  0.250  0.144-   2 1.11
  19  0.214  0.750  0.144-   3 1.11
  20  0.696  0.750  0.142-   4 1.11
  21  0.214  0.250  0.644-   5 1.11
  22  0.696  0.250  0.642-   6 1.11
  23  0.196  0.750  0.642-   7 1.11
  24  0.714  0.750  0.644-   8 1.11
  25  0.157  0.322  0.259-   1 1.10
  26  0.651  0.322  0.252-   2 1.10
  27  0.151  0.822  0.252-   3 1.10
  28  0.657  0.822  0.259-   4 1.10
  29  0.151  0.322  0.752-   5 1.10
  30  0.657  0.322  0.759-   6 1.10
  31  0.157  0.822  0.759-   7 1.10
  32  0.651  0.822  0.752-   8 1.10
  33  0.158  0.177  0.260-   1 1.10
  34  0.651  0.177  0.252-   2 1.10
  35  0.151  0.677  0.252-   3 1.10
  36  0.658  0.677  0.260-   4 1.10
  37  0.151  0.177  0.752-   5 1.10
  38  0.658  0.177  0.760-   6 1.10
  39  0.158  0.677  0.760-   7 1.10
  40  0.651  0.677  0.752-   8 1.10
  41  0.351  0.318  0.235-   9 1.05
  42  0.845  0.318  0.266-  10 1.05
  43  0.345  0.818  0.266-  11 1.05
  44  0.851  0.818  0.235-  12 1.05
  45  0.345  0.318  0.766-  13 1.05
  46  0.851  0.318  0.735-  14 1.05
  47  0.351  0.818  0.735-  15 1.05
  48  0.845  0.818  0.766-  16 1.05
  49  0.352  0.182  0.235-   9 1.05
  50  0.845  0.182  0.266-  10 1.05
  51  0.345  0.682  0.266-  11 1.05
  52  0.852  0.682  0.235-  12 1.05
  53  0.345  0.182  0.766-  13 1.05
  54  0.852  0.182  0.735-  14 1.05
  55  0.352  0.682  0.735-  15 1.05
  56  0.845  0.682  0.766-  16 1.05
  57  0.318  0.250  0.345-   9 1.05
  58  0.788  0.250  0.367-  10 1.04
  59  0.288  0.750  0.367-  11 1.04
  60  0.818  0.750  0.345-  12 1.05
  61  0.288  0.250  0.867-  13 1.04
  62  0.818  0.250  0.845-  14 1.05
  63  0.318  0.750  0.845-  15 1.05
  64  0.788  0.750  0.867-  16 1.04
  65  0.472  0.499  0.489-  90 3.09  87 3.15  85 3.16  77 3.17  73 3.22  89 3.27
  66  0.972  0.501  0.489-  89 3.09  86 3.15  88 3.16  78 3.17  74 3.22  90 3.27
  67  0.472  0.001  0.489-  92 3.09  87 3.15  85 3.16  79 3.17  75 3.22  91 3.27
  68  0.972  0.999  0.489-  91 3.09  86 3.15  88 3.16  80 3.17  76 3.22  92 3.27
  69  0.472  0.501  0.989-  94 3.09  81 3.15  83 3.16  73 3.17  77 3.22  93 3.27
  70  0.972  0.499  0.989-  93 3.09  84 3.15  82 3.16  74 3.17  78 3.22  94 3.27
  71  0.472  0.999  0.989-  96 3.09  81 3.15  83 3.16  75 3.17  79 3.22  95 3.27
  72  0.972  0.001  0.989-  95 3.09  84 3.15  82 3.16  76 3.17  80 3.22  96 3.27
  73  0.455  0.503  0.238-  69 3.17  65 3.22
  74  0.955  0.497  0.238-  70 3.17  66 3.22
  75  0.455  0.997  0.238-  71 3.17  67 3.22
  76  0.955  0.003  0.238-  72 3.17  68 3.22
  77  0.455  0.497  0.738-  65 3.17  69 3.22
  78  0.955  0.503  0.738-  66 3.17  70 3.22
  79  0.455  0.003  0.738-  67 3.17  71 3.22
  80  0.955  0.997  0.738-  68 3.17  72 3.22
  81  0.472  0.250  0.011-  71 3.15  69 3.15
  82  0.927  0.250  0.013-  72 3.16  70 3.16
  83  0.427  0.750  0.013-  69 3.16  71 3.16
  84  0.972  0.750  0.011-  70 3.15  72 3.15
  85  0.427  0.250  0.513-  67 3.16  65 3.16
  86  0.972  0.250  0.511-  68 3.15  66 3.15
  87  0.472  0.750  0.511-  65 3.15  67 3.15
  88  0.927  0.750  0.513-  66 3.16  68 3.16
  89  0.216  0.526  0.461-  66 3.09  65 3.27
  90  0.716  0.474  0.461-  65 3.09  66 3.27
  91  0.216  0.974  0.461-  68 3.09  67 3.27
  92  0.716  0.026  0.461-  67 3.09  68 3.27
  93  0.216  0.474  0.961-  70 3.09  69 3.27
  94  0.716  0.526  0.961-  69 3.09  70 3.27
  95  0.216  0.026  0.961-  72 3.09  71 3.27
  96  0.716  0.974  0.961-  71 3.09  72 3.27
 
  LATTYP: Found a triclinic cell.
 ALAT       =    17.8238589327
 B/A-ratio  =     0.6989248630
 C/A-ratio  =     1.0156975818
 COS(alpha) =     0.0001355172
 COS(beta)  =     0.5146378593
 COS(gamma) =     0.6988877578
  
  Lattice vectors:
  
 A1 = (  -0.1406063366, -12.4576271275, -12.7466742118)
 A2 = (  -0.0011956322, -12.4575380825,   0.0007464135)
 A3 = ( -12.7162481321,  -0.0020049566, -12.8856194186)


Analysis of symmetry for initial positions (statically):
=====================================================================
 Subroutine PRICEL returns following result:
 
  LATTYP: Found a triclinic cell.
 ALAT       =     8.8524544993
 B/A-ratio  =     1.4072411401
 C/A-ratio  =     1.0225215175
 COS(alpha) =     0.0001355172
 COS(beta)  =     0.5046167836
 COS(gamma) =     0.7037964938
  
  Lattice vectors:
  
 A1 = (   6.2890165300,   6.2297269971,   0.0687261899)
 A2 = (   0.0011956322,  12.4575380825,  -0.0007464135)
 A3 = (   6.3581240661,   0.0010024783,   6.4428097093)
 
   4 primitive cells build up your supercell.
 

 Routine SETGRP: Setting up the symmetry group for a 
 triclinic supercell.


 Subroutine GETGRP returns: Found  1 space group operations
 (whereof  1 operations were pure point group operations)
 out of a pool of  2 trial point group operations.


The static configuration has the point symmetry C_1 .


Analysis of symmetry for dynamics (positions and initial velocities):
=====================================================================
 Subroutine PRICEL returns following result:
 
  LATTYP: Found a triclinic cell.
 ALAT       =     8.8524544993
 B/A-ratio  =     1.4072411401
 C/A-ratio  =     1.0225215175
 COS(alpha) =     0.0001355172
 COS(beta)  =     0.5046167836
 COS(gamma) =     0.7037964938
  
  Lattice vectors:
  
 A1 = (   6.2890165300,   6.2297269971,   0.0687261899)
 A2 = (   0.0011956322,  12.4575380825,  -0.0007464135)
 A3 = (   6.3581240661,   0.0010024783,   6.4428097093)
 
   4 primitive cells build up your supercell.
 

 Routine SETGRP: Setting up the symmetry group for a 
 triclinic supercell.


 Subroutine GETGRP returns: Found  1 space group operations
 (whereof  1 operations were pure point group operations)
 out of a pool of  2 trial point group operations.


The dynamic configuration has the point symmetry C_1 .


 Subroutine INISYM returns: Found  1 space group operations
 (whereof  1 operations are pure point group operations),
 and found     4 'primitive' translations

 
 
 KPOINTS: Automatic 3x3x3                         

Automatic generation of k-mesh.
Space group operators:
 irot       det(A)        alpha          n_x          n_y          n_z        tau_x        tau_y        tau_z
    1     1.000000     0.000000     1.000000     0.000000     0.000000     0.000000     0.000000     0.000000
 
 Subroutine IBZKPT returns following result:
 ===========================================
 
 Found     14 irreducible k-points:
 
 Following reciprocal coordinates:
            Coordinates               Weight
  0.000000  0.000000  0.000000      1.000000
  0.333333 -0.000000 -0.000000      2.000000
  0.000000  0.333333 -0.000000      2.000000
  0.333333  0.333333  0.000000      2.000000
 -0.333333  0.333333  0.000000      2.000000
  0.000000  0.000000  0.333333      2.000000
  0.333333  0.000000  0.333333      2.000000
 -0.333333  0.000000  0.333333      2.000000
  0.000000  0.333333  0.333333      2.000000
  0.333333  0.333333  0.333333      2.000000
 -0.333333  0.333333  0.333333      2.000000
  0.000000 -0.333333  0.333333      2.000000
  0.333333 -0.333333  0.333333      2.000000
 -0.333333 -0.333333  0.333333      2.000000
 
 Following cartesian coordinates:
            Coordinates               Weight
  0.000000  0.000000  0.000000      1.000000
  0.026507 -0.000003 -0.000290      2.000000
 -0.000004  0.026758 -0.000000      2.000000
  0.026503  0.026755 -0.000290      2.000000
 -0.026511  0.026760  0.000290      2.000000
 -0.000287  0.000002  0.026152      2.000000
  0.026220 -0.000001  0.025862      2.000000
 -0.026794  0.000004  0.026442      2.000000
 -0.000291  0.026759  0.026152      2.000000
  0.026215  0.026757  0.025862      2.000000
 -0.026798  0.026762  0.026442      2.000000
 -0.000283 -0.026756  0.026152      2.000000
  0.026224 -0.026759  0.025862      2.000000
 -0.026790 -0.026753  0.026442      2.000000
 


--------------------------------------------------------------------------------------------------------




 Dimension of arrays:
   k-points           NKPTS =     14   k-points in BZ     NKDIM =     14   number of bands    NBANDS=    256
   number of dos      NEDOS =    301   number of ions     NIONS =     96
   non local maximal  LDIM  =      6   non local SUM 2l+1 LMDIM =     18
   total plane-waves  NPLWV = ******
   max r-space proj   IRMAX =      1   max aug-charges    IRDMAX= 314103
   dimension x,y,z NGX =   112 NGY =  108 NGZ =  112
   dimension x,y,z NGXF=   224 NGYF=  216 NGZF=  224
   support grid    NGXF=   448 NGYF=  432 NGZF=  448
   ions per type =               8   8  48   8  24
 NGX,Y,Z   is equivalent  to a cutoff of  14.80, 14.41, 14.61 a.u.
 NGXF,Y,Z  is equivalent  to a cutoff of  29.61, 28.83, 29.21 a.u.


 I would recommend the setting:
   dimension x,y,z NGX =   109 NGY =  107 NGZ =  110
 SYSTEM =  MAPbI3-Cubic                            
 POSCAR =  C N H Pb I                              

 Startparameter for this run:
   NWRITE =      2    write-flag & timer
   PREC   = accura    normal or accurate (medium, high low for compatibility)
   ISTART =      0    job   : 0-new  1-cont  2-samecut
   ICHARG =      2    charge: 1-file 2-atom 10-const
   ISPIN  =      1    spin polarized calculation?
   LNONCOLLINEAR =      F non collinear calculations
   LSORBIT =      F    spin-orbit coupling
   INIWAV =      1    electr: 0-lowe 1-rand  2-diag
   LASPH  =      F    aspherical Exc in radial PAW
   METAGGA=      F    non-selfconsistent MetaGGA calc.

 Electronic Relaxation 1
   ENCUT  =  700.0 eV  51.45 Ry    7.17 a.u.  27.13 26.87 27.50*2*pi/ulx,y,z
   ENINI  =  700.0     initial cutoff
   ENAUG  =  644.9 eV  augmentation charge cutoff
   NELM   =     60;   NELMIN=  2; NELMDL= -5     # of ELM steps 
   EDIFF  = 0.1E-07   stopping-criterion for ELM
   LREAL  =      F    real-space projection
   NLSPLINE    = F    spline interpolate recip. space projectors
   LCOMPAT=      F    compatible to vasp.4.4
   GGA_COMPAT  = T    GGA compatible to vasp.4.4-vasp.4.6
   LMAXPAW     = -100 max onsite density
   LMAXMIX     =    2 max onsite mixed and CHGCAR
   VOSKOWN=      0    Vosko Wilk Nusair interpolation
   ROPT   =    0.00000   0.00000   0.00000   0.00000
   ROPT   =    0.00000
 Ionic relaxation
   EDIFFG = 0.1E-06   stopping-criterion for IOM
   NSW    =      0    number of steps for IOM
   NBLOCK =      1;   KBLOCK =      1    inner block; outer block 
   IBRION =     -1    ionic relax: 0-MD 1-quasi-New 2-CG
   NFREE  =      0    steps in history (QN), initial steepest desc. (CG)
   ISIF   =      2    stress and relaxation
   IWAVPR =     10    prediction:  0-non 1-charg 2-wave 3-comb
   ISYM   =      2    0-nonsym 1-usesym 2-fastsym
   LCORR  =      T    Harris-Foulkes like correction to forces

   POTIM  = 0.5000    time-step for ionic-motion
   TEIN   =    0.0    initial temperature
   TEBEG  =    0.0;   TEEND  =   0.0 temperature during run
   SMASS  =  -3.00    Nose mass-parameter (am)
   estimated Nose-frequenzy (Omega)   =  0.10E-29 period in steps =****** mass=  -0.362E-26a.u.
   SCALEE = 1.0000    scale energy and forces
   NPACO  =    256;   APACO  = 16.0  distance and # of slots for P.C.
   PSTRESS=    0.0 pullay stress

  Mass of Ions in am
   POMASS =  12.01 14.00  1.00207.20126.90
  Ionic Valenz
   ZVAL   =   4.00  5.00  1.00 14.00  7.00
  Atomic Wigner-Seitz radii
   RWIGS  =  -1.00 -1.00 -1.00 -1.00 -1.00
  virtual crystal weights 
   VCA    =   1.00  1.00  1.00  1.00  1.00
   NELECT =     400.0000    total number of electrons
   NUPDOWN=      -1.0000    fix difference up-down

 DOS related values:
   EMIN   =  10.00;   EMAX   =-10.00  energy-range for DOS
   EFERMI =   0.00
   ISMEAR =     0;   SIGMA  =   0.00  broadening in eV -4-tet -1-fermi 0-gaus

 Electronic relaxation 2 (details)
   IALGO  =     38    algorithm
   LDIAG  =      T    sub-space diagonalisation (order eigenvalues)
   LSUBROT=      F    optimize rotation matrix (better conditioning)
   TURBO    =      0    0=normal 1=particle mesh
   IRESTART =      0    0=no restart 2=restart with 2 vectors
   NREBOOT  =      0    no. of reboots
   NMIN     =      0    reboot dimension
   EREF     =   0.00    reference energy to select bands
   IMIX   =      4    mixing-type and parameters
     AMIX     =   0.40;   BMIX     =  1.00
     AMIX_MAG =   1.60;   BMIX_MAG =  1.00
     AMIN     =   0.10
     WC   =   100.;   INIMIX=   1;  MIXPRE=   1;  MAXMIX= -45

 Intra band minimization:
   WEIMIN = 0.0000     energy-eigenvalue tresh-hold
   EBREAK =  0.98E-11  absolut break condition
   DEPER  =   0.30     relativ break condition  

   TIME   =   0.40     timestep for ELM

  volume/ion in A,a.u.               =      20.80       140.38
  Fermi-wavevector in a.u.,A,eV,Ry     =   0.957863  1.810099 12.483376  0.917502
  Thomas-Fermi vector in A             =   2.086919
 
 Write flags
   LWAVE  =      F    write WAVECAR
   LCHARG =      F    write CHGCAR
   LVTOT  =      F    write LOCPOT, total local potential
   LVHAR  =      F    write LOCPOT, Hartree potential only
   LELF   =      F    write electronic localiz. function (ELF)
   LORBIT =      0    0 simple, 1 ext, 2 COOP (PROOUT)


 Dipole corrections
   LMONO  =      F    monopole corrections only (constant potential shift)
   LDIPOL =      F    correct potential (dipole corrections)
   IDIPOL =      0    1-x, 2-y, 3-z, 4-all directions 
   EPSILON=  1.0000000 bulk dielectric constant

 Exchange correlation treatment:
   GGA     =    PS    GGA type
   LEXCH   =    14    internal setting for exchange type
   VOSKOWN=      0    Vosko Wilk Nusair interpolation
   LHFCALC =     F    Hartree Fock is set to
   LHFONE  =     F    Hartree Fock one center treatment
   AEXX    =    0.0000 exact exchange contribution

 Linear response parameters
   LEPSILON=     F    determine dielectric tensor
   LRPA    =     F    only Hartree local field effects (RPA)
   LNABLA  =     F    use nabla operator in PAW spheres
   LVEL    =     F    velocity operator in full k-point grid
   LINTERFAST=   F  fast interpolation
   KINTER  =     0    interpolate to denser k-point grid
   CSHIFT  =0.1000    complex shift for real part using Kramers Kronig
   OMEGAMAX=  -1.0    maximum frequency
   DEG_THRESHOLD= 0.2000000E-02 threshold for treating states as degnerate
   RTIME   =    0.100 relaxation time in fs

 Orbital magnetization related:
   ORBITALMAG=     F  switch on orbital magnetization
   LCHIMAG   =     F  perturbation theory with respect to B field
   DQ        =  0.001000  dq finite difference perturbation B field



--------------------------------------------------------------------------------------------------------


 Static calculation
 charge density and potential will be updated during run
 non-spin polarized calculation
 Variant of blocked Davidson
 Davidson routine will perform the subspace rotation
 perform sub-space diagonalisation
    after iterative eigenvector-optimisation
 modified Broyden-mixing scheme, WC =      100.0
 initial mixing is a Kerker type mixing with AMIX =  0.4000 and BMIX =      1.0000
 Hartree-type preconditioning will be used
 using additional bands           56
 reciprocal scheme for non local part
 use partial core corrections
 calculate Harris-corrections to forces 
   (improved forces if not selfconsistent)
 use gradient corrections 
 use of overlap-Matrix (Vanderbilt PP)
 Gauss-broadening in eV      SIGMA  =   0.00


--------------------------------------------------------------------------------------------------------


  energy-cutoff  :      700.00
  volume of cell :     1996.98
      direct lattice vectors                 reciprocal lattice vectors
    12.576837428  0.001915912  0.138198793     0.079520802 -0.000007684 -0.000869670
     0.001195632 12.457538083 -0.000746413    -0.000012224  0.080272684 -0.000000427
     0.139410704  0.000089045 12.747420625    -0.000862111  0.000004784  0.078456671

  length of vectors
    12.577596840 12.457538162 12.748182927     0.079525558  0.080272685  0.078461408


 
 k-points in units of 2pi/SCALE and weight: Automatic 3x3x3                         
   0.00000000  0.00000000  0.00000000       0.037
   0.02650693 -0.00000256 -0.00028989       0.074
  -0.00000407  0.02675756 -0.00000014       0.074
   0.02650286  0.02675500 -0.00029003       0.074
  -0.02651101  0.02676012  0.00028975       0.074
  -0.00028737  0.00000159  0.02615222       0.074
   0.02621956 -0.00000097  0.02586233       0.074
  -0.02679430  0.00000416  0.02644211       0.074
  -0.00029144  0.02675916  0.02615208       0.074
   0.02621549  0.02675659  0.02586219       0.074
  -0.02679838  0.02676172  0.02644197       0.074
  -0.00028330 -0.02675597  0.02615237       0.074
   0.02622364 -0.02675853  0.02586248       0.074
  -0.02679023 -0.02675341  0.02644226       0.074
 
 k-points in reciprocal lattice and weights: Automatic 3x3x3                         
   0.00000000  0.00000000  0.00000000       0.037
   0.33333333 -0.00000000 -0.00000000       0.074
   0.00000000  0.33333333 -0.00000000       0.074
   0.33333333  0.33333333  0.00000000       0.074
  -0.33333333  0.33333333  0.00000000       0.074
   0.00000000  0.00000000  0.33333333       0.074
   0.33333333  0.00000000  0.33333333       0.074
  -0.33333333  0.00000000  0.33333333       0.074
   0.00000000  0.33333333  0.33333333       0.074
   0.33333333  0.33333333  0.33333333       0.074
  -0.33333333  0.33333333  0.33333333       0.074
   0.00000000 -0.33333333  0.33333333       0.074
   0.33333333 -0.33333333  0.33333333       0.074
  -0.33333333 -0.33333333  0.33333333       0.074
 
 position of ions in fractional coordinates (direct lattice) 
   0.19759350  0.24986107  0.22864445
   0.69639477  0.24995548  0.22918626
   0.19639477  0.74995548  0.22918626
   0.69759350  0.74986107  0.22864445
   0.19639477  0.24995548  0.72918626
   0.69759350  0.24986107  0.72864445
   0.19759350  0.74986107  0.72864445
   0.69639477  0.74995548  0.72918626
   0.31007904  0.24997331  0.26249985
   0.79899539  0.25003397  0.28526874
   0.29899539  0.75003397  0.28526874
   0.81007904  0.74997331  0.26249985
   0.29899539  0.25003397  0.78526874
   0.81007904  0.24997331  0.76249985
   0.31007904  0.74997331  0.76249985
   0.79899539  0.75003397  0.78526874
   0.19647803  0.24977413  0.14196399
   0.71367231  0.24986807  0.14381326
   0.21367231  0.74986807  0.14381326
   0.69647803  0.74977413  0.14196399
   0.21367231  0.24986807  0.64381326
   0.69647803  0.24977413  0.64196399
   0.19647803  0.74977413  0.64196399
   0.71367231  0.74986807  0.64381326
   0.15747326  0.32223705  0.25942665
   0.65120235  0.32246732  0.25160398
   0.15120235  0.82246732  0.25160398
   0.65747326  0.82223705  0.25942665
   0.15120235  0.32246732  0.75160398
   0.65747326  0.32223705  0.75942665
   0.15747326  0.82223705  0.75942665
   0.65120235  0.82246732  0.75160398
   0.15761809  0.17748087  0.25955257
   0.65126758  0.17747128  0.25174884
   0.15126758  0.67747128  0.25174884
   0.65761809  0.67748087  0.25955257
   0.15126758  0.17747128  0.75174884
   0.65761809  0.17748087  0.75955257
   0.15761809  0.67748087  0.75955257
   0.65126758  0.67747128  0.75174884
   0.35148264  0.31778484  0.23521529
   0.84478652  0.31796372  0.26629769
   0.34478652  0.81796372  0.26629769
   0.85148264  0.81778484  0.23521529
   0.34478652  0.31796372  0.76629769
   0.85148264  0.31778484  0.73521529
   0.35148264  0.81778484  0.73521529
   0.84478652  0.81796372  0.76629769
   0.35160078  0.18216692  0.23530808
   0.84480982  0.18204285  0.26647372
   0.34480982  0.68204285  0.26647372
   0.85160078  0.68216692  0.23530808
   0.34480982  0.18204285  0.76647372
   0.85160078  0.18216692  0.73530808
   0.35160078  0.68216692  0.73530808
   0.84480982  0.68204285  0.76647372
   0.31816611  0.25003109  0.34457118
   0.78817404  0.25015595  0.36664731
   0.28817404  0.75015595  0.36664731
   0.81816611  0.75003109  0.34457118
   0.28817404  0.25015595  0.86664731
   0.81816611  0.25003109  0.84457118
   0.31816611  0.75003109  0.84457118
   0.78817404  0.75015595  0.86664731
   0.47243890  0.49850886  0.48880751
   0.97244465  0.50147073  0.48881539
   0.47244465  0.00147073  0.48881539
   0.97243890  0.99850886  0.48880751
   0.47244465  0.50147073  0.98881539
   0.97243890  0.49850886  0.98880751
   0.47243890  0.99850886  0.98880751
   0.97244465  0.00147073  0.98881539
   0.45470910  0.50305667  0.23757449
   0.95477825  0.49692543  0.23757099
   0.45477825  0.99692543  0.23757099
   0.95470910  0.00305667  0.23757449
   0.45477825  0.49692543  0.73757099
   0.95470910  0.50305667  0.73757449
   0.45470910  0.00305667  0.73757449
   0.95477825  0.99692543  0.73757099
   0.47236570  0.24997355  0.01081672
   0.92690518  0.24998447  0.01284771
   0.42690518  0.74998447  0.01284771
   0.97236570  0.74997355  0.01081672
   0.42690518  0.24998447  0.51284771
   0.97236570  0.24997355  0.51081672
   0.47236570  0.74997355  0.51081672
   0.92690518  0.74998447  0.51284771
   0.21616581  0.52607145  0.46126692
   0.71617707  0.47392342  0.46121248
   0.21617707  0.97392342  0.46121248
   0.71616581  0.02607145  0.46126692
   0.21617707  0.47392342  0.96121248
   0.71616581  0.52607145  0.96126692
   0.21616581  0.02607145  0.96126692
   0.71617707  0.97392342  0.96121248
 
 position of ions in cartesian coordinates  (Angst):
   2.51727552  3.11305269  2.94174763
   8.79069364  3.11518459  3.01758802
   2.50287275  9.34299568  2.94811541
   8.80629205  9.34277968  3.01047382
   2.57198028  3.11427116  9.32219893
   8.87539959  3.11405516  9.38455734
   2.58757869  9.34186625  9.31508474
   8.86099681  9.34399816  9.39092512
   3.93670788  3.11466954  3.38886196
  10.08890365  3.11636387  3.74667424
   3.80108275  9.34417495  3.67720163
  10.22572441  9.34439654  3.45758815
   3.87019029  3.11545044 10.05128515
  10.29483195  3.11567202  9.83167167
   4.00701105  9.34348311  9.76219906
  10.15920682  9.34517743 10.12001134
   2.49116214  3.11195975  1.83664126
   8.99608845  3.11412110  1.93169031
   2.70826755  9.34193219  1.86221771
   8.78017867  9.34168675  1.90536745
   2.77737508  3.11320767  8.23630123
   8.84928621  3.11296223  8.27945097
   2.56146531  9.34077332  8.20997837
   9.06639161  9.34293467  8.30502742
   2.01706776  4.01460517  3.32854278
   8.22552793  4.01841897  3.29705650
   1.93770704 10.24623006  3.22758389
   8.30608429 10.24433217  3.39726897
   2.00681457  4.01750554  9.60166741
   8.37519182  4.01560765  9.77135249
   2.08737093 10.24341873  9.70187989
   8.29583110 10.24723253  9.67039360
   2.01873365  2.21129977  3.33027599
   8.22619517  2.21212541  3.29902027
   1.93837427  8.43993649  3.22954767
   8.30775018  8.44102676  3.39900218
   2.00748181  2.21121197  9.60363119
   8.37685772  2.21230224  9.77308570
   2.08903682  8.44011333  9.70361310
   8.29649834  8.44093897  9.67235738
   4.45371146  3.95951116  3.04672550
  10.66224762  3.96268741  3.51111986
   4.37442672 10.19049850  3.44164725
  10.74272799 10.18923816  3.11545169
   4.44353425  3.96177398  9.81573077
  10.81183553  3.96051364  9.48953521
   4.52401463 10.18832472  9.42006260
  10.73255078 10.19150098  9.88445696
   4.45504807  2.27004597  3.04802586
  10.66240277  2.26944807  3.51346845
   4.37458187  8.49725916  3.44399585
  10.74406460  8.49977297  3.11675205
   4.44368940  2.26853464  9.81807937
  10.81317213  2.27104845  9.49083557
   4.52535124  8.49885953  9.42136297
  10.73270593  8.49826163  9.88680556
   4.04985926  3.11541207  4.43617726
   9.96415041  3.11787005  4.78254551
   3.67632951  9.34568114  4.71307290
  10.33887579  9.34513907  4.50490345
   3.74543704  3.11695662 11.08715642
  10.40798333  3.11641455 10.87898697
   4.12016243  9.34422563 10.80951437
  10.03445357  9.34668362 11.15588261
   6.01052827  6.21114178  6.29595330
  12.29902397  6.24899736  6.36515170
   6.01000744  0.01927036  6.29642551
  12.29954480 12.44086878  6.36467949
   6.08031060  6.24808393 12.66976262
  12.36865234  6.21214426 12.73876301
   6.08083144 12.43995534 12.66929041
  12.36813150  0.02027284 12.73923522
   5.75252430  6.26773995  3.09092676
  12.04180492  6.19231789  3.15999563
   5.75398402 12.42012898  3.09052302
  12.04034520  0.03992886  3.16039937
   5.82309155  6.19140446  9.46460654
  12.11064837  6.26874243  9.53373647
   5.82163184  0.03901543  9.46501028
  12.11210808 12.42113146  9.53333273
   5.94267344  3.11496100  0.20297909
  11.65962577  3.11596807  0.29168579
   5.37180487  9.34377916  0.22221319
  12.23168997  9.34468800  0.27170528
   5.44091241  3.11505464  6.59629671
  12.30079750  3.11596348  6.64578880
   6.01297661  9.34377456  6.57631620
  11.72992894  9.34478164  6.66502290
   2.78361673  6.55401039  5.90944469
   9.07210719  5.90533225  5.97789054
   2.78428629 12.13314333  5.90841794
   9.07143762  0.32619930  5.97891729
   2.85339383  5.90441881 12.28250146
   9.14174079  6.55501287 12.35225440
   2.85272426  0.32528587 12.28352821
   9.14241036 12.13414581 12.35122765
 


--------------------------------------------------------------------------------------------------------


 k-point  1 :   0.0000 0.0000 0.0000  plane waves:   84007
 k-point  2 :   0.3333-0.0000-0.0000  plane waves:   84003
 k-point  3 :   0.0000 0.3333-0.0000  plane waves:   83995
 k-point  4 :   0.3333 0.3333 0.0000  plane waves:   84018
 k-point  5 :  -0.3333 0.3333 0.0000  plane waves:   84019
 k-point  6 :   0.0000 0.0000 0.3333  plane waves:   83960
 k-point  7 :   0.3333 0.0000 0.3333  plane waves:   83937
 k-point  8 :  -0.3333 0.0000 0.3333  plane waves:   83982
 k-point  9 :   0.0000 0.3333 0.3333  plane waves:   83984
 k-point 10 :   0.3333 0.3333 0.3333  plane waves:   84012
 k-point 11 :  -0.3333 0.3333 0.3333  plane waves:   83970
 k-point 12 :   0.0000-0.3333 0.3333  plane waves:   83977
 k-point 13 :   0.3333-0.3333 0.3333  plane waves:   84013
 k-point 14 :  -0.3333-0.3333 0.3333  plane waves:   83973

 maximum and minimum number of plane-waves per node :     28039    27934

 maximum number of plane-waves:     84019
 maximum index in each direction: 
   IXMAX=   27   IYMAX=   27   IZMAX=   27
   IXMIN=  -27   IYMIN=  -27   IZMIN=  -27

 NGX is ok and might be reduce to 110
 WARNING: aliasing errors must be expected set NGY to 110 to avoid them
 NGZ is ok and might be reduce to 110
 aliasing errors are usually negligible using standard VASP settings
 and one can safely disregard these warnings

 parallel 3D FFT for wavefunctions:
    minimum data exchange during FFTs selected (reduces bandwidth)
 parallel 3D FFT for charge:
    minimum data exchange during FFTs selected (reduces bandwidth)


 total amount of memory used by VASP on root node   697522. kBytes
========================================================================

   base      :      30000. kBytes
   nonl-proj :     325712. kBytes
   fftplans  :      80881. kBytes
   grid      :      57435. kBytes
   one-center:        497. kBytes
   wavefun   :     202997. kBytes
 
     INWAV:  cpu time    0.0000: real time    0.0000
 Broyden mixing: mesh for mixing (old mesh)
   NGX = 55   NGY = 53   NGZ = 55
  (NGX  =224   NGY  =216   NGZ  =224)
  gives a total of 160325 points

 initial charge density was supplied:
 charge density of overlapping atoms calculated
 number of electron     400.0000000 magnetization 
 keeping initial charge density in first step


--------------------------------------------------------------------------------------------------------


 Maximum index for augmentation-charges        14815 (set IRDMAX)


--------------------------------------------------------------------------------------------------------


 First call to EWALD:  gamma=   0.141
 Maximum number of real-space cells 3x 3x 3
 Maximum number of reciprocal cells 3x 3x 3

 FEWALD executed in parallel
    FEWALD:  cpu time    0.0040: real time    0.0042


----------------------------------------- Iteration    1(   1)  ---------------------------------------


    POTLOK:  cpu time    0.4480: real time    0.4471
    SETDIJ:  cpu time    0.7560: real time    0.7563
     EDDAV:  cpu time  248.8316: real time  248.9904
       DOS:  cpu time    0.0040: real time    0.0006
    --------------------------------------------
      LOOP:  cpu time  250.0396: real time  250.2165

 eigenvalue-minimisations  :  7176
 total energy-change (2. order) : 0.3598661E+04  (-0.1894439E+05)
 number of electron     400.0000000 magnetization 
 augmentation part      400.0000000 magnetization 

 Free energy of the ion-electron system (eV)
  ---------------------------------------------------
  alpha Z        PSCENC =       370.05370877
  Ewald energy   TEWEN  =    -15541.70579541
  -Hartree energ DENC   =     -8111.62558048
  -exchange      EXHF   =         0.00000000
  -V(xc)+E(xc)   XCENC  =       389.68037093
  PAW double counting   =     20601.23165652   -19855.90553853
  entropy T*S    EENTRO =        -0.00000000
  eigenvalues    EBANDS =       997.92590853
  atomic energy  EATOM  =     24749.00668030
  Solvation  Ediel_sol  =         0.00000000
  ---------------------------------------------------
  free energy    TOTEN  =      3598.66141064 eV

  energy without entropy =     3598.66141064  energy(sigma->0) =     3598.66141064


--------------------------------------------------------------------------------------------------------




----------------------------------------- Iteration    1(   2)  ---------------------------------------


     EDDAV:  cpu time  269.8409: real time  270.0082
       DOS:  cpu time    0.0000: real time    0.0005
    --------------------------------------------
      LOOP:  cpu time  269.8409: real time  270.0156

 eigenvalue-minimisations  :  7944
 total energy-change (2. order) :-0.3395967E+04  (-0.3199710E+04)
 number of electron     400.0000000 magnetization 
 augmentation part      400.0000000 magnetization 

 Free energy of the ion-electron system (eV)
  ---------------------------------------------------
  alpha Z        PSCENC =       370.05370877
  Ewald energy   TEWEN  =    -15541.70579541
  -Hartree energ DENC   =     -8111.62558048
  -exchange      EXHF   =         0.00000000
  -V(xc)+E(xc)   XCENC  =       389.68037093
  PAW double counting   =     20601.23165652   -19855.90553853
  entropy T*S    EENTRO =        -0.00000000
  eigenvalues    EBANDS =     -2398.04068036
  atomic energy  EATOM  =     24749.00668030
  Solvation  Ediel_sol  =         0.00000000
  ---------------------------------------------------
  free energy    TOTEN  =       202.69482174 eV

  energy without entropy =      202.69482174  energy(sigma->0) =      202.69482174


--------------------------------------------------------------------------------------------------------




----------------------------------------- Iteration    1(   3)  ---------------------------------------


     EDDAV:  cpu time  310.4154: real time  310.6064
       DOS:  cpu time    0.0000: real time    0.0003
    --------------------------------------------
      LOOP:  cpu time  310.4154: real time  310.6439

 eigenvalue-minimisations  :  9480
 total energy-change (2. order) :-0.6004949E+03  (-0.5913416E+03)
 number of electron     400.0000000 magnetization 
 augmentation part      400.0000000 magnetization 

 Free energy of the ion-electron system (eV)
  ---------------------------------------------------
  alpha Z        PSCENC =       370.05370877
  Ewald energy   TEWEN  =    -15541.70579541
  -Hartree energ DENC   =     -8111.62558048
  -exchange      EXHF   =         0.00000000
  -V(xc)+E(xc)   XCENC  =       389.68037093
  PAW double counting   =     20601.23165652   -19855.90553853
  entropy T*S    EENTRO =         0.00000000
  eigenvalues    EBANDS =     -2998.53560227
  atomic energy  EATOM  =     24749.00668030
  Solvation  Ediel_sol  =         0.00000000
  ---------------------------------------------------
  free energy    TOTEN  =      -397.80010016 eV

  energy without entropy =     -397.80010016  energy(sigma->0) =     -397.80010016


--------------------------------------------------------------------------------------------------------




----------------------------------------- Iteration    1(   4)  ---------------------------------------


     EDDAV:  cpu time  315.2117: real time  315.4084
       DOS:  cpu time    0.0000: real time    0.0004
    --------------------------------------------
      LOOP:  cpu time  315.2117: real time  315.4570

 eigenvalue-minimisations  :  9664
 total energy-change (2. order) :-0.4065468E+02  (-0.4047792E+02)
 number of electron     400.0000000 magnetization 
 augmentation part      400.0000000 magnetization 

 Free energy of the ion-electron system (eV)
  ---------------------------------------------------
  alpha Z        PSCENC =       370.05370877
  Ewald energy   TEWEN  =    -15541.70579541
  -Hartree energ DENC   =     -8111.62558048
  -exchange      EXHF   =         0.00000000
  -V(xc)+E(xc)   XCENC  =       389.68037093
  PAW double counting   =     20601.23165652   -19855.90553853
  entropy T*S    EENTRO =         0.00000000
  eigenvalues    EBANDS =     -3039.19027983
  atomic energy  EATOM  =     24749.00668030
  Solvation  Ediel_sol  =         0.00000000
  ---------------------------------------------------
  free energy    TOTEN  =      -438.45477772 eV

  energy without entropy =     -438.45477772  energy(sigma->0) =     -438.45477772


--------------------------------------------------------------------------------------------------------




----------------------------------------- Iteration    1(   5)  ---------------------------------------


     EDDAV:  cpu time  318.3639: real time  318.5630
       DOS:  cpu time    0.0000: real time    0.0004
    CHARGE:  cpu time    9.2126: real time    9.2200
    MIXING:  cpu time    0.0160: real time    0.0131
    --------------------------------------------
      LOOP:  cpu time  327.5965: real time  327.8121

 eigenvalue-minimisations  :  9784
 total energy-change (2. order) :-0.1524289E+01  (-0.1521973E+01)
 number of electron     400.0000000 magnetization 
 augmentation part        7.5639955 magnetization 

 Broyden mixing:
  rms(total) = 0.29494E+01    rms(broyden)= 0.29494E+01
  rms(prec ) = 0.34999E+01
  weight for this iteration     100.00

 Free energy of the ion-electron system (eV)
  ---------------------------------------------------
  alpha Z        PSCENC =       370.05370877
  Ewald energy   TEWEN  =    -15541.70579541
  -Hartree energ DENC   =     -8111.62558048
  -exchange      EXHF   =         0.00000000
  -V(xc)+E(xc)   XCENC  =       389.68037093
  PAW double counting   =     20601.23165652   -19855.90553853
  entropy T*S    EENTRO =         0.00000000
  eigenvalues    EBANDS =     -3040.71456859
  atomic energy  EATOM  =     24749.00668030
  Solvation  Ediel_sol  =         0.00000000
  ---------------------------------------------------
  free energy    TOTEN  =      -439.97906648 eV

  energy without entropy =     -439.97906648  energy(sigma->0) =     -439.97906648


--------------------------------------------------------------------------------------------------------




----------------------------------------- Iteration    1(   6)  ---------------------------------------


    POTLOK:  cpu time    0.4440: real time    0.4425
    SETDIJ:  cpu time    0.7560: real time    0.7578
     EDDAV:  cpu time  315.0717: real time  315.2694
       DOS:  cpu time    0.0000: real time    0.0006
    CHARGE:  cpu time    9.2126: real time    9.2184
    MIXING:  cpu time    0.0120: real time    0.0133
    --------------------------------------------
      LOOP:  cpu time  325.4963: real time  325.7490

 eigenvalue-minimisations  :  9704
 total energy-change (2. order) : 0.2042980E+02  (-0.4132297E+01)
 number of electron     400.0000000 magnetization 
 augmentation part        7.8747422 magnetization 

 Broyden mixing:
  rms(total) = 0.15617E+01    rms(broyden)= 0.15617E+01
  rms(prec ) = 0.17393E+01
  weight for this iteration     100.00

 eigenvalues of (default mixing * dielectric matrix)
  average eigenvalue GAMMA=   1.5467
  1.5467

 Free energy of the ion-electron system (eV)
  ---------------------------------------------------
  alpha Z        PSCENC =       370.05370877
  Ewald energy   TEWEN  =    -15541.70579541
  -Hartree energ DENC   =     -8282.54978203
  -exchange      EXHF   =         0.00000000
  -V(xc)+E(xc)   XCENC  =       403.80459630
  PAW double counting   =     23032.56197200   -22285.18623840
  entropy T*S    EENTRO =         0.00000000
  eigenvalues    EBANDS =     -2865.53440356
  atomic energy  EATOM  =     24749.00668030
  Solvation  Ediel_sol  =         0.00000000
  ---------------------------------------------------
  free energy    TOTEN  =      -419.54926202 eV

  energy without entropy =     -419.54926202  energy(sigma->0) =     -419.54926202


--------------------------------------------------------------------------------------------------------




----------------------------------------- Iteration    1(   7)  ---------------------------------------


    POTLOK:  cpu time    0.4400: real time    0.4429
    SETDIJ:  cpu time    0.7600: real time    0.7596
     EDDAV:  cpu time  329.4326: real time  329.6396
       DOS:  cpu time    0.0000: real time    0.0008
    CHARGE:  cpu time    9.2166: real time    9.2216
    MIXING:  cpu time    0.0160: real time    0.0134
    --------------------------------------------
      LOOP:  cpu time  339.8692: real time  340.1043

 eigenvalue-minimisations  : 10248
 total energy-change (2. order) : 0.2460614E+01  (-0.1458003E+01)
 number of electron     400.0000000 magnetization 
 augmentation part        8.0044040 magnetization 

 Broyden mixing:
  rms(total) = 0.77954E+00    rms(broyden)= 0.77953E+00
  rms(prec ) = 0.83157E+00
  weight for this iteration     100.00

 eigenvalues of (default mixing * dielectric matrix)
  average eigenvalue GAMMA=   1.9328
  1.4503  2.4153

 Free energy of the ion-electron system (eV)
  ---------------------------------------------------
  alpha Z        PSCENC =       370.05370877
  Ewald energy   TEWEN  =    -15541.70579541
  -Hartree energ DENC   =     -8370.42799477
  -exchange      EXHF   =         0.00000000
  -V(xc)+E(xc)   XCENC  =       413.26997342
  PAW double counting   =     26104.16947395   -25355.61657377
  entropy T*S    EENTRO =         0.00000000
  eigenvalues    EBANDS =     -2785.83812020
  atomic energy  EATOM  =     24749.00668030
  Solvation  Ediel_sol  =         0.00000000
  ---------------------------------------------------
  free energy    TOTEN  =      -417.08864772 eV

  energy without entropy =     -417.08864772  energy(sigma->0) =     -417.08864772


--------------------------------------------------------------------------------------------------------




----------------------------------------- Iteration    1(   8)  ---------------------------------------


    POTLOK:  cpu time    0.4400: real time    0.4421
    SETDIJ:  cpu time    0.7600: real time    0.7595
     EDDAV:  cpu time  284.7498: real time  284.9263
       DOS:  cpu time    0.0000: real time    0.0005
    CHARGE:  cpu time    9.2166: real time    9.2226
    MIXING:  cpu time    0.0160: real time    0.0136
    --------------------------------------------
      LOOP:  cpu time  295.1824: real time  295.4366

 eigenvalue-minimisations  :  8552
 total energy-change (2. order) : 0.1694994E+00  (-0.3069209E+00)
 number of electron     400.0000000 magnetization 
 augmentation part        7.9325206 magnetization 

 Broyden mixing:
  rms(total) = 0.18272E+00    rms(broyden)= 0.18272E+00
  rms(prec ) = 0.22202E+00
  weight for this iteration     100.00

 eigenvalues of (default mixing * dielectric matrix)
  average eigenvalue GAMMA=   1.6340
  2.3816  1.2602  1.2602

 Free energy of the ion-electron system (eV)
  ---------------------------------------------------
  alpha Z        PSCENC =       370.05370877
  Ewald energy   TEWEN  =    -15541.70579541
  -Hartree energ DENC   =     -8378.48994873
  -exchange      EXHF   =         0.00000000
  -V(xc)+E(xc)   XCENC  =       416.50013119
  PAW double counting   =     28558.01870826   -27810.47003179
  entropy T*S    EENTRO =         0.00000000
  eigenvalues    EBANDS =     -2779.83260088
  atomic energy  EATOM  =     24749.00668030
  Solvation  Ediel_sol  =         0.00000000
  ---------------------------------------------------
  free energy    TOTEN  =      -416.91914828 eV

  energy without entropy =     -416.91914828  energy(sigma->0) =     -416.91914828


--------------------------------------------------------------------------------------------------------




----------------------------------------- Iteration    1(   9)  ---------------------------------------


    POTLOK:  cpu time    0.4400: real time    0.4408
    SETDIJ:  cpu time    0.7600: real time    0.7568
     EDDAV:  cpu time  307.5432: real time  307.7383
       DOS:  cpu time    0.0000: real time    0.0008
    CHARGE:  cpu time    9.2166: real time    9.2219
    MIXING:  cpu time    0.0120: real time    0.0138
    --------------------------------------------
      LOOP:  cpu time  317.9759: real time  318.2317

 eigenvalue-minimisations  :  9416
 total energy-change (2. order) : 0.7344846E-01  (-0.7559313E-01)
 number of electron     400.0000000 magnetization 
 augmentation part        7.9427915 magnetization 

 Broyden mixing:
  rms(total) = 0.71892E-01    rms(broyden)= 0.71884E-01
  rms(prec ) = 0.80934E-01
  weight for this iteration     100.00

 eigenvalues of (default mixing * dielectric matrix)
  average eigenvalue GAMMA=   1.5398
  2.3267  1.0624  1.4569  1.3131

 Free energy of the ion-electron system (eV)
  ---------------------------------------------------
  alpha Z        PSCENC =       370.05370877
  Ewald energy   TEWEN  =    -15541.70579541
  -Hartree energ DENC   =     -8396.40355620
  -exchange      EXHF   =         0.00000000
  -V(xc)+E(xc)   XCENC  =       417.55213414
  PAW double counting   =     28561.58145065   -27814.12114580
  entropy T*S    EENTRO =        -0.00000000
  eigenvalues    EBANDS =     -2762.80917627
  atomic energy  EATOM  =     24749.00668030
  Solvation  Ediel_sol  =         0.00000000
  ---------------------------------------------------
  free energy    TOTEN  =      -416.84569982 eV

  energy without entropy =     -416.84569982  energy(sigma->0) =     -416.84569982


--------------------------------------------------------------------------------------------------------




----------------------------------------- Iteration    1(  10)  ---------------------------------------


    POTLOK:  cpu time    0.4400: real time    0.4420
    SETDIJ:  cpu time    0.7600: real time    0.7592
     EDDAV:  cpu time  294.8664: real time  295.0499
       DOS:  cpu time    0.0000: real time    0.0007
    CHARGE:  cpu time    9.2166: real time    9.2219
    MIXING:  cpu time    0.0160: real time    0.0141
    --------------------------------------------
      LOOP:  cpu time  305.2991: real time  305.5229

 eigenvalue-minimisations  :  8936
 total energy-change (2. order) :-0.1170200E-01  (-0.1103095E-01)
 number of electron     400.0000000 magnetization 
 augmentation part        7.9185386 magnetization 

 Broyden mixing:
  rms(total) = 0.46490E-01    rms(broyden)= 0.46488E-01
  rms(prec ) = 0.53579E-01
  weight for this iteration     100.00

 eigenvalues of (default mixing * dielectric matrix)
  average eigenvalue GAMMA=   1.4574
  2.3839  1.9243  1.0604  1.0604  0.8579

 Free energy of the ion-electron system (eV)
  ---------------------------------------------------
  alpha Z        PSCENC =       370.05370877
  Ewald energy   TEWEN  =    -15541.70579541
  -Hartree energ DENC   =     -8397.34784265
  -exchange      EXHF   =         0.00000000
  -V(xc)+E(xc)   XCENC  =       417.65504672
  PAW double counting   =     28597.17396643   -27849.96118707
  entropy T*S    EENTRO =        -0.00000000
  eigenvalues    EBANDS =     -2761.73197892
  atomic energy  EATOM  =     24749.00668030
  Solvation  Ediel_sol  =         0.00000000
  ---------------------------------------------------
  free energy    TOTEN  =      -416.85740182 eV

  energy without entropy =     -416.85740182  energy(sigma->0) =     -416.85740182


--------------------------------------------------------------------------------------------------------




----------------------------------------- Iteration    1(  11)  ---------------------------------------


    POTLOK:  cpu time    0.4400: real time    0.4414
    SETDIJ:  cpu time    0.7600: real time    0.7602
     EDDAV:  cpu time  322.4922: real time  322.6907
       DOS:  cpu time    0.0000: real time    0.0004
    CHARGE:  cpu time    9.2206: real time    9.2262
    MIXING:  cpu time    0.0120: real time    0.0144
    --------------------------------------------
      LOOP:  cpu time  332.9288: real time  333.1561

 eigenvalue-minimisations  :  9976
 total energy-change (2. order) : 0.2073866E-03  (-0.1446074E-02)
 number of electron     400.0000000 magnetization 
 augmentation part        7.9193626 magnetization 

 Broyden mixing:
  rms(total) = 0.19729E-01    rms(broyden)= 0.19729E-01
  rms(prec ) = 0.23461E-01
  weight for this iteration     100.00

 eigenvalues of (default mixing * dielectric matrix)
  average eigenvalue GAMMA=   1.5228
  2.4434  1.9813  1.5186  1.1046  1.0444  1.0444

 Free energy of the ion-electron system (eV)
  ---------------------------------------------------
  alpha Z        PSCENC =       370.05370877
  Ewald energy   TEWEN  =    -15541.70579541
  -Hartree energ DENC   =     -8396.57105731
  -exchange      EXHF   =         0.00000000
  -V(xc)+E(xc)   XCENC  =       417.67090396
  PAW double counting   =     28633.26068204   -27886.12785998
  entropy T*S    EENTRO =         0.00000000
  eigenvalues    EBANDS =     -2762.44445680
  atomic energy  EATOM  =     24749.00668030
  Solvation  Ediel_sol  =         0.00000000
  ---------------------------------------------------
  free energy    TOTEN  =      -416.85719443 eV

  energy without entropy =     -416.85719443  energy(sigma->0) =     -416.85719443


--------------------------------------------------------------------------------------------------------




----------------------------------------- Iteration    1(  12)  ---------------------------------------


    POTLOK:  cpu time    0.4400: real time    0.4412
    SETDIJ:  cpu time    0.7600: real time    0.7612
     EDDAV:  cpu time  317.2358: real time  317.4378
       DOS:  cpu time    0.0040: real time    0.0007
    CHARGE:  cpu time    9.2126: real time    9.2206
    MIXING:  cpu time    0.0160: real time    0.0146
    --------------------------------------------
      LOOP:  cpu time  327.6685: real time  327.9046

 eigenvalue-minimisations  :  9776
 total energy-change (2. order) :-0.1377015E-02  (-0.8891209E-03)
 number of electron     400.0000000 magnetization 
 augmentation part        7.9303880 magnetization 

 Broyden mixing:
  rms(total) = 0.10364E-01    rms(broyden)= 0.10363E-01
  rms(prec ) = 0.12373E-01
  weight for this iteration     100.00

 eigenvalues of (default mixing * dielectric matrix)
  average eigenvalue GAMMA=   1.4746
  2.5983  2.3086  1.3099  1.3099  0.9260  0.9349  0.9349

 Free energy of the ion-electron system (eV)
  ---------------------------------------------------
  alpha Z        PSCENC =       370.05370877
  Ewald energy   TEWEN  =    -15541.70579541
  -Hartree energ DENC   =     -8397.03224810
  -exchange      EXHF   =         0.00000000
  -V(xc)+E(xc)   XCENC  =       417.73236276
  PAW double counting   =     28624.51297385   -27877.40598274
  entropy T*S    EENTRO =         0.00000000
  eigenvalues    EBANDS =     -2762.02027087
  atomic energy  EATOM  =     24749.00668030
  Solvation  Ediel_sol  =         0.00000000
  ---------------------------------------------------
  free energy    TOTEN  =      -416.85857145 eV

  energy without entropy =     -416.85857145  energy(sigma->0) =     -416.85857145


--------------------------------------------------------------------------------------------------------




----------------------------------------- Iteration    1(  13)  ---------------------------------------


    POTLOK:  cpu time    0.4440: real time    0.4425
    SETDIJ:  cpu time    0.7600: real time    0.7609
     EDDAV:  cpu time  280.4295: real time  280.6061
       DOS:  cpu time    0.0000: real time    0.0005
    CHARGE:  cpu time    9.2126: real time    9.2214
    MIXING:  cpu time    0.0120: real time    0.0150
    --------------------------------------------
      LOOP:  cpu time  290.8622: real time  291.3771

 eigenvalue-minimisations  :  8376
 total energy-change (2. order) :-0.1676309E-03  (-0.1286365E-03)
 number of electron     400.0000000 magnetization 
 augmentation part        7.9289479 magnetization 

 Broyden mixing:
  rms(total) = 0.72975E-02    rms(broyden)= 0.72972E-02
  rms(prec ) = 0.83420E-02
  weight for this iteration     100.00

 eigenvalues of (default mixing * dielectric matrix)
  average eigenvalue GAMMA=   1.4440
  2.6168  2.3463  1.4883  1.2278  0.9528  0.9528  0.9834  0.9834

 Free energy of the ion-electron system (eV)
  ---------------------------------------------------
  alpha Z        PSCENC =       370.05370877
  Ewald energy   TEWEN  =    -15541.70579541
  -Hartree energ DENC   =     -8397.30801565
  -exchange      EXHF   =         0.00000000
  -V(xc)+E(xc)   XCENC  =       417.75636172
  PAW double counting   =     28623.54099951   -27876.44742854
  entropy T*S    EENTRO =         0.00000000
  eigenvalues    EBANDS =     -2761.75524978
  atomic energy  EATOM  =     24749.00668030
  Solvation  Ediel_sol  =         0.00000000
  ---------------------------------------------------
  free energy    TOTEN  =      -416.85873908 eV

  energy without entropy =     -416.85873908  energy(sigma->0) =     -416.85873908


--------------------------------------------------------------------------------------------------------




----------------------------------------- Iteration    1(  14)  ---------------------------------------


    POTLOK:  cpu time    0.4400: real time    0.4416
    SETDIJ:  cpu time    0.7600: real time    0.7610
     EDDAV:  cpu time  284.6378: real time  284.8186
       DOS:  cpu time    0.0000: real time    0.0007
    CHARGE:  cpu time    9.2166: real time    9.2199
    MIXING:  cpu time    0.0120: real time    0.0153
    --------------------------------------------
      LOOP:  cpu time  295.0704: real time  295.3039

 eigenvalue-minimisations  :  8536
 total energy-change (2. order) :-0.3450049E-04  (-0.2820310E-04)
 number of electron     400.0000000 magnetization 
 augmentation part        7.9291477 magnetization 

 Broyden mixing:
  rms(total) = 0.32685E-02    rms(broyden)= 0.32685E-02
  rms(prec ) = 0.37796E-02
  weight for this iteration     100.00

 eigenvalues of (default mixing * dielectric matrix)
  average eigenvalue GAMMA=   1.5379
  2.7521  2.7521  1.9088  1.0491  1.0491  1.3042  0.9413  1.0423  1.0423

 Free energy of the ion-electron system (eV)
  ---------------------------------------------------
  alpha Z        PSCENC =       370.05370877
  Ewald energy   TEWEN  =    -15541.70579541
  -Hartree energ DENC   =     -8397.64282296
  -exchange      EXHF   =         0.00000000
  -V(xc)+E(xc)   XCENC  =       417.77802798
  PAW double counting   =     28619.00005832   -27871.89430057
  entropy T*S    EENTRO =         0.00000000
  eigenvalues    EBANDS =     -2761.45433001
  atomic energy  EATOM  =     24749.00668030
  Solvation  Ediel_sol  =         0.00000000
  ---------------------------------------------------
  free energy    TOTEN  =      -416.85877358 eV

  energy without entropy =     -416.85877358  energy(sigma->0) =     -416.85877358


--------------------------------------------------------------------------------------------------------




----------------------------------------- Iteration    1(  15)  ---------------------------------------


    POTLOK:  cpu time    0.4400: real time    0.4421
    SETDIJ:  cpu time    0.7600: real time    0.7599
     EDDAV:  cpu time  278.2814: real time  278.4550
       DOS:  cpu time    0.0000: real time    0.0005
    CHARGE:  cpu time    9.2166: real time    9.2235
    MIXING:  cpu time    0.0160: real time    0.0156
    --------------------------------------------
      LOOP:  cpu time  288.7180: real time  288.9872

 eigenvalue-minimisations  :  8296
 total energy-change (2. order) :-0.4370634E-04  (-0.1530940E-04)
 number of electron     400.0000000 magnetization 
 augmentation part        7.9289310 magnetization 

 Broyden mixing:
  rms(total) = 0.12207E-02    rms(broyden)= 0.12205E-02
  rms(prec ) = 0.13930E-02
  weight for this iteration     100.00

 eigenvalues of (default mixing * dielectric matrix)
  average eigenvalue GAMMA=   1.4970
  2.9974  2.4233  2.0633  1.5144  1.0248  1.0248  1.0432  1.0432  0.9681  0.8678

 Free energy of the ion-electron system (eV)
  ---------------------------------------------------
  alpha Z        PSCENC =       370.05370877
  Ewald energy   TEWEN  =    -15541.70579541
  -Hartree energ DENC   =     -8397.92458388
  -exchange      EXHF   =         0.00000000
  -V(xc)+E(xc)   XCENC  =       417.79512986
  PAW double counting   =     28612.55834536   -27865.43573120
  entropy T*S    EENTRO =         0.00000000
  eigenvalues    EBANDS =     -2761.20657109
  atomic energy  EATOM  =     24749.00668030
  Solvation  Ediel_sol  =         0.00000000
  ---------------------------------------------------
  free energy    TOTEN  =      -416.85881728 eV

  energy without entropy =     -416.85881728  energy(sigma->0) =     -416.85881728


--------------------------------------------------------------------------------------------------------




----------------------------------------- Iteration    1(  16)  ---------------------------------------


    POTLOK:  cpu time    0.4400: real time    0.4423
    SETDIJ:  cpu time    0.7600: real time    0.7605
     EDDAV:  cpu time  336.7130: real time  336.9234
       DOS:  cpu time    0.0000: real time    0.0007
    CHARGE:  cpu time    9.2166: real time    9.2234
    MIXING:  cpu time    0.0160: real time    0.0159
    --------------------------------------------
      LOOP:  cpu time  347.1497: real time  357.9340

 eigenvalue-minimisations  : 10504
 total energy-change (2. order) :-0.3591900E-05  (-0.1282812E-05)
 number of electron     400.0000000 magnetization 
 augmentation part        7.9288863 magnetization 

 Broyden mixing:
  rms(total) = 0.12146E-02    rms(broyden)= 0.12145E-02
  rms(prec ) = 0.13641E-02
  weight for this iteration     100.00

 eigenvalues of (default mixing * dielectric matrix)
  average eigenvalue GAMMA=   1.4985
  3.0558  2.4179  1.9145  1.9145  1.1214  1.1214  1.3275  0.9764  0.9764  0.8287
  0.8287

 Free energy of the ion-electron system (eV)
  ---------------------------------------------------
  alpha Z        PSCENC =       370.05370877
  Ewald energy   TEWEN  =    -15541.70579541
  -Hartree energ DENC   =     -8397.95631782
  -exchange      EXHF   =         0.00000000
  -V(xc)+E(xc)   XCENC  =       417.79884009
  PAW double counting   =     28614.00087200   -27866.87563383
  entropy T*S    EENTRO =         0.00000000
  eigenvalues    EBANDS =     -2761.18117498
  atomic energy  EATOM  =     24749.00668030
  Solvation  Ediel_sol  =         0.00000000
  ---------------------------------------------------
[...]
   0.106E+02 0.391E-01 0.500E+02   -.109E+02 -.448E-01 -.554E+02   0.278E+00 0.580E-02 0.563E+01   -.184E-05 0.979E-07 0.722E-05
   0.841E+00 0.529E-01 0.524E+02   0.345E-01 -.583E-01 -.578E+02   -.905E+00 0.547E-02 0.557E+01   0.229E-05 -.120E-05 -.217E-05
   0.290E+02 -.390E+02 -.141E+02   -.317E+02 0.436E+02 0.160E+02   0.271E+01 -.462E+01 -.193E+01   -.662E-06 -.542E-05 -.277E-06
   0.315E+02 -.393E+02 -.614E+01   -.345E+02 0.439E+02 0.749E+01   0.301E+01 -.462E+01 -.136E+01   -.191E-05 0.361E-05 0.340E-05
   0.315E+02 -.393E+02 -.614E+01   -.345E+02 0.439E+02 0.749E+01   0.301E+01 -.462E+01 -.136E+01   -.230E-05 0.352E-05 0.386E-05
   0.290E+02 -.390E+02 -.141E+02   -.317E+02 0.436E+02 0.160E+02   0.271E+01 -.462E+01 -.193E+01   -.581E-06 -.587E-05 -.718E-06
   0.315E+02 -.393E+02 -.614E+01   -.345E+02 0.439E+02 0.749E+01   0.301E+01 -.462E+01 -.136E+01   -.342E-05 0.339E-05 0.353E-05
   0.290E+02 -.390E+02 -.141E+02   -.317E+02 0.436E+02 0.160E+02   0.271E+01 -.462E+01 -.193E+01   -.664E-07 -.376E-05 0.347E-06
   0.290E+02 -.390E+02 -.141E+02   -.317E+02 0.436E+02 0.160E+02   0.271E+01 -.462E+01 -.193E+01   -.310E-06 -.511E-05 0.187E-06
   0.315E+02 -.393E+02 -.614E+01   -.345E+02 0.439E+02 0.749E+01   0.301E+01 -.462E+01 -.136E+01   -.250E-05 0.181E-05 0.410E-05
   0.290E+02 0.390E+02 -.142E+02   -.316E+02 -.436E+02 0.161E+02   0.270E+01 0.462E+01 -.194E+01   -.385E-06 0.466E-05 -.133E-06
   0.315E+02 0.393E+02 -.622E+01   -.345E+02 -.439E+02 0.758E+01   0.300E+01 0.462E+01 -.137E+01   -.251E-05 -.242E-05 0.305E-05
   0.315E+02 0.393E+02 -.622E+01   -.345E+02 -.439E+02 0.758E+01   0.300E+01 0.462E+01 -.137E+01   -.263E-05 -.263E-05 0.342E-05
   0.290E+02 0.390E+02 -.142E+02   -.316E+02 -.436E+02 0.161E+02   0.270E+01 0.462E+01 -.194E+01   -.636E-07 0.485E-05 -.599E-06
   0.315E+02 0.393E+02 -.622E+01   -.345E+02 -.439E+02 0.758E+01   0.300E+01 0.462E+01 -.137E+01   -.249E-05 -.320E-05 0.411E-05
   0.290E+02 0.390E+02 -.142E+02   -.316E+02 -.436E+02 0.161E+02   0.270E+01 0.462E+01 -.194E+01   -.615E-07 0.610E-05 0.224E-06
   0.290E+02 0.390E+02 -.142E+02   -.316E+02 -.436E+02 0.161E+02   0.270E+01 0.462E+01 -.194E+01   -.109E-05 0.474E-05 -.213E-07
   0.315E+02 0.393E+02 -.622E+01   -.345E+02 -.439E+02 0.758E+01   0.300E+01 0.462E+01 -.137E+01   -.253E-05 -.415E-05 0.434E-05
   -.310E+02 -.482E+02 0.197E+02   0.344E+02 0.537E+02 -.220E+02   -.338E+01 -.550E+01 0.223E+01   -.946E-05 -.781E-05 0.185E-05
   -.357E+02 -.479E+02 0.149E+02   0.393E+02 0.533E+02 -.164E+02   -.372E+01 -.549E+01 0.151E+01   0.606E-05 -.125E-06 0.151E-05
   -.357E+02 -.479E+02 0.149E+02   0.393E+02 0.533E+02 -.164E+02   -.372E+01 -.549E+01 0.151E+01   0.588E-05 -.386E-07 0.108E-05
   -.310E+02 -.482E+02 0.197E+02   0.344E+02 0.537E+02 -.220E+02   -.338E+01 -.550E+01 0.223E+01   -.854E-05 -.795E-05 0.212E-05
   -.357E+02 -.479E+02 0.149E+02   0.393E+02 0.533E+02 -.164E+02   -.372E+01 -.549E+01 0.151E+01   0.620E-05 -.208E-06 0.157E-05
   -.310E+02 -.482E+02 0.197E+02   0.344E+02 0.537E+02 -.220E+02   -.338E+01 -.550E+01 0.223E+01   -.809E-05 -.528E-05 0.259E-05
   -.310E+02 -.482E+02 0.197E+02   0.344E+02 0.537E+02 -.220E+02   -.338E+01 -.550E+01 0.223E+01   -.948E-05 -.803E-05 0.268E-05
   -.357E+02 -.479E+02 0.149E+02   0.393E+02 0.533E+02 -.164E+02   -.372E+01 -.549E+01 0.151E+01   0.628E-05 -.202E-05 0.163E-05
   -.311E+02 0.482E+02 0.197E+02   0.344E+02 -.536E+02 -.219E+02   -.339E+01 0.549E+01 0.222E+01   -.935E-05 0.642E-05 0.200E-05
   -.357E+02 0.479E+02 0.148E+02   0.393E+02 -.533E+02 -.163E+02   -.372E+01 0.549E+01 0.150E+01   0.667E-05 0.122E-05 0.115E-05
   -.357E+02 0.479E+02 0.148E+02   0.393E+02 -.533E+02 -.163E+02   -.372E+01 0.549E+01 0.150E+01   0.580E-05 0.167E-05 0.822E-06
   -.311E+02 0.482E+02 0.197E+02   0.344E+02 -.536E+02 -.219E+02   -.339E+01 0.549E+01 0.222E+01   -.903E-05 0.710E-05 0.203E-05
   -.357E+02 0.479E+02 0.148E+02   0.393E+02 -.533E+02 -.163E+02   -.372E+01 0.549E+01 0.150E+01   0.509E-05 0.888E-06 0.203E-05
   -.311E+02 0.482E+02 0.197E+02   0.344E+02 -.536E+02 -.219E+02   -.339E+01 0.549E+01 0.222E+01   -.856E-05 0.859E-05 0.249E-05
   -.311E+02 0.482E+02 0.197E+02   0.344E+02 -.536E+02 -.219E+02   -.339E+01 0.549E+01 0.222E+01   -.861E-05 0.691E-05 0.271E-05
   -.357E+02 0.479E+02 0.148E+02   0.393E+02 -.533E+02 -.163E+02   -.372E+01 0.549E+01 0.150E+01   0.685E-05 -.141E-05 0.170E-05
   -.290E+01 -.581E-01 -.609E+02   0.358E+01 0.630E-01 0.674E+02   -.750E+00 -.464E-02 -.664E+01   -.592E-05 -.529E-06 -.110E-04
   0.947E+01 -.800E-01 -.648E+02   -.103E+02 0.903E-01 0.716E+02   0.807E+00 -.102E-01 -.698E+01   0.333E-05 0.146E-05 0.664E-06
   0.947E+01 -.800E-01 -.648E+02   -.103E+02 0.903E-01 0.716E+02   0.807E+00 -.102E-01 -.698E+01   0.259E-05 0.100E-05 0.982E-06
   -.290E+01 -.581E-01 -.609E+02   0.358E+01 0.630E-01 0.674E+02   -.750E+00 -.464E-02 -.664E+01   -.504E-05 -.837E-06 -.113E-04
   0.947E+01 -.800E-01 -.648E+02   -.103E+02 0.903E-01 0.716E+02   0.807E+00 -.102E-01 -.698E+01   0.240E-05 -.910E-06 0.786E-06
   -.290E+01 -.581E-01 -.609E+02   0.358E+01 0.630E-01 0.674E+02   -.750E+00 -.464E-02 -.664E+01   -.500E-05 0.143E-05 -.113E-04
   -.290E+01 -.581E-01 -.609E+02   0.358E+01 0.630E-01 0.674E+02   -.750E+00 -.464E-02 -.664E+01   -.496E-05 -.129E-06 -.100E-04
   0.947E+01 -.800E-01 -.648E+02   -.103E+02 0.903E-01 0.716E+02   0.807E+00 -.102E-01 -.698E+01   0.295E-05 -.152E-05 0.828E-06
   -.306E+02 0.649E+01 -.113E+02   0.295E+02 -.645E+01 0.111E+02   0.109E+01 -.476E-01 0.282E+00   0.234E-04 0.113E-04 0.701E-05
   -.306E+02 -.635E+01 -.113E+02   0.295E+02 0.630E+01 0.111E+02   0.109E+01 0.574E-01 0.283E+00   -.297E-05 -.312E-05 0.107E-04
   -.306E+02 -.635E+01 -.113E+02   0.295E+02 0.630E+01 0.111E+02   0.109E+01 0.574E-01 0.283E+00   -.190E-04 -.145E-04 -.199E-04
   -.306E+02 0.649E+01 -.113E+02   0.295E+02 -.645E+01 0.111E+02   0.109E+01 -.476E-01 0.282E+00   0.399E-04 0.514E-06 -.149E-04
   -.306E+02 -.635E+01 -.113E+02   0.295E+02 0.630E+01 0.111E+02   0.109E+01 0.574E-01 0.283E+00   0.256E-04 0.190E-04 -.253E-04
   -.306E+02 0.649E+01 -.113E+02   0.295E+02 -.645E+01 0.111E+02   0.109E+01 -.476E-01 0.282E+00   -.108E-04 0.738E-05 -.313E-04
   -.306E+02 0.649E+01 -.113E+02   0.295E+02 -.645E+01 0.111E+02   0.109E+01 -.476E-01 0.282E+00   -.128E-04 -.161E-04 -.163E-05
   -.306E+02 -.635E+01 -.113E+02   0.295E+02 0.630E+01 0.111E+02   0.109E+01 0.574E-01 0.283E+00   0.371E-04 -.379E-05 -.899E-05
   -.170E+02 -.288E+01 0.546E+01   0.172E+02 0.295E+01 -.540E+01   -.143E+00 -.654E-01 -.641E-01   0.134E-04 0.120E-04 -.405E-05
   -.172E+02 0.296E+01 0.545E+01   0.173E+02 -.303E+01 -.539E+01   -.145E+00 0.664E-01 -.642E-01   0.872E-05 -.744E-05 0.218E-05
   -.172E+02 0.296E+01 0.545E+01   0.173E+02 -.303E+01 -.539E+01   -.145E+00 0.664E-01 -.642E-01   0.470E-05 -.122E-04 0.227E-05
   -.170E+02 -.288E+01 0.546E+01   0.172E+02 0.295E+01 -.540E+01   -.143E+00 -.654E-01 -.641E-01   0.170E-04 0.719E-05 0.658E-05
   -.172E+02 0.296E+01 0.545E+01   0.173E+02 -.303E+01 -.539E+01   -.145E+00 0.664E-01 -.642E-01   0.148E-04 -.548E-05 0.130E-04
   -.170E+02 -.288E+01 0.546E+01   0.172E+02 0.295E+01 -.540E+01   -.143E+00 -.654E-01 -.641E-01   0.909E-05 0.916E-05 0.862E-05
   -.170E+02 -.288E+01 0.546E+01   0.172E+02 0.295E+01 -.540E+01   -.143E+00 -.654E-01 -.641E-01   0.463E-05 0.616E-05 0.939E-05
   -.172E+02 0.296E+01 0.545E+01   0.173E+02 -.303E+01 -.539E+01   -.145E+00 0.664E-01 -.642E-01   0.162E-04 -.930E-05 0.441E-05
   -.337E+02 -.526E-01 -.119E+02   0.339E+02 0.538E-01 0.124E+02   -.169E+00 -.962E-03 -.494E+00   -.948E-06 0.729E-05 -.183E-04
   0.550E+01 -.536E-01 -.179E+02   -.584E+01 0.548E-01 0.187E+02   0.342E+00 -.102E-02 -.821E+00   0.275E-04 0.960E-05 -.595E-05
   0.550E+01 -.536E-01 -.179E+02   -.584E+01 0.548E-01 0.187E+02   0.342E+00 -.102E-02 -.821E+00   0.262E-04 -.626E-05 -.452E-05
   -.337E+02 -.525E-01 -.119E+02   0.339E+02 0.538E-01 0.124E+02   -.169E+00 -.962E-03 -.494E+00   0.810E-06 -.912E-05 -.187E-04
   0.550E+01 -.536E-01 -.179E+02   -.584E+01 0.548E-01 0.187E+02   0.342E+00 -.102E-02 -.821E+00   0.224E-04 0.253E-05 -.352E-06
   -.337E+02 -.526E-01 -.119E+02   0.339E+02 0.538E-01 0.124E+02   -.169E+00 -.962E-03 -.494E+00   0.189E-05 0.580E-05 -.138E-04
   -.337E+02 -.525E-01 -.119E+02   0.339E+02 0.538E-01 0.124E+02   -.169E+00 -.962E-03 -.494E+00   -.203E-05 -.336E-05 -.140E-04
   0.550E+01 -.536E-01 -.179E+02   -.584E+01 0.548E-01 0.187E+02   0.342E+00 -.102E-02 -.821E+00   0.287E-04 -.658E-05 -.101E-05
   0.465E+01 0.151E+01 -.448E+01   -.412E+01 -.137E+01 0.408E+01   -.546E+00 -.134E+00 0.444E+00   -.854E-05 -.515E-05 0.418E-05
   0.465E+01 -.151E+01 -.454E+01   -.412E+01 0.137E+01 0.414E+01   -.547E+00 0.133E+00 0.444E+00   0.233E-05 0.909E-05 0.389E-05
   0.465E+01 -.151E+01 -.454E+01   -.412E+01 0.137E+01 0.414E+01   -.547E+00 0.133E+00 0.444E+00   -.552E-05 0.531E-05 -.453E-06
   0.465E+01 0.151E+01 -.448E+01   -.412E+01 -.137E+01 0.408E+01   -.546E+00 -.134E+00 0.444E+00   -.505E-06 -.746E-05 0.285E-06
   0.465E+01 -.151E+01 -.454E+01   -.412E+01 0.137E+01 0.414E+01   -.547E+00 0.133E+00 0.444E+00   -.518E-05 0.107E-04 -.820E-07
   0.465E+01 0.151E+01 -.448E+01   -.412E+01 -.137E+01 0.408E+01   -.546E+00 -.134E+00 0.444E+00   -.471E-05 -.689E-05 -.126E-05
   0.465E+01 0.151E+01 -.448E+01   -.412E+01 -.137E+01 0.408E+01   -.546E+00 -.134E+00 0.444E+00   -.962E-06 -.874E-05 0.631E-06
   0.465E+01 -.151E+01 -.454E+01   -.412E+01 0.137E+01 0.414E+01   -.547E+00 0.133E+00 0.444E+00   -.485E-05 0.326E-05 0.872E-06
 -----------------------------------------------------------------------------------------------
   -.542E+02 -.992E-01 -.223E+02   -.933E-13 0.163E-12 0.178E-14   0.542E+02 0.991E-01 0.223E+02   0.151E-03 0.117E-05 0.180E-04
 
 
 POSITION                                       TOTAL-FORCE (eV/Angst)
 -----------------------------------------------------------------------------------
      2.51728      3.11305      2.94175         0.117101     -0.000408     -0.057524
      8.79069      3.11518      3.01759         0.132375     -0.000466     -0.026927
      2.50287      9.34300      2.94812         0.132375     -0.000466     -0.026927
      8.80629      9.34278      3.01047         0.117101     -0.000408     -0.057524
      2.57198      3.11427      9.32220         0.132375     -0.000466     -0.026927
      8.87540      3.11406      9.38456         0.117101     -0.000408     -0.057524
      2.58758      9.34187      9.31508         0.117101     -0.000408     -0.057524
      8.86100      9.34400      9.39093         0.132375     -0.000466     -0.026927
      3.93671      3.11467      3.38886        -0.043875     -0.000611      0.038331
     10.08890      3.11636      3.74667        -0.054719     -0.000693     -0.019008
      3.80108      9.34417      3.67720        -0.054719     -0.000693     -0.019008
     10.22572      9.34440      3.45759        -0.043875     -0.000611      0.038331
      3.87019      3.11545     10.05129        -0.054719     -0.000693     -0.019008
     10.29483      3.11567      9.83167        -0.043875     -0.000611      0.038331
      4.00701      9.34348      9.76220        -0.043875     -0.000611      0.038331
     10.15921      9.34518     10.12001        -0.054719     -0.000693     -0.019008
      2.49116      3.11196      1.83664         0.019583      0.000061      0.195879
      8.99609      3.11412      1.93169        -0.029430      0.000051      0.197528
      2.70827      9.34193      1.86222        -0.029430      0.000051      0.197528
      8.78018      9.34169      1.90537         0.019583      0.000061      0.195879
      2.77738      3.11321      8.23630        -0.029430      0.000051      0.197528
      8.84929      3.11296      8.27945         0.019583      0.000061      0.195879
      2.56147      9.34077      8.20998         0.019583      0.000061      0.195879
      9.06639      9.34293      8.30503        -0.029430      0.000051      0.197528
      2.01707      4.01461      3.32854         0.054092     -0.034177     -0.018564
      8.22553      4.01842      3.29706         0.055831     -0.034385     -0.008814
      1.93771     10.24623      3.22758         0.055831     -0.034385     -0.008814
      8.30608     10.24433      3.39727         0.054092     -0.034177     -0.018564
      2.00681      4.01751      9.60167         0.055831     -0.034385     -0.008814
      8.37519      4.01561      9.77135         0.054092     -0.034177     -0.018564
      2.08737     10.24342      9.70188         0.054092     -0.034177     -0.018564
      8.29583     10.24723      9.67039         0.055831     -0.034385     -0.008814
      2.01873      2.21130      3.33028         0.053878      0.034730     -0.019078
      8.22620      2.21213      3.29902         0.055735      0.034886     -0.009311
      1.93837      8.43994      3.22955         0.055735      0.034886     -0.009311
      8.30775      8.44103      3.39900         0.053878      0.034730     -0.019078
      2.00748      2.21121      9.60363         0.055735      0.034886     -0.009311
      8.37686      2.21230      9.77309         0.053878      0.034730     -0.019078
      2.08904      8.44011      9.70361         0.053878      0.034730     -0.019078
      8.29650      8.44094      9.67236         0.055735      0.034886     -0.009311
      4.45371      3.95951      3.04673        -0.068151     -0.049595      0.025036
     10.66225      3.96269      3.51112        -0.074801     -0.052204      0.011683
      4.37443     10.19050      3.44165        -0.074801     -0.052204      0.011683
     10.74273     10.18924      3.11545        -0.068151     -0.049595      0.025036
      4.44353      3.96177      9.81573        -0.074801     -0.052204      0.011683
     10.81184      3.96051      9.48954        -0.068151     -0.049595      0.025036
      4.52401     10.18832      9.42006        -0.068151     -0.049595      0.025036
     10.73255     10.19150      9.88446        -0.074801     -0.052204      0.011683
      4.45505      2.27005      3.04803        -0.068788      0.050020      0.024453
     10.66240      2.26945      3.51347        -0.075305      0.052705      0.010908
      4.37458      8.49726      3.44400        -0.075305      0.052705      0.010908
     10.74406      8.49977      3.11675        -0.068788      0.050020      0.024453
      4.44369      2.26853      9.81808        -0.075305      0.052705      0.010908
     10.81317      2.27105      9.49084        -0.068788      0.050020      0.024453
      4.52535      8.49886      9.42136        -0.068788      0.050020      0.024453
     10.73271      8.49826      9.88681        -0.075305      0.052705      0.010908
      4.04986      3.11541      4.43618        -0.068684      0.000223     -0.186150
      9.96415      3.11787      4.78255        -0.008239      0.000112     -0.180339
      3.67633      9.34568      4.71307        -0.008239      0.000112     -0.180339
     10.33888      9.34514      4.50490        -0.068684      0.000223     -0.186150
      3.74544      3.11696     11.08716        -0.008239      0.000112     -0.180339
     10.40798      3.11641     10.87899        -0.068684      0.000223     -0.186150
      4.12016      9.34423     10.80951        -0.068684      0.000223     -0.186150
     10.03445      9.34668     11.15588        -0.008239      0.000112     -0.180339
      6.01053      6.21114      6.29595         0.000776     -0.005728     -0.001795
     12.29902      6.24900      6.36515         0.000805      0.005352     -0.001737
      6.01001      0.01927      6.29643         0.000805      0.005352     -0.001737
     12.29954     12.44087      6.36468         0.000776     -0.005728     -0.001795
      6.08031      6.24808     12.66976         0.000805      0.005352     -0.001737
     12.36865      6.21214     12.73876         0.000776     -0.005728     -0.001795
      6.08083     12.43996     12.66929         0.000776     -0.005728     -0.001795
     12.36813      0.02027     12.73924         0.000805      0.005352     -0.001737
      5.75252      6.26774      3.09093         0.003138      0.003454     -0.001646
     12.04180      6.19232      3.16000         0.003225     -0.003862     -0.001642
      5.75398     12.42013      3.09052         0.003225     -0.003862     -0.001642
     12.04035      0.03993      3.16040         0.003138      0.003454     -0.001646
      5.82309      6.19140      9.46461         0.003225     -0.003862     -0.001642
     12.11065      6.26874      9.53374         0.003138      0.003454     -0.001646
      5.82163      0.03902      9.46501         0.003138      0.003454     -0.001646
     12.11211     12.42113      9.53333         0.003225     -0.003862     -0.001642
      5.94267      3.11496      0.20298         0.032511      0.000266     -0.023718
     11.65963      3.11597      0.29169        -0.005126      0.000268     -0.038414
      5.37180      9.34378      0.22221        -0.005126      0.000268     -0.038414
     12.23169      9.34469      0.27171         0.032511      0.000266     -0.023718
      5.44091      3.11505      6.59630        -0.005126      0.000268     -0.038414
     12.30080      3.11596      6.64579         0.032511      0.000266     -0.023718
      6.01298      9.34377      6.57632         0.032511      0.000266     -0.023718
     11.72993      9.34478      6.66502        -0.005126      0.000268     -0.038414
      2.78362      6.55401      5.90944        -0.015932      0.009825      0.045349
      9.07211      5.90533      5.97789        -0.016001     -0.009824      0.045501
      2.78429     12.13314      5.90842        -0.016001     -0.009824      0.045501
      9.07144      0.32620      5.97892        -0.015932      0.009825      0.045349
      2.85339      5.90442     12.28250        -0.016001     -0.009824      0.045501
      9.14174      6.55501     12.35225        -0.015932      0.009825      0.045349
      2.85272      0.32529     12.28353        -0.015932      0.009825      0.045349
      9.14241     12.13415     12.35123        -0.016001     -0.009824      0.045501
 -----------------------------------------------------------------------------------
    total drift:                                0.003573     -0.000041     -0.000792


--------------------------------------------------------------------------------------------------------



  FREE ENERGIE OF THE ION-ELECTRON SYSTEM (eV)
  ---------------------------------------------------
  free  energy   TOTEN  =      -416.85882080 eV

  energy  without entropy=     -416.85882080  energy(sigma->0) =     -416.85882080
 


--------------------------------------------------------------------------------------------------------


    POTLOK:  cpu time    1.2121: real time    1.2130


--------------------------------------------------------------------------------------------------------


     LOOP+:  cpu time 6914.2121: real time 6930.3596
    4ORBIT:  cpu time    0.0000: real time    0.0000

 total amount of memory used by VASP on root node   697522. kBytes
========================================================================

   base      :      30000. kBytes
   nonl-proj :     325712. kBytes
   fftplans  :      80881. kBytes
   grid      :      57435. kBytes
   one-center:        497. kBytes
   wavefun   :     202997. kBytes
 
  
  
 General timing and accounting informations for this job:
 ========================================================
  
                  Total CPU time used (sec):     6963.171
                            User time (sec):     6961.163
                          System time (sec):        2.008
                         Elapsed time (sec):     6981.236
  
                   Maximum memory used (kb):      640380.
                   Average memory used (kb):           0.
  
                          Minor page faults:       281997
                          Major page faults:            0
                 Voluntary context switches:          836
