Name                                    
   5.43100000000000     
     0.500000    0.500000    0.000000
     0.500000    0.000000   -0.500000
     0.000000    0.500000   -0.500000
   Si
     2
Direct
  0.000000  0.000000  0.000000
  0.250000  0.250000  0.250000
 
   56   56   56
 -7.5727     -6.9870     -5.2972     -2.6940     0.53779      4.0631      7.5449      10.688      13.273      15.166    
  16.328      16.796      16.672      16.098      15.238      14.252      13.233      12.227      11.269      10.387    
  9.5979      8.9090      8.3209      7.8303      7.4329      7.1251      6.9051      6.7728      6.7286      6.7728    
  6.9051      7.1251      7.4329      7.8303      8.3209      8.9090      9.5979      10.387      11.269      12.227    
  13.233      14.252      15.238      16.098      16.672      16.796      16.328      15.166      13.273      10.688    
  7.5448      4.0631     0.53779     -2.6940     -5.2972     -6.9870     -6.9870     -5.7957     -3.5532     -.51597    
  2.9846      6.5936      9.9829      12.891      15.143      16.662      17.453      17.595      17.216      16.472    
  15.529      14.518      13.498      12.508      11.578      10.732      9.9816      9.3310      8.7793      8.3231    
  7.9590      7.6853      7.5019      7.4098      7.4098      7.5019      7.6853      7.9590      8.3231      8.7793    
  9.3310      9.9816      10.732      11.578      12.508      13.498      14.518      15.529      16.472      17.216    
  17.595      17.453      16.662      15.143      12.891      9.9829      6.5935      2.9845     -.51598     -3.5532    
 -5.7957     -6.9870     -5.2972     -3.5532     -.87977      2.4161      5.9795      9.4624      12.569      15.088    
  16.901      17.982      18.382      18.210      17.610      16.743      15.763      14.750      13.747      12.788    
  11.899      11.098      10.392      9.7833      9.2705      8.8507      8.5224      8.2859      8.1428      8.0948    
  8.1428      8.2859      8.5224      8.8507      9.2705      9.7833      10.392      11.098      11.899      12.788    
  13.747      14.750      15.763      16.743      17.610      18.210      18.382      17.982      16.901      15.088    
  12.569      9.4624      5.9795      2.4160     -.87978     -3.5532     -5.2972     -5.9031     -2.6940     -.51597    
  2.4161      5.7675      9.1868      12.357      15.033      17.062      18.383      19.017      19.049      18.610    
  17.850      16.923      15.941      14.947      13.980      13.067      12.230      11.480      10.823      10.259    
  9.7862      9.4042      9.1138      8.9176      8.8185      8.8185      8.9176      9.1138      9.4042      9.7862    
  10.259      10.823      11.480      12.230      13.067      13.980      14.947      15.941      16.923      17.850    
  18.610      19.049      19.017      18.383      17.062      15.033      12.357      9.1868      5.7674      2.4160    
 -.51598     -2.6940     -3.8553     -3.8553     0.53779      2.9846      5.9795      9.1868      12.283      15.001    
  17.155      18.653      19.484      19.708      19.434      18.801      17.957      17.027      16.068      15.115    
  14.201      13.346      12.568      11.874      11.267      10.747      10.315      9.9713      9.7211      9.5684    
  9.5170      9.5684      9.7211      9.9713      10.315      10.747      11.267      11.874      12.568      13.346    
  14.201      15.115      16.068      17.027      17.957      18.801      19.434      19.708      19.484      18.653    
  17.155      15.001      12.283      9.1868      5.9795      2.9845     0.53779     -1.0659     -1.6245     -1.0659    
  4.0631      6.5936      9.4624      12.357      15.001      17.186      18.789      19.770      20.162      20.050    
  19.557      18.818      17.965      17.064      16.151      15.258      14.409      13.622      12.906      12.268    
  11.710      11.233      10.840      10.537      10.329      10.224      10.224      10.329      10.537      10.840    
  11.233      11.710      12.268      12.906      13.622      14.409      15.258      16.151      17.064      17.964    
  18.818      19.557      20.050      20.162      19.770      18.789      17.186      15.001      12.357      9.4624    
  6.5935      4.0631      2.1726      1.1611      1.1612      2.1726      7.5449      9.9829      12.569      15.033    
  17.155      18.789      19.867      20.394      20.431      20.081      19.467      18.711      17.892      17.044    
  16.198      15.378      14.603      13.886      13.233      12.649      12.137      11.700      11.347      11.085    
  10.923      10.868      10.923      11.085      11.347      11.700      12.137      12.649      13.233      13.886    
  14.603      15.378      16.198      17.044      17.892      18.711      19.467      20.081      20.431      20.394    
  19.867      18.789      17.155      15.033      12.569      9.9829      7.5448      5.5398      4.2200      3.7594    
  4.2200      5.5398      10.688      12.891      15.088      17.062      18.653      19.770      20.394      20.560    
  20.350      19.869      19.232      18.515      17.755      16.980      16.213      15.474      14.776      14.128    
  13.534      12.999      12.529      12.131      11.817      11.599      11.487      11.487      11.599      11.817    
  12.131      12.529      12.999      13.534      14.128      14.776      15.474      16.213      16.980      17.755    
  18.515      19.232      19.869      20.350      20.560      20.394      19.770      18.653      17.062      15.088    
  12.891      10.688      8.7307      7.2608      6.4721      6.4721      7.2608      8.7308      13.273      15.143    
  16.901      18.383      19.484      20.162      20.431      20.350      20.006      19.499      18.902      18.250    
  17.567      16.877      16.198      15.543      14.920      14.335      13.793      13.301      12.868      12.508    
  12.235      12.064      12.006      12.064      12.235      12.508      12.868      13.301      13.793      14.335    
  14.920      15.543      16.198      16.877      17.567      18.250      18.902      19.499      20.006      20.350    
  20.431      20.162      19.484      18.383      16.901      15.143      13.273      11.493      10.020      9.0475    
  8.7073      9.0475      10.020      11.493      15.166      16.662      17.982      19.017      19.708      20.050    
  20.081      19.869      19.499      19.034      18.503      17.932      17.339      16.742      16.151      15.576    
  15.021      14.491      13.994      13.538      13.140      12.818      12.590      12.471      12.471      12.590    
  12.818      13.140      13.538      13.994      14.491      15.021      15.576      16.151      16.742      17.339    
  17.932      18.503      19.034      19.499      19.869      20.081      20.050      19.708      19.017      17.982    
  16.662      15.166      13.650      12.293      11.269      10.718      10.718      11.269      12.293      13.650    
  16.328      17.453      18.382      19.049      19.434      19.557      19.467      19.232      18.902      18.503    
  18.055      17.576      17.079      16.574      16.068      15.564      15.067      14.582      14.121      13.697    
  13.333      13.049      12.868      12.805      12.868      13.049      13.333      13.697      14.121      14.582    
  15.067      15.564      16.068      16.574      17.079      17.576      18.055      18.503      18.902      19.232    
  19.467      19.557      19.434      19.049      18.382      17.453      16.328      15.114      13.949      12.980    
  12.338      12.113      12.338      12.980      13.949      15.114      16.796      17.595      18.210      18.610    
  18.801      18.818      18.711      18.515      18.250      17.932      17.576      17.193      16.791      16.372    
  15.941      15.497      15.046      14.596      14.163      13.765      13.430      13.186      13.057      13.057    
  13.186      13.430      13.765      14.163      14.596      15.046      15.497      15.941      16.372      16.791    
  17.193      17.576      17.932      18.250      18.515      18.711      18.818      18.801      18.610      18.210    
  17.595      16.796      15.879      14.941      14.096      13.457      13.112      13.112      13.457      14.096    
  14.941      15.879      16.672      17.216      17.610      17.850      17.957      17.965      17.892      17.755    
  17.567      17.339      17.079      16.791      16.476      16.133      15.763      15.365      14.949      14.523    
  14.106      13.728      13.424      13.226      13.157      13.226      13.424      13.728      14.106      14.523    
  14.949      15.365      15.763      16.133      16.476      16.791      17.079      17.339      17.567      17.755    
  17.892      17.965      17.957      17.850      17.610      17.216      16.672      16.012      15.296      14.607    
  14.031      13.649      13.515      13.649      14.031      14.607      15.296      16.012      16.098      16.472    
  16.743      16.923      17.027      17.064      17.044      16.980      16.877      16.742      16.574      16.372    
  16.133      15.852      15.529      15.165      14.767      14.350      13.945      13.590      13.326      13.184    
  13.184      13.326      13.590      13.945      14.350      14.767      15.165      15.529      15.852      16.133    
  16.372      16.574      16.742      16.877      16.980      17.044      17.064      17.027      16.923      16.743    
  16.472      16.098      15.631      15.104      14.567      14.085      13.720      13.523      13.523      13.720    
  14.085      14.567      15.104      15.631      15.238      15.529      15.763      15.941      16.068      16.151    
  16.198      16.213      16.198      16.151      16.068      15.941      15.763      15.529      15.238      14.890    
  14.497      14.085      13.696      13.374      13.161      13.086      13.161      13.374      13.696      14.085    
  14.497      14.890      15.238      15.529      15.763      15.941      16.068      16.151      16.198      16.213    
  16.198      16.151      16.068      15.941      15.763      15.529      15.238      14.890      14.497      14.085    
  13.696      13.374      13.161      13.086      13.161      13.374      13.696      14.085      14.497      14.890    
  14.252      14.518      14.750      14.947      15.115      15.258      15.378      15.474      15.543      15.576    
  15.564      15.497      15.365      15.165      14.890      14.546      14.153      13.753      13.391      13.116    
  12.968      12.968      13.116      13.391      13.753      14.153      14.546      14.890      15.165      15.365    
  15.497      15.564      15.576      15.543      15.474      15.378      15.258      15.115      14.947      14.750    
  14.518      14.252      13.953      13.631      13.300      12.981      12.704      12.498      12.387      12.387    
  12.498      12.704      12.981      13.300      13.631      13.953      13.233      13.498      13.747      13.980    
  14.201      14.409      14.603      14.776      14.920      15.021      15.067      15.046      14.949      14.767    
  14.497      14.153      13.770      13.394      13.077      12.864      12.790      12.864      13.077      13.394    
  13.770      14.153      14.497      14.767      14.949      15.046      15.067      15.021      14.920      14.776    
  14.603      14.409      14.201      13.980      13.747      13.498      13.233      12.951      12.658      12.363    
  12.081      11.832      11.635      11.508      11.464      11.508      11.635      11.832      12.081      12.363    
  12.658      12.951      12.227      12.508      12.788      13.067      13.346      13.622      13.886      14.128    
  14.335      14.491      14.582      14.596      14.523      14.350      14.085      13.753      13.394      13.061    
  12.804      12.664      12.664      12.804      13.061      13.394      13.753      14.085      14.350      14.523    
  14.596      14.582      14.491      14.335      14.128      13.886      13.622      13.346      13.067      12.788    
  12.508      12.227      11.944      11.661      11.383      11.119      10.882      10.687      10.547      10.474    
  10.474      10.547      10.687      10.882      11.119      11.383      11.661      11.944      11.269      11.578    
  11.899      12.230      12.568      12.906      13.233      13.534      13.793      13.994      14.121      14.163    
  14.106      13.945      13.696      13.391      13.077      12.804      12.619      12.554      12.619      12.804    
  13.077      13.391      13.696      13.945      14.106      14.163      14.121      13.994      13.793      13.534    
  13.233      12.906      12.568      12.230      11.899      11.578      11.269      10.971      10.683      10.409    
  10.152      9.9214      9.7263      9.5772      9.4835      9.4516      9.4835      9.5772      9.7263      9.9214    
  10.152      10.409      10.683      10.971      10.387      10.732      11.098      11.480      11.874      12.268    
  12.649      12.999      13.301      13.538      13.697      13.765      13.728      13.590      13.374      13.116    
  12.864      12.664      12.554      12.554      12.664      12.864      13.116      13.374      13.590      13.728    
  13.765      13.697      13.538      13.301      12.999      12.649      12.268      11.874      11.480      11.098    
  10.732      10.387      10.063      9.7599      9.4777      9.2186      8.9868      8.7885      8.6308      8.5210    
  8.4645      8.4645      8.5210      8.6308      8.7885      8.9868      9.2186      9.4777      9.7599      10.063    
  9.5979      9.9816      10.392      10.823      11.267      11.710      12.137      12.529      12.868      13.140    
  13.333      13.430      13.424      13.326      13.161      12.968      12.790      12.664      12.619      12.664    
  12.790      12.968      13.161      13.326      13.424      13.430      13.333      13.140      12.868      12.529    
  12.137      11.710      11.267      10.823      10.392      9.9816      9.5979      9.2428      8.9163      8.6180    
  8.3483      8.1090      7.9033      7.7358      7.6115      7.5349      7.5090      7.5349      7.6115      7.7358    
  7.9033      8.1090      8.3483      8.6180      8.9163      9.2428      8.9090      9.3310      9.7833      10.259    
  10.747      11.233      11.700      12.131      12.508      12.818      13.049      13.186      13.226      13.184    
  13.086      12.968      12.864      12.804      12.804      12.864      12.968      13.086      13.184      13.226    
  13.186      13.049      12.818      12.508      12.131      11.700      11.233      10.747      10.259      9.7833    
  9.3310      8.9090      8.5207      8.1670      7.8476      7.5617      7.3097      7.0928      6.9135      6.7751    
  6.6806      6.6327      6.6327      6.6806      6.7751      6.9135      7.0928      7.3097      7.5617      7.8476    
  8.1670      8.5207      8.3209      8.7793      9.2705      9.7862      10.315      10.840      11.347      11.817    
  12.235      12.590      12.868      13.057      13.157      13.184      13.161      13.116      13.077      13.061    
  13.077      13.116      13.161      13.184      13.157      13.057      12.868      12.590      12.235      11.817    
  11.347      10.840      10.315      9.7862      9.2705      8.7793      8.3209      7.8998      7.5179      7.1748    
  6.8696      6.6015      6.3705      6.1777      6.0247      5.9135      5.8459      5.8233      5.8459      5.9135    
  6.0247      6.1777      6.3705      6.6015      6.8696      7.1748      7.5179      7.8998      7.8303      8.3231    
  8.8507      9.4042      9.9713      10.537      11.085      11.599      12.064      12.471      12.805      13.057    
  13.226      13.326      13.374      13.391      13.394      13.394      13.391      13.374      13.326      13.226    
  13.057      12.805      12.471      12.064      11.599      11.085      10.537      9.9713      9.4042      8.8507    
  8.3231      7.8303      7.3778      6.9678      6.6004      6.2744      5.9886      5.7419      5.5343      5.3663    
  5.2390      5.1534      5.1103      5.1103      5.1534      5.2390      5.3663      5.5343      5.7419      5.9886    
  6.2744      6.6004      6.9678      7.3778      7.4329      7.9590      8.5224      9.1138      9.7211      10.329    
  10.923      11.487      12.006      12.471      12.868      13.186      13.424      13.590      13.696      13.753    
  13.770      13.753      13.696      13.590      13.424      13.186      12.868      12.471      12.006      11.487    
  10.923      10.329      9.7211      9.1138      8.5224      7.9590      7.4329      6.9498      6.5123      6.1206    
  5.7734      5.4690      5.2058      4.9828      4.7997      4.6567      4.5542      4.4925      4.4719      4.4925    
  4.5542      4.6567      4.7997      4.9828      5.2058      5.4690      5.7734      6.1206      6.5123      6.9498    
  7.1251      7.6853      8.2859      8.9176      9.5684      10.224      10.868      11.487      12.064      12.590    
  13.049      13.430      13.728      13.945      14.085      14.153      14.153      14.085      13.945      13.728    
  13.430      13.049      12.590      12.064      11.487      10.868      10.224      9.5684      8.9176      8.2859    
  7.6853      7.1251      6.6110      6.1457      5.7294      5.3607      5.0373      4.7571      4.5185      4.3203    
  4.1621      4.0436      3.9646      3.9252      3.9252      3.9646      4.0436      4.1621      4.3203      4.5185    
  4.7571      5.0373      5.3607      5.7294      6.1457      6.6110      6.9051      7.5019      8.1428      8.8185    
  9.5170      10.224      10.923      11.599      12.235      12.818      13.333      13.765      14.106      14.350    
  14.497      14.546      14.497      14.350      14.106      13.765      13.333      12.818      12.235      11.599    
  10.923      10.224      9.5170      8.8185      8.1428      7.5019      6.9051      6.3581      5.8635      5.4215    
  5.0301      4.6869      4.3892      4.1346      3.9214      3.7483      3.6145      3.5194      3.4626      3.4437    
  3.4626      3.5194      3.6145      3.7483      3.9214      4.1346      4.3892      4.6869      5.0301      5.4215    
  5.8635      6.3581      6.7728      7.4098      8.0948      8.8185      9.5684      10.329      11.085      11.817    
  12.508      13.140      13.697      14.163      14.523      14.767      14.890      14.890      14.767      14.523    
  14.163      13.697      13.140      12.508      11.817      11.085      10.329      9.5684      8.8185      8.0948    
  7.4098      6.7728      6.1896      5.6629      5.1926      4.7767      4.4122      4.0957      3.8243      3.5956    
  3.4077      3.2591      3.1488      3.0758      3.0394      3.0394      3.0758      3.1488      3.2591      3.4077    
  3.5956      3.8243      4.0957      4.4122      4.7767      5.1926      5.6629      6.1896      6.7286      7.4098    
  8.1428      8.9176      9.7211      10.537      11.347      12.131      12.868      13.538      14.121      14.596    
  14.949      15.165      15.238      15.165      14.949      14.596      14.121      13.538      12.868      12.131    
  11.347      10.537      9.7211      8.9176      8.1428      7.4098      6.7286      6.1053      5.5427      5.0407    
  4.5972      4.2087      3.8715      3.5818      3.3366      3.1333      2.9699      2.8448      2.7565      2.7040    
  2.6866      2.7040      2.7565      2.8448      2.9699      3.1333      3.3366      3.5818      3.8715      4.2087    
  4.5972      5.0407      5.5427      6.1053      6.7728      7.5019      8.2859      9.1138      9.9713      10.840    
  11.700      12.529      13.301      13.994      14.582      15.046      15.365      15.529      15.529      15.365    
  15.046      14.582      13.994      13.301      12.529      11.700      10.840      9.9713      9.1138      8.2859    
  7.5019      6.7728      6.1053      5.5026      4.9649      4.4899      4.0740      3.7130      3.4027      3.1393    
  2.9195      2.7408      2.6008      2.4977      2.4299      2.3963      2.3963      2.4299      2.4977      2.6008    
  2.7408      2.9195      3.1393      3.4027      3.7130      4.0740      4.4899      4.9649      5.5026      6.1053    
  6.9051      7.6853      8.5224      9.4042      10.315      11.233      12.137      12.999      13.793      14.491    
  15.067      15.497      15.763      15.852      15.763      15.497      15.067      14.491      13.793      12.999    
  12.137      11.233      10.315      9.4042      8.5224      7.6853      6.9051      6.1896      5.5427      4.9649    
  4.4542      4.0069      3.6185      3.2845      3.0003      2.7622      2.5669      2.4114      2.2934      2.2107    
  2.1617      2.1455      2.1617      2.2107      2.2934      2.4114      2.5669      2.7622      3.0003      3.2845    
  3.6185      4.0069      4.4542      4.9649      5.5427      6.1896      7.1251      7.9590      8.8507      9.7862    
  10.747      11.710      12.649      13.534      14.335      15.021      15.564      15.941      16.133      16.133    
  15.941      15.564      15.021      14.335      13.534      12.649      11.710      10.747      9.7862      8.8507    
  7.9590      7.1251      6.3581      5.6629      5.0407      4.4899      4.0069      3.5871      3.2256      2.9176    
  2.6587      2.4448      2.2726      2.1390      2.0413      1.9774      1.9459      1.9459      1.9774      2.0413    
  2.1390      2.2726      2.4448      2.6587      2.9176      3.2256      3.5871      4.0069      4.4899      5.0407    
  5.6629      6.3581      7.4329      8.3231      9.2705      10.259      11.267      12.268      13.233      14.128    
  14.920      15.576      16.068      16.372      16.476      16.372      16.068      15.576      14.920      14.128    
  13.233      12.268      11.267      10.259      9.2705      8.3231      7.4329      6.6110      5.8635      5.1926    
  4.5972      4.0740      3.6185      3.2256      2.8901      2.6072      2.3724      2.1815      2.0310      1.9177    
  1.8388      1.7923      1.7769      1.7923      1.8388      1.9177      2.0310      2.1815      2.3724      2.6072    
  2.8901      3.2256      3.6185      4.0740      4.5972      5.1926      5.8635      6.6110      7.8303      8.7793    
  9.7833      10.823      11.874      12.906      13.886      14.776      15.543      16.151      16.574      16.791    
  16.791      16.574      16.151      15.543      14.776      13.886      12.906      11.874      10.823      9.7833    
  8.7793      7.8303      6.9498      6.1457      5.4215      4.7767      4.2087      3.7130      3.2845      2.9176    
  2.6072      2.3484      2.1364      1.9672      1.8369      1.7423      1.6807      1.6505      1.6505      1.6807    
  1.7423      1.8369      1.9672      2.1364      2.3484      2.6072      2.9176      3.2845      3.7130      4.2087    
  4.7767      5.4215      6.1457      6.9498      8.3209      9.3310      10.392      11.480      12.568      13.622    
  14.603      15.474      16.198      16.742      17.079      17.193      17.079      16.742      16.198      15.474    
  14.603      13.622      12.568      11.480      10.392      9.3310      8.3209      7.3778      6.5123      5.7294    
  5.0301      4.4122      3.8715      3.4027      3.0003      2.6587      2.3724      2.1364      1.9461      1.7970    
  1.6854      1.6082      1.5628      1.5479      1.5628      1.6082      1.6854      1.7970      1.9461      2.1364    
  2.3724      2.6587      3.0003      3.4027      3.8715      4.4122      5.0301      5.7294      6.5123      7.3778    
  8.9090      9.9816      11.098      12.230      13.346      14.409      15.378      16.213      16.877      17.339    
  17.576      17.576      17.339      16.877      16.213      15.378      14.409      13.346      12.230      11.098    
  9.9816      8.9090      7.8998      6.9678      6.1206      5.3607      4.6869      4.0957      3.5818      3.1393    
  2.7622      2.4448      2.1815      1.9672      1.7970      1.6666      1.5724      1.5113      1.4813      1.4813    
  1.5113      1.5724      1.6667      1.7970      1.9672      2.1815      2.4448      2.7622      3.1393      3.5818    
  4.0957      4.6869      5.3607      6.1206      6.9678      7.8998      9.5979      10.732      11.899      13.067    
  14.201      15.258      16.198      16.980      17.567      17.932      18.055      17.932      17.567      16.980    
  16.198      15.258      14.201      13.067      11.899      10.732      9.5979      8.5207      7.5179      6.6004    
  5.7734      5.0373      4.3892      3.8243      3.3366      2.9195      2.5669      2.2726      2.0310      1.8369    
  1.6854      1.5724      1.4943      1.4486      1.4336      1.4486      1.4943      1.5724      1.6854      1.8369    
  2.0310      2.2726      2.5669      2.9195      3.3366      3.8243      4.3892      5.0373      5.7734      6.6004    
  7.5179      8.5207      10.387      11.578      12.788      13.980      15.115      16.151      17.044      17.755    
  18.250      18.503      18.503      18.250      17.755      17.044      16.151      15.115      13.980      12.788    
  11.578      10.387      9.2428      8.1670      7.1748      6.2744      5.4690      4.7571      4.1346      3.5956    
  3.1333      2.7408      2.4114      2.1390      1.9177      1.7423      1.6082      1.5113      1.4486      1.4178    
  1.4178      1.4486      1.5113      1.6082      1.7423      1.9177      2.1390      2.4114      2.7408      3.1333    
  3.5956      4.1346      4.7571      5.4690      6.2744      7.1748      8.1670      9.2428      11.269      12.508    
  13.747      14.947      16.068      17.064      17.892      18.515      18.902      19.034      18.902      18.515    
  17.892      17.064      16.068      14.947      13.747      12.508      11.269      10.063      8.9163      7.8476    
  6.8696      5.9886      5.2058      4.5185      3.9214      3.4077      2.9699      2.6008      2.2934      2.0413    
  1.8388      1.6807      1.5628      1.4813      1.4336      1.4178      1.4336      1.4813      1.5628      1.6807    
  1.8388      2.0413      2.2934      2.6008      2.9699      3.4077      3.9214      4.5185      5.2058      5.9886    
  6.8696      7.8476      8.9163      10.063      12.227      13.498      14.750      15.941      17.027      17.964    
  18.711      19.232      19.499      19.499      19.232      18.711      17.965      17.027      15.941      14.750    
  13.498      12.227      10.971      9.7599      8.6180      7.5617      6.6015      5.7419      4.9828      4.3203    
  3.7483      3.2591      2.8448      2.4977      2.2107      1.9774      1.7923      1.6505      1.5479      1.4813    
  1.4486      1.4486      1.4813      1.5479      1.6505      1.7923      1.9774      2.2107      2.4977      2.8448    
  3.2591      3.7483      4.3203      4.9828      5.7419      6.6015      7.5617      8.6180      9.7599      10.971    
  13.233      14.518      15.763      16.923      17.957      18.818      19.467      19.869      20.006      19.869    
  19.467      18.818      17.957      16.923      15.763      14.518      13.233      11.944      10.683      9.4777    
  8.3483      7.3097      6.3705      5.5343      4.7997      4.1621      3.6145      3.1488      2.7565      2.4299    
  2.1617      1.9459      1.7769      1.6505      1.5628      1.5113      1.4943      1.5113      1.5628      1.6505    
  1.7769      1.9459      2.1617      2.4299      2.7565      3.1488      3.6145      4.1621      4.7997      5.5343    
  6.3705      7.3097      8.3483      9.4777      10.683      11.944      14.252      15.529      16.743      17.850    
  18.801      19.557      20.081      20.350      20.350      20.081      19.557      18.801      17.850      16.743    
  15.529      14.252      12.951      11.661      10.409      9.2186      8.1090      7.0928      6.1777      5.3663    
  4.6567      4.0436      3.5194      3.0758      2.7040      2.3963      2.1455      1.9459      1.7923      1.6807    
  1.6082      1.5724      1.5724      1.6082      1.6807      1.7923      1.9459      2.1455      2.3963      2.7040    
  3.0758      3.5194      4.0436      4.6567      5.3663      6.1777      7.0928      8.1090      9.2186      10.409    
  11.661      12.951      15.238      16.472      17.610      18.610      19.434      20.050      20.431      20.560    
  20.431      20.050      19.434      18.610      17.610      16.472      15.238      13.953      12.658      11.383    
  10.152      8.9868      7.9033      6.9135      6.0247      5.2390      4.5542      3.9646      3.4626      3.0394    
  2.6866      2.3963      2.1617      1.9774      1.8388      1.7423      1.6854      1.6667      1.6854      1.7423    
  1.8388      1.9774      2.1617      2.3963      2.6866      3.0394      3.4626      3.9646      4.5542      5.2390    
  6.0247      6.9135      7.9033      8.9868      10.152      11.383      12.658      13.953      16.098      17.216    
  18.210      19.049      19.708      20.162      20.394      20.394      20.162      19.708      19.049      18.210    
  17.216      16.098      14.890      13.631      12.363      11.119      9.9214      8.7885      7.7358      6.7751    
  5.9135      5.1534      4.4925      3.9252      3.4437      3.0394      2.7040      2.4299      2.2107      2.0413    
  1.9177      1.8369      1.7970      1.7970      1.8369      1.9177      2.0413      2.2107      2.4299      2.7040    