Name                                    
   5.43100000000000     
     0.500000    0.500000    0.000000
     0.500000    0.000000   -0.500000
     0.000000    0.500000   -0.500000
   Si
     2
Direct
  0.000000  0.000000  0.000000
  0.250000  0.250000  0.250000
 
   56   56   56
 -.75726605539E+01 -.69870010069E+01 -.52971616780E+01 -.26939890361E+01 0.53779482798E+00
 0.40630675253E+01 0.75448531464E+01 0.10688338324E+02 0.13272560533E+02 0.15166109211E+02
 0.16327762983E+02 0.16795977282E+02 0.16671716922E+02 0.16098017970E+02 0.15238290359E+02
 0.14251794072E+02 0.13233012782E+02 0.12226623678E+02 0.11268997373E+02 0.10387153890E+02
 0.95979442138E+01 0.89089636405E+01 0.83208579983E+01 0.78303104291E+01 0.74328879787E+01
 0.71250684010E+01 0.69051009783E+01 0.67727797520E+01 0.67285795275E+01 0.67727790233E+01
 0.69050999886E+01 0.71250678349E+01 0.74328883607E+01 0.78303118068E+01 0.83208598531E+01
 0.89089650800E+01 0.95979443754E+01 0.10387152367E+02 0.11268994458E+02 0.12226620296E+02
 0.13233010111E+02 0.14251793002E+02 0.15238291028E+02 0.16098019601E+02 0.16671718041E+02
 0.16795976278E+02 0.16327758773E+02 0.15166101745E+02 0.13272550913E+02 0.10688328465E+02
 0.75448451083E+01 0.40630627620E+01 0.53779366711E+00 -.26939874728E+01 -.52971590768E+01
 -.69869991449E+01 -.69870010069E+01 -.57957467979E+01 -.35532058286E+01 -.51596925530E+00
 0.29845570442E+01 0.65935509051E+01 0.99829413682E+01 0.12890653471E+02 0.15143261722E+02
 0.16661597205E+02 0.17452939586E+02 0.17594942357E+02 0.17215622819E+02 0.16472012214E+02
 0.15528803023E+02 0.14518467824E+02 0.13498271254E+02 0.12507713115E+02 0.11578350786E+02
 0.10732184122E+02 0.99816118186E+01 0.93309858945E+01 0.87792750190E+01 0.83230510373E+01
 0.79589887973E+01 0.76852999144E+01 0.75019327037E+01 0.74098257312E+01 0.74098254136E+01
 0.75019319729E+01 0.76852993200E+01 0.79589889177E+01 0.83230521491E+01 0.87792768936E+01
 0.93309878370E+01 0.99816129411E+01 0.10732183745E+02 0.11578348780E+02 0.12507710029E+02
 0.13498268140E+02 0.14518465827E+02 0.15528802881E+02 0.16472013889E+02 0.17215625414E+02
 0.17594944379E+02 0.17452939445E+02 0.16661593784E+02 0.15143254776E+02 0.12890643720E+02
 0.99829302387E+01 0.65935400535E+01 0.29845478439E+01 -.51597606663E+00 -.35532101857E+01
 -.57957490921E+01 -.69870017044E+01 -.52971616780E+01 -.35532058286E+01 -.87976713641E+00
 0.24160529386E+01 0.59794952143E+01 0.94623853159E+01 0.12569330491E+02 0.15087982518E+02
 0.16900953891E+02 0.17982038355E+02 0.18382055872E+02 0.18209534739E+02 0.17609696501E+02
 0.16743444671E+02 0.15762533102E+02 0.14749752439E+02 0.13746591029E+02 0.12787619456E+02
 0.11898993746E+02 0.11097597855E+02 0.10391750372E+02 0.97832987227E+01 0.92704724599E+01
 0.88506609710E+01 0.85223599934E+01 0.82858667268E+01 0.81427848956E+01 0.80948472854E+01
 0.81427845182E+01 0.82858662927E+01 0.85223599756E+01 0.88506617366E+01 0.92704740434E+01
 0.97833007431E+01 0.10391752142E+02 0.11097598651E+02 0.11898993126E+02 0.12787617491E+02
 0.13746588344E+02 0.14749750023E+02 0.15762531951E+02 0.16743445392E+02 0.17609699033E+02
 0.18209538286E+02 0.18382059096E+02 0.17982039748E+02 0.16900952214E+02 0.15087977151E+02
 0.12569321599E+02 0.94623737867E+01 0.59794824307E+01 0.24160404647E+01 -.87977784318E+00
 -.35532136090E+01 -.52971657581E+01 -.59031004048E+01 -.26939890361E+01 -.51596925530E+00
 0.24160529386E+01 0.57674583922E+01 0.91867776663E+01 0.12357023581E+02 0.15033323367E+02
 0.17062101110E+02 0.18382768143E+02 0.19016726889E+02 0.19049416674E+02 0.18609801341E+02
 0.17849680022E+02 0.16923410553E+02 0.15940516806E+02 0.14947339434E+02 0.13979937673E+02
 0.13067332013E+02 0.12230121448E+02 0.11480412650E+02 0.10823217544E+02 0.10258940649E+02
 0.97862086123E+01 0.94041987150E+01 0.91138287667E+01 0.89176147515E+01 0.88185229772E+01
 0.88185228731E+01 0.89176145511E+01 0.91138287516E+01 0.94041991942E+01 0.97862097541E+01
 0.10258942360E+02 0.10823219451E+02 0.11480414205E+02 0.12230122125E+02 0.13067331523E+02
 0.13979936118E+02 0.14947337336E+02 0.15940514982E+02 0.16923409863E+02 0.17849681077E+02
 0.18609804243E+02 0.19049420894E+02 0.19016731328E+02 0.18382771358E+02 0.17062101665E+02
 0.15033320212E+02 0.12357016366E+02 0.91867668905E+01 0.57674453726E+01 0.24160395810E+01
 -.51598081997E+00 -.26939968740E+01 -.38552812122E+01 -.38552784400E+01 0.53779482798E+00
 0.29845570442E+01 0.59794952143E+01 0.91867776663E+01 0.12283015458E+02 0.15000825346E+02
 0.17155411186E+02 0.18652890218E+02 0.19483882177E+02 0.19707999382E+02 0.19434346943E+02
 0.18801260456E+02 0.17956783882E+02 0.17026890846E+02 0.16067673449E+02 0.15115384139E+02
 0.14200548880E+02 0.13346403840E+02 0.12568252247E+02 0.11874177157E+02 0.11267019683E+02
 0.10747054392E+02 0.10314531068E+02 0.99712961183E+01 0.97210550188E+01 0.95683704411E+01
 0.95169931222E+01 0.95683704138E+01 0.97210550720E+01 0.99712964256E+01 0.10314531793E+02
 0.10747055607E+02 0.11267021300E+02 0.11874178912E+02 0.12568253744E+02 0.13346404658E+02
 0.14200548728E+02 0.15115382994E+02 0.16067671641E+02 0.17026889034E+02 0.17956782899E+02
 0.18801261057E+02 0.19434349514E+02 0.19708003718E+02 0.19483887402E+02 0.18652894922E+02
 0.17155413755E+02 0.15000824420E+02 0.12283010371E+02 0.91867687549E+01 0.59794838458E+01
 0.29845453606E+01 0.53778524980E+00 -.10659436892E+01 -.16244987349E+01 -.10659382993E+01
 0.40630675253E+01 0.65935509051E+01 0.94623853159E+01 0.12357023581E+02 0.15000825346E+02
 0.17186026722E+02 0.18789143546E+02 0.19770390050E+02 0.20161916897E+02 0.20050206015E+02
 0.19556607096E+02 0.18818195697E+02 0.17964500616E+02 0.17063589935E+02 0.16151197442E+02
 0.15258120708E+02 0.14409027762E+02 0.13621513088E+02 0.12906257541E+02 0.12268466550E+02
 0.11710248739E+02 0.11233205614E+02 0.10840381255E+02 0.10536932099E+02 0.10329362328E+02
 0.10223742883E+02 0.10223742913E+02 0.10329362431E+02 0.10536932325E+02 0.10840381691E+02
 0.11233206367E+02 0.11710249892E+02 0.12268468096E+02 0.12906259315E+02 0.13621514754E+02
 0.14409028868E+02 0.15258120832E+02 0.16151196376E+02 0.17063587845E+02 0.17964498093E+02
 0.18818193652E+02 0.19556606491E+02 0.20050207518E+02 0.20161920564E+02 0.19770395182E+02
 0.18789148786E+02 0.17186030415E+02 0.15000826052E+02 0.12357020575E+02 0.94623789179E+01
 0.65935424791E+01 0.40630591435E+01 0.21725589049E+01 0.11611478172E+01 0.11611500722E+01
 0.21725650532E+01 0.75448531464E+01 0.99829413682E+01 0.12569330491E+02 0.15033323367E+02
 0.17155411186E+02 0.18789143546E+02 0.19867011309E+02 0.20393627524E+02 0.20431126544E+02
 0.20081183375E+02 0.19466527297E+02 0.18711394193E+02 0.17892257693E+02 0.17044450909E+02
 0.16198038001E+02 0.15377949170E+02 0.14602991949E+02 0.13885659007E+02 0.13233097364E+02
 0.12649133252E+02 0.12136784544E+02 0.11700427317E+02 0.11346840005E+02 0.11084736773E+02
 0.10922985945E+02 0.10868244596E+02 0.10922986037E+02 0.11084736948E+02 0.11346840281E+02
 0.11700427769E+02 0.12136785306E+02 0.12649134466E+02 0.13233099077E+02 0.13885661067E+02
 0.14602993960E+02 0.15377950555E+02 0.16198038177E+02 0.17044449529E+02 0.17892254849E+02
 0.18711390493E+02 0.19466523753E+02 0.20081181104E+02 0.20431126382E+02 0.20393629685E+02
 0.19867015237E+02 0.18789148030E+02 0.17155414727E+02 0.15033324691E+02 0.12569329002E+02
 0.99829373966E+01 0.75448478841E+01 0.55397927015E+01 0.42199913258E+01 0.37593657656E+01
 0.42199942458E+01 0.55397975848E+01 0.10688338324E+02 0.12890653471E+02 0.15087982518E+02
 0.17062101110E+02 0.18652890218E+02 0.19770390050E+02 0.20393627524E+02 0.20560073863E+02
 0.20350038528E+02 0.19869357534E+02 0.19231614178E+02 0.18515330675E+02 0.17755171289E+02
 0.16979696151E+02 0.16213071499E+02 0.15474210580E+02 0.14776434704E+02 0.14128108892E+02
 0.13534337237E+02 0.12999333197E+02 0.12528712823E+02 0.12130867249E+02 0.11816831109E+02
 0.11598605534E+02 0.11486504418E+02 0.11486504459E+02 0.11598605650E+02 0.11816831292E+02
 0.12130867546E+02 0.12528713362E+02 0.12999334172E+02 0.13534338816E+02 0.14128111092E+02
 0.14776437284E+02 0.15474213021E+02 0.16213073097E+02 0.16979696230E+02 0.17755169461E+02
 0.18515327039E+02 0.19231609371E+02 0.19869352595E+02 0.20350034586E+02 0.20560071772E+02
 0.20393627564E+02 0.19770391818E+02 0.18652892769E+02 0.17062103284E+02 0.15087983368E+02
 0.12890652605E+02 0.10688336037E+02 0.87307494987E+01 0.72608245394E+01 0.64721376713E+01
 0.64721385545E+01 0.72608268471E+01 0.87307523433E+01 0.13272560533E+02 0.15143261722E+02
 0.16900953891E+02 0.18382768143E+02 0.19483882177E+02 0.20161916897E+02 0.20431126544E+02
 0.20350038528E+02 0.20006005660E+02 0.19498734758E+02 0.18902327214E+02 0.18249610494E+02
 0.17567042725E+02 0.16877185877E+02 0.16198038001E+02 0.15542702838E+02 0.14919842301E+02
 0.14335120636E+02 0.13793426454E+02 0.13301239690E+02 0.12868294398E+02 0.12507809370E+02
 0.12235016536E+02 0.12064349606E+02 0.12006198573E+02 0.12064349643E+02 0.12235016625E+02
 0.12507809567E+02 0.12868294830E+02 0.13301240549E+02 0.13793427954E+02 0.14335122899E+02
 0.14919845236E+02 0.15542706073E+02 0.16198040911E+02 0.16877187713E+02 0.17567042825E+02
 0.18249608516E+02 0.18902323287E+02 0.19498729485E+02 0.20005999971E+02 0.20350033407E+02
 0.20431122736E+02 0.20161914697E+02 0.19483881367E+02 0.18382768129E+02 0.16900953947E+02
 0.15143261283E+02 0.13272559405E+02 0.11492822707E+02 0.10020315730E+02 0.90474773470E+01
 0.87073499977E+01 0.90474783090E+01 0.10020317292E+02 0.11492824307E+02 0.15166109211E+02
 0.16661597205E+02 0.17982038355E+02 0.19016726889E+02 0.19707999382E+02 0.20050206015E+02
 0.20081183375E+02 0.19869357534E+02 0.19498734758E+02 0.19033590885E+02 0.18503275045E+02
 0.17931642816E+02 0.17338991411E+02 0.16741542494E+02 0.16151197442E+02 0.15575928666E+02
 0.15021067477E+02 0.14491410316E+02 0.13993641988E+02 0.13538268572E+02 0.13140239517E+02
 0.12817783434E+02 0.12589503785E+02 0.12470871119E+02 0.12470871095E+02 0.12589503742E+02
 0.12817783468E+02 0.13140239792E+02 0.13538269309E+02 0.13993643411E+02 0.14491412586E+02
 0.15021070601E+02 0.15575932420E+02 0.16151201354E+02 0.16741545917E+02 0.17338993659E+02
 0.17931643337E+02 0.18503273579E+02 0.19033587554E+02 0.19498730031E+02 0.19869352107E+02
 0.20081177973E+02 0.20050201202E+02 0.19707995444E+02 0.19016723804E+02 0.17982035895E+02
 0.16661595075E+02 0.15166107202E+02 0.13650272953E+02 0.12292992616E+02 0.11269151462E+02
 0.10718425414E+02 0.10718425826E+02 0.11269152612E+02 0.12292994276E+02 0.13650274866E+02
 0.16327762983E+02 0.17452939586E+02 0.18382055872E+02 0.19049416674E+02 0.19434346943E+02
 0.19556607096E+02 0.19466527297E+02 0.19231614178E+02 0.18902327214E+02 0.18503275045E+02
 0.18055269520E+02 0.17575840978E+02 0.17078769094E+02 0.16573925407E+02 0.16067673449E+02
 0.15564078838E+02 0.15066942586E+02 0.14582282054E+02 0.14120526491E+02 0.13697471873E+02
 0.13332706828E+02 0.13048730724E+02 0.12867557774E+02 0.12805213841E+02 0.12867557601E+02
 0.13048730502E+02 0.13332706782E+02 0.13697472284E+02 0.14120527640E+02 0.14582284143E+02
 0.15066945666E+02 0.15564082773E+02 0.16067677913E+02 0.16573929907E+02 0.17078773059E+02
 0.17575843875E+02 0.18055270950E+02 0.18503274823E+02 0.18902325399E+02 0.19231611032E+02
 0.19466523206E+02 0.19556602484E+02 0.19434342165E+02 0.19049411994E+02 0.18382051432E+02
 0.17452935462E+02 0.16327759234E+02 0.15114117865E+02 0.13949374175E+02 0.12980316579E+02
 0.12337978758E+02 0.12113058512E+02 0.12337979766E+02 0.12980318502E+02 0.13949376861E+02
 0.15114121150E+02 0.16795977282E+02 0.17594942357E+02 0.18209534739E+02 0.18609801341E+02
 0.18801260456E+02 0.18818195697E+02 0.18711394193E+02 0.18515330675E+02 0.18249610494E+02
 0.17931642816E+02 0.17575840978E+02 0.17193087555E+02 0.16790616112E+02 0.16372437516E+02
 0.15940516806E+02 0.15496763242E+02 0.15045567767E+02 0.14596229825E+02 0.14162913488E+02
 0.13765218581E+02 0.13429875670E+02 0.13185622697E+02 0.13056612693E+02 0.13056612495E+02
 0.13185622201E+02 0.13429875144E+02 0.13765218395E+02 0.14162914015E+02 0.14596231347E+02
 0.15045570412E+02 0.15496766932E+02 0.15940521282E+02 0.16372442407E+02 0.16790620982E+02
 0.17193091983E+02 0.17575844622E+02 0.17931645435E+02 0.18249611955E+02 0.18515330941E+02
 0.18711393302E+02 0.18818193731E+02 0.18801257548E+02 0.18609797645E+02 0.18209530458E+02
 0.17594937737E+02 0.16795972601E+02 0.15879117842E+02 0.14941277202E+02 0.14096390144E+02
 0.13456607602E+02 0.13111741729E+02 0.13111742383E+02 0.13456609509E+02 0.14096393147E+02
 0.14941281067E+02 0.15879122273E+02 0.16671716922E+02 0.17215622819E+02 0.17609696501E+02
 0.17849680022E+02 0.17956783882E+02 0.17964500616E+02 0.17892257693E+02 0.17755171289E+02
 0.17567042725E+02 0.17338991411E+02 0.17078769094E+02 0.16790616112E+02 0.16475695008E+02
 0.16133244651E+02 0.15762533102E+02 0.15365432359E+02 0.14948708755E+02 0.14522565512E+02
 0.14105900862E+02 0.13728205222E+02 0.13424126851E+02 0.13226163377E+02 0.13157394459E+02
 0.13226162746E+02 0.13424125840E+02 0.13728204264E+02 0.14105900445E+02 0.14522566047E+02
 0.14948710474E+02 0.15365435283E+02 0.15762537035E+02 0.16133249254E+02 0.16475699913E+02
 0.16790620987E+02 0.17078773686E+02 0.17338995569E+02 0.17567046347E+02 0.17755174293E+02
 0.17892259966E+02 0.17964502022E+02 0.17956784260E+02 0.17849679265E+02 0.17609694581E+02
 0.17215619837E+02 0.16671713136E+02 0.16011506863E+02 0.15296165939E+02 0.14606788077E+02
 0.14031447870E+02 0.13649327615E+02 0.13515397459E+02 0.13649329060E+02 0.14031450587E+02
 0.14606791741E+02 0.15296170116E+02 0.16011511075E+02 0.16098017970E+02 0.16472012214E+02
 0.16743444671E+02 0.16923410553E+02 0.17026890846E+02 0.17063589935E+02 0.17044450909E+02
 0.16979696151E+02 0.16877185877E+02 0.16741542494E+02 0.16573925407E+02 0.16372437516E+02
 0.16133244651E+02 0.15852477276E+02 0.15528803023E+02 0.15165263491E+02 0.14766978675E+02
 0.14350233491E+02 0.13945041886E+02 0.13590172634E+02 0.13325592361E+02 0.13184081010E+02
 0.13184080538E+02 0.13325591100E+02 0.13590170998E+02 0.13945040436E+02 0.14350232776E+02
 0.14766979089E+02 0.15165265183E+02 0.15528805904E+02 0.15852481055E+02 0.16133248940E+02
 0.16372441970E+02 0.16573929788E+02 0.16741546695E+02 0.16877189909E+02 0.16979700051E+02
 0.17044454677E+02 0.17063593460E+02 0.17026893910E+02 0.16923412858E+02 0.16743445914E+02
 0.16472012207E+02 0.16098016673E+02 0.15631111560E+02 0.15103622168E+02 0.14567226978E+02
 0.14084981330E+02 0.13720021831E+02 0.13523318622E+02 0.13523319323E+02 0.13720023807E+02
 0.14084984223E+02 0.14567230269E+02 0.15103625280E+02 0.15631113960E+02 0.15238290359E+02
 0.15528803023E+02 0.15762533102E+02 0.15940516806E+02 0.16067673449E+02 0.16151197442E+02
 0.16198038001E+02 0.16213071499E+02 0.16198038001E+02 0.16151197442E+02 0.16067673449E+02
 0.15940516806E+02 0.15762533102E+02 0.15528803023E+02 0.15238290359E+02 0.14890493054E+02
 0.14496812724E+02 0.14085070759E+02 0.13695510676E+02 0.13373546693E+02 0.13160783680E+02
 0.13086371882E+02 0.13160782568E+02 0.13373544774E+02 0.13695508477E+02 0.14085068895E+02
 0.14496811739E+02 0.14890493289E+02 0.15238291874E+02 0.15528805638E+02 0.15762536448E+02
 0.15940520445E+02 0.16067677034E+02 0.16151200778E+02 0.16198041085E+02 0.16213074483E+02
 0.16198041085E+02 0.16151200778E+02 0.16067677034E+02 0.15940520445E+02 0.15762536448E+02
 0.15528805638E+02 0.15238291874E+02 0.14890493289E+02 0.14496811739E+02 0.14085068895E+02
 0.13695508477E+02 0.13373544774E+02 0.13160782568E+02 0.13086371882E+02 0.13160783680E+02
 0.13373546693E+02 0.13695510676E+02 0.14085070759E+02 0.14496812724E+02 0.14890493054E+02
 0.14251794072E+02 0.14518467824E+02 0.14749752439E+02 0.14947339434E+02 0.15115384139E+02
 0.15258120708E+02 0.15377949170E+02 0.15474210580E+02 0.15542702838E+02 0.15575928666E+02
 0.15564078838E+02 0.15496763242E+02 0.15365432359E+02 0.15165263491E+02 0.14890493054E+02
 0.14545624596E+02 0.14153457083E+02 0.13752507859E+02 0.13390629418E+02 0.13116069660E+02
 0.12967881645E+02 0.12967881040E+02 0.13116067986E+02 0.13390627060E+02 0.13752505366E+02
 0.14153455044E+02 0.14545623505E+02 0.14890493189E+02 0.15165264851E+02 0.15365434694E+02
 0.15496766100E+02 0.15564081703E+02 0.15575931126E+02 0.15542704684E+02 0.15474211873E+02
 0.15377950209E+02 0.15258121907E+02 0.15115385879E+02 0.14947341907E+02 0.14749755555E+02
 0.14518471224E+02 0.14251797230E+02 0.13952921576E+02 0.13631195910E+02 0.13300108299E+02
 0.12981361126E+02 0.12703819264E+02 0.12497588505E+02 0.12387480644E+02 0.12387481051E+02
 0.12497589555E+02 0.12703820503E+02 0.12981361972E+02 0.13300108238E+02 0.13631194671E+02
 0.13952919202E+02 0.13233012782E+02 0.13498271254E+02 0.13746591029E+02 0.13979937673E+02
 0.14200548880E+02 0.14409027762E+02 0.14602991949E+02 0.14776434704E+02 0.14919842301E+02
 0.15021067477E+02 0.15066942586E+02 0.15045567767E+02 0.14948708755E+02 0.14766978675E+02
 0.14496812724E+02 0.14153457083E+02 0.13770376486E+02 0.13394223236E+02 0.13076595818E+02
 0.12864196574E+02 0.12789518435E+02 0.12864195542E+02 0.13076593940E+02 0.13394220869E+02
 0.13770374101E+02 0.14153455196E+02 0.14496811779E+02 0.14766978926E+02 0.14948710170E+02
 0.15045570042E+02 0.15066945159E+02 0.15021069704E+02 0.14919843647E+02 0.14776434904E+02
 0.14602991122E+02 0.14409026374E+02 0.14200547605E+02 0.13979937164E+02 0.13746591706E+02
 0.13498273147E+02 0.13233015530E+02 0.12951263065E+02 0.12657754190E+02 0.12362605408E+02
 0.12081157374E+02 0.11832176433E+02 0.11635106371E+02 0.11508114811E+02 0.11464212090E+02
 0.11508115265E+02 0.11635106964E+02 0.11832176667E+02 0.12081156783E+02 0.12362603765E+02
 0.12657751635E+02 0.12951260083E+02 0.12226623678E+02 0.12507713115E+02 0.12787619456E+02
 0.13067332013E+02 0.13346403840E+02 0.13621513088E+02 0.13885659007E+02 0.14128108892E+02
 0.14335120636E+02 0.14491410316E+02 0.14582282054E+02 0.14596229825E+02 0.14522565512E+02
 0.14350233491E+02 0.14085070759E+02 0.13752507859E+02 0.13394223236E+02 0.13061178699E+02
 0.12804257019E+02 0.12664398283E+02 0.12664397936E+02 0.12804256003E+02 0.13061177121E+02
 0.13394221314E+02 0.13752505945E+02 0.14085069305E+02 0.14350232945E+02 0.14522566149E+02
 0.14596231626E+02 0.14582284648E+02 0.14491413001E+02 0.14335122603E+02 0.14128109452E+02
 0.13885657843E+02 0.13621510385E+02 0.13346400250E+02 0.13067328463E+02 0.12787616846E+02
 0.12507712041E+02 0.12226624248E+02 0.11943751672E+02 0.11660704937E+02 0.11382671101E+02
 0.11118905591E+02 0.10882130260E+02 0.10686900164E+02 0.10547286605E+02 0.10474412318E+02
 0.10474412448E+02 0.10547286846E+02 0.10686900142E+02 0.10882129577E+02 0.11118904051E+02
 0.11382668865E+02 0.11660702532E+02 0.11943749835E+02 0.11268997373E+02 0.11578350786E+02
 0.11898993746E+02 0.12230121448E+02 0.12568252247E+02 0.12906257541E+02 0.13233097364E+02
 0.13534337237E+02 0.13793426454E+02 0.13993641988E+02 0.14120526491E+02 0.14162913488E+02
 0.14105900862E+02 0.13945041886E+02 0.13695510676E+02 0.13390629418E+02 0.13076595818E+02
 0.12804257019E+02 0.12619473835E+02 0.12554083506E+02 0.12619473628E+02 0.12804256518E+02
 0.13076594936E+02 0.13390628198E+02 0.13695509377E+02 0.13945040968E+02 0.14105900847E+02
 0.14162914727E+02 0.14120528988E+02 0.13993645288E+02 0.13793429708E+02 0.13534339465E+02
 0.13233097745E+02 0.12906255733E+02 0.12568248511E+02 0.12230116594E+02 0.11898988877E+02
 0.11578346942E+02 0.11268995215E+02 0.10970542403E+02 0.10683077943E+02 0.10408648286E+02
 0.10152150566E+02 0.99213886653E+01 0.97262528218E+01 0.95772193954E+01 0.94835415662E+01
 0.94515638054E+01 0.94835416609E+01 0.95772193541E+01 0.97262523261E+01 0.99213875218E+01
 0.10152148893E+02 0.10408646566E+02 0.10683076904E+02 0.10970542760E+02 0.10387153890E+02
 0.10732184122E+02 0.11097597855E+02 0.11480412650E+02 0.11874177157E+02 0.12268466550E+02
 0.12649133252E+02 0.12999333197E+02 0.13301239690E+02 0.13538268572E+02 0.13697471873E+02
 0.13765218581E+02 0.13728205222E+02 0.13590172634E+02 0.13373546693E+02 0.13116069660E+02
 0.12864196574E+02 0.12664398283E+02 0.12554083506E+02 0.12554083676E+02 0.12664398663E+02
 0.12864196851E+02 0.13116069530E+02 0.13373546072E+02 0.13590171779E+02 0.13728204696E+02
 0.13765219032E+02 0.13697473751E+02 0.13538271896E+02 0.13301243916E+02 0.12999337356E+02
 0.12649136233E+02 0.12268467468E+02 0.11874175669E+02 0.11480409074E+02 0.11097593067E+02
 0.10732179259E+02 0.10387149980E+02 0.10063134684E+02 0.97598751898E+01 0.94776935809E+01
 0.92186070084E+01 0.89868192463E+01 0.87884858945E+01 0.86308469948E+01 0.85209799179E+01
 0.84644977787E+01 0.84644978191E+01 0.85209799398E+01 0.86308467724E+01 0.87884852429E+01
 0.89868182074E+01 0.92186059347E+01 0.94776930804E+01 0.97598759090E+01 0.10063137030E+02
 0.95979442138E+01 0.99816118186E+01 0.10391750372E+02 0.10823217544E+02 0.11267019683E+02
 0.11710248739E+02 0.12136784544E+02 0.12528712823E+02 0.12868294398E+02 0.13140239517E+02
 0.13332706828E+02 0.13429875670E+02 0.13424126851E+02 0.13325592361E+02 0.13160783680E+02
 0.12967881645E+02 0.12789518435E+02 0.12664397936E+02 0.12619473628E+02 0.12664398663E+02
 0.12789519526E+02 0.12967882550E+02 0.13160783949E+02 0.13325591898E+02 0.13424126016E+02
 0.13429875181E+02 0.13332707467E+02 0.13140241820E+02 0.12868298374E+02 0.12528717874E+02
 0.12136789643E+02 0.11710252734E+02 0.11267021695E+02 0.10823217239E+02 0.10391748060E+02
 0.99816083031E+01 0.95979405034E+01 0.92427795818E+01 0.89162649641E+01 0.86180152059E+01
 0.83483325529E+01 0.81089612659E+01 0.79032554313E+01 0.77357797816E+01 0.76115131634E+01
 0.75349013386E+01 0.75090016632E+01 0.75349014167E+01 0.76115131890E+01 0.77357795957E+01
 0.79032549948E+01 0.81089607672E+01 0.83483324015E+01 0.86180158921E+01 0.89162668322E+01
 0.92427826143E+01 0.89089636405E+01 0.93309858945E+01 0.97832987227E+01 0.10258940649E+02
 0.10747054392E+02 0.11233205614E+02 0.11700427317E+02 0.12130867249E+02 0.12507809370E+02
 0.12817783434E+02 0.13048730724E+02 0.13185622697E+02 0.13226163377E+02 0.13184081010E+02
 0.13086371882E+02 0.12967881040E+02 0.12864195542E+02 0.12804256003E+02 0.12804256518E+02
 0.12864196851E+02 0.12967882550E+02 0.13086372901E+02 0.13184081079E+02 0.13226162497E+02
 0.13185621384E+02 0.13048729826E+02 0.12817783827E+02 0.12507811622E+02 0.12130871357E+02
 0.11700432704E+02 0.11233211285E+02 0.10747059269E+02 0.10258943904E+02 0.97833000138E+01
 0.93309854240E+01 0.89089620124E+01 0.85206855181E+01 0.81670462558E+01 0.78475955888E+01
 0.75617481400E+01 0.73096828858E+01 0.70927717129E+01 0.69135100170E+01 0.67750601642E+01
 0.66805989538E+01 0.66326666993E+01 0.66326667719E+01 0.66805991214E+01 0.67750603186E+01
 0.69135100810E+01 0.70927717308E+01 0.73096830499E+01 0.75617487216E+01 0.78475967898E+01
 0.81670480490E+01 0.85206875490E+01 0.83208579983E+01 0.87792750190E+01 0.92704724599E+01
 0.97862086123E+01 0.10314531068E+02 0.10840381255E+02 0.11346840005E+02 0.11816831109E+02
 0.12235016536E+02 0.12589503785E+02 0.12867557774E+02 0.13056612693E+02 0.13157394459E+02
 0.13184080538E+02 0.13160782568E+02 0.13116067986E+02 0.13076593940E+02 0.13061177121E+02
 0.13076594936E+02 0.13116069530E+02 0.13160783949E+02 0.13184081079E+02 0.13157393803E+02
 0.13056610984E+02 0.12867555629E+02 0.12589502097E+02 0.12235016188E+02 0.11816832644E+02
 0.11346843465E+02 0.10840386163E+02 0.10314536586E+02 0.97862138166E+01 0.92704766005E+01
 0.87792777046E+01 0.83208592365E+01 0.78998390920E+01 0.75178905583E+01 0.71747947684E+01
 0.68695819004E+01 0.66014886584E+01 0.63705428550E+01 0.61777143589E+01 0.60247005940E+01
 0.59134988163E+01 0.58459330561E+01 0.58232621496E+01 0.58459332420E+01 0.59134991388E+01
 0.60247009898E+01 0.61777147970E+01 0.63705433602E+01 0.66014892850E+01 0.68695826662E+01
 0.71747955680E+01 0.75178911146E+01 0.78998389805E+01 0.78303104291E+01 0.83230510373E+01
 0.88506609710E+01 0.94041987150E+01 0.99712961183E+01 0.10536932099E+02 0.11084736773E+02
 0.11598605534E+02 0.12064349606E+02 0.12470871119E+02 0.12805213841E+02 0.13056612495E+02
 0.13226162746E+02 0.13325591100E+02 0.13373544774E+02 0.13390627060E+02 0.13394220869E+02
 0.13394221314E+02 0.13390628198E+02 0.13373546072E+02 0.13325591898E+02 0.13226162497E+02
 0.13056610984E+02 0.12805211279E+02 0.12470868095E+02 0.12064346940E+02 0.11598604009E+02
 0.11084736927E+02 0.10536934077E+02 0.99712996489E+01 0.94042032138E+01 0.88506657077E+01
 0.83230553359E+01 0.78303138065E+01 0.73778184207E+01 0.69678400163E+01 0.66004245350E+01
 0.62744449580E+01 0.59885614713E+01 0.57418905111E+01 0.55342958961E+01 0.53663377820E+01
 0.52390034934E+01 0.51533697986E+01 0.51103118929E+01 0.51103119939E+01 0.51533700991E+01
 0.52390039814E+01 0.53663384355E+01 0.55342966706E+01 0.57418913230E+01 0.59885621743E+01
 0.62744453320E+01 0.66004242996E+01 0.69678388848E+01 0.73778161821E+01 0.74328879787E+01
 0.79589887973E+01 0.85223599934E+01 0.91138287667E+01 0.97210550188E+01 0.10329362328E+02
 0.10922985945E+02 0.11486504418E+02 0.12006198573E+02 0.12470871095E+02 0.12867557601E+02
 0.13185622201E+02 0.13424125840E+02 0.13590170998E+02 0.13695508477E+02 0.13752505366E+02
 0.13770374101E+02 0.13752505945E+02 0.13695509377E+02 0.13590171779E+02 0.13424126016E+02
 0.13185621384E+02 0.12867555629E+02 0.12470868095E+02 0.12006194971E+02 0.11486500828E+02
 0.10922983037E+02 0.10329360672E+02 0.97210549363E+01 0.91138302709E+01 0.85223627824E+01
 0.79589923390E+01 0.74328916408E+01 0.69497947120E+01 0.65122932611E+01 0.61205750354E+01
 0.57733848681E+01 0.54689621633E+01 0.52057520786E+01 0.49827845655E+01 0.47997309614E+01
 0.46567399148E+01 0.45541907367E+01 0.44924773225E+01 0.44718741429E+01 0.44924774767E+01
 0.45541910835E+01 0.46567404974E+01 0.47997317735E+01 0.49827855018E+01 0.52057529185E+01
 0.54689625950E+01 0.57733845651E+01 0.61205737524E+01 0.65122909322E+01 0.69497915105E+01
 0.71250684010E+01 0.76852999144E+01 0.82858667268E+01 0.89176147515E+01 0.95683704411E+01
 0.10223742883E+02 0.10868244596E+02 0.11486504459E+02 0.12064349643E+02 0.12589503742E+02
 0.13048730502E+02 0.13429875144E+02 0.13728204264E+02 0.13945040436E+02 0.14085068895E+02
 0.14153455044E+02 0.14153455196E+02 0.14085069305E+02 0.13945040968E+02 0.13728204696E+02
 0.13429875181E+02 0.13048729826E+02 0.12589502097E+02 0.12064346940E+02 0.11486500828E+02
 0.10868240425E+02 0.10223738757E+02 0.95683670088E+01 0.89176125659E+01 0.82858660825E+01
 0.76853007671E+01 0.71250703721E+01 0.66109864479E+01 0.61457182338E+01 0.57294291377E+01
 0.53606640267E+01 0.50372605696E+01 0.47570841129E+01 0.45184669310E+01 0.43203397460E+01
 0.41621374884E+01 0.40436083090E+01 0.39646419206E+01 0.39251762333E+01 0.39251762426E+01
 0.39646419967E+01 0.40436085642E+01 0.41621380156E+01 0.43203405292E+01 0.45184677930E+01
 0.47570847378E+01 0.50372605991E+01 0.53606631988E+01 0.57294274158E+01 0.61457158725E+01
 0.66109839584E+01 0.69051009783E+01 0.75019327037E+01 0.81427848956E+01 0.88185229772E+01
 0.95169931222E+01 0.10223742913E+02 0.10922986037E+02 0.11598605650E+02 0.12235016625E+02
 0.12817783468E+02 0.13332706782E+02 0.13765218395E+02 0.14105900445E+02 0.14350232776E+02
 0.14496811739E+02 0.14545623505E+02 0.14496811779E+02 0.14350232945E+02 0.14105900847E+02
 0.13765219032E+02 0.13332707467E+02 0.12817783827E+02 0.12235016188E+02 0.11598604009E+02
 0.10922983037E+02 0.10223738757E+02 0.95169883580E+01 0.88185183648E+01 0.81427811826E+01
 0.75019304005E+01 0.69051002105E+01 0.63580920679E+01 0.58635335140E+01 0.54214543095E+01
 0.50301244447E+01 0.46869481334E+01 0.43892196671E+01 0.41346134542E+01 0.39213775735E+01
 0.37482934760E+01 0.36145205796E+01 0.35194451599E+01 0.34626050328E+01 0.34436945724E+01
 0.34626048886E+01 0.35194450040E+01 0.36145205974E+01 0.37482937882E+01 0.39213781413E+01
 0.41346140592E+01 0.43892199897E+01 0.46869478970E+01 0.50301235755E+01 0.54214530263E+01
 0.58635323099E+01 0.63580915726E+01 0.67727797520E+01 0.74098257312E+01 0.80948472854E+01
 0.88185228731E+01 0.95683704138E+01 0.10329362431E+02 0.11084736948E+02 0.11816831292E+02
 0.12507809567E+02 0.13140239792E+02 0.13697472284E+02 0.14162914015E+02 0.14522566047E+02
 0.14766979089E+02 0.14890493289E+02 0.14890493189E+02 0.14766978926E+02 0.14522566149E+02
 0.14162914727E+02 0.13697473751E+02 0.13140241820E+02 0.12507811622E+02 0.11816832644E+02
 0.11084736927E+02 0.10329360672E+02 0.95683670088E+01 0.88185183648E+01 0.80948424955E+01
 0.74098215026E+01 0.67727766868E+01 0.61896021043E+01 0.56629215482E+01 0.51926367983E+01
 0.47767378781E+01 0.44121903675E+01 0.40957152262E+01 0.38243293516E+01 0.35956008528E+01
 0.34076623933E+01 0.32590879070E+01 0.31487517178E+01 0.30757540055E+01 0.30394338753E+01
 0.30394337029E+01 0.30757535738E+01 0.31487512384E+01 0.32590876071E+01 0.34076623929E+01
 0.35956010981E+01 0.38243296416E+01 0.40957153271E+01 0.44121901665E+01 0.47767374974E+01
 0.51926366112E+01 0.56629220723E+01 0.61896038007E+01 0.67285795275E+01 0.74098254136E+01
 0.81427845182E+01 0.89176145511E+01 0.97210550720E+01 0.10536932325E+02 0.11346840281E+02
 0.12130867546E+02 0.12868294830E+02 0.13538269309E+02 0.14120527640E+02 0.14596231347E+02
 0.14948710474E+02 0.15165265183E+02 0.15238291874E+02 0.15165264851E+02 0.14948710170E+02
 0.14596231626E+02 0.14120528988E+02 0.13538271896E+02 0.12868298374E+02 0.12130871357E+02
 0.11346843465E+02 0.10536934077E+02 0.97210549363E+01 0.89176125659E+01 0.81427811826E+01
 0.74098215026E+01 0.67285758337E+01 0.61052697720E+01 0.55426935799E+01 0.50407452510E+01
 0.45972276428E+01 0.42087352108E+01 0.38714582700E+01 0.35817735803E+01 0.33365640838E+01
 0.31332930937E+01 0.29699217918E+01 0.28447827852E+01 0.27565012771E+01 0.27040023632E+01
 0.26865844398E+01 0.27040019209E+01 0.27565005529E+01 0.28447820243E+01 0.29699212134E+01
 0.31332927982E+01 0.33365640290E+01 0.35817736382E+01 0.38714583404E+01 0.42087353277E+01
 0.45972280211E+01 0.50407462267E+01 0.55426954641E+01 0.61052726739E+01 0.67727790233E+01
 0.75019319729E+01 0.82858662927E+01 0.91138287516E+01 0.99712964256E+01 0.10840381691E+02