    2    2    1    1
  0.2002393E+02  0.3840297E-09  0.3840297E-09  0.3840297E-09  0.5000000E-15
  1.000000000000000E-004
  CAR 
 Name                                    
      8     16     24
 
  0.0000000E+00  0.0000000E+00  0.0000000E+00  0.4629630E-02
    1       -6.194361   1.000000
    2        5.797034   1.000000
    3        5.797034   1.000000
    4        5.797034   1.000000
    5        8.310299   0.000000
    6        8.310299   0.000000
    7        8.310299   0.000000
    8        9.119269   0.000000
    9       13.480889   0.000000
   10       13.480889   0.000000
   11       13.503102   0.000000
   12       16.887609   0.000000
   13       16.887609   0.000000
   14       16.887609   0.000000
   15       20.877884   0.000000
   16       28.794251   0.000000
   17       28.794251   0.000000
   18       28.794251   0.000000
   19       29.961398   0.000000
   20       29.961398   0.000000
   21       31.507490   0.000000
   22       31.507490   0.000000
   23       31.507490   0.000000
   24       34.990309   0.000000
 
  0.1666667E+00  0.0000000E+00  0.0000000E+00  0.3703704E-01
    1       -5.831714   1.000000
    2        3.396817   1.000000
    3        5.341433   1.000000
    4        5.341433   1.000000
    5        8.083908   0.000000
    6        8.961967   0.000000
    7        8.961967   0.000000
    8       11.200141   0.000000
    9       12.815929   0.000000
   10       12.815929   0.000000
   11       14.662627   0.000000
   12       16.263667   0.000000
   13       18.802496   0.000000
   14       18.802496   0.000000
   15       22.887880   0.000000
   16       25.671236   0.000000
   17       25.671236   0.000000
   18       26.285952   0.000000
   19       29.636364   0.000000
   20       29.636364   0.000000
   21       32.170458   0.000000
   22       32.170458   0.000000
   23       33.520034   0.000000
   24       35.318323   0.000000
 
  0.3333333E+00  0.0000000E+00  0.0000000E+00  0.3703704E-01
    1       -4.810427   1.000000
    2        0.429430   1.000000
    3        4.790337   1.000000
    4        4.790337   1.000000
    5        7.486526   0.000000
    6        9.241933   0.000000
    7        9.241933   0.000000
    8       13.501475   0.000000
    9       13.718639   0.000000
   10       13.718639   0.000000
   11       14.768932   0.000000
   12       19.252590   0.000000
   13       20.360902   0.000000
   14       20.360902   0.000000
   15       22.532205   0.000000
   16       23.334787   0.000000
   17       23.334787   0.000000
   18       27.453262   0.000000
   19       29.777634   0.000000
   20       29.777634   0.000000
   21       30.942128   0.000000
   22       32.560963   0.000000
   23       32.560963   0.000000
   24       35.071668   0.000000
 
  0.5000000E+00  0.0000000E+00  0.0000000E+00  0.1851852E-01
    1       -3.844177   1.000000
    2       -1.219945   1.000000
    3        4.592739   1.000000
    4        4.592739   1.000000
    5        7.259775   0.000000
    6        9.065362   0.000000
    7        9.065362   0.000000
    8       13.305002   0.000000
    9       16.303525   0.000000
   10       16.303525   0.000000
   11       17.016558   0.000000
   12       17.071275   0.000000
   13       17.071275   0.000000
   14       18.729842   0.000000
   15       25.066881   0.000000
   16       25.645368   0.000000
   17       27.305353   0.000000
   18       27.305353   0.000000
   19       27.548879   0.000000
   20       27.548879   0.000000
   21       31.279967   0.000000
   22       32.148080   0.000000
   23       32.148080   0.000000
   24       33.214422   0.000000
 
  0.1666667E+00  0.1666667E+00  0.0000000E+00  0.2777778E-01
    1       -5.708388   1.000000
    2        3.755868   1.000000
    3        4.588266   1.000000
    4        4.588266   1.000000
    5        7.417174   0.000000
    6       10.019161   0.000000
    7       10.105727   0.000000
    8       10.105727   0.000000
    9       12.347682   0.000000
   10       14.018826   0.000000
   11       15.337109   0.000000
   12       17.730197   0.000000
   13       17.730197   0.000000
   14       18.289216   0.000000
   15       23.971499   0.000000
   16       25.179530   0.000000
   17       25.179530   0.000000
   18       26.415901   0.000000
   19       27.650285   0.000000
   20       29.457267   0.000000
   21       32.399647   0.000000
   22       32.896782   0.000000
   23       32.896782   0.000000
   24       37.593797   0.000000
 
  0.3333333E+00  0.1666667E+00  0.0000000E+00  0.1111111E+00
    1       -4.889274   1.000000
    2        1.343063   1.000000
    3        3.778228   1.000000
    4        4.033306   1.000000
    5        7.673821   0.000000
    6        9.785276   0.000000
    7       10.248784   0.000000
    8       10.826258   0.000000
    9       14.819628   0.000000
   10       14.883092   0.000000
   11       16.035922   0.000000
   12       18.505306   0.000000
   13       19.464324   0.000000
   14       21.006035   0.000000
   15       21.696034   0.000000
   16       22.683834   0.000000
   17       25.567357   0.000000
   18       26.340736   0.000000
   19       27.445081   0.000000
   20       29.082583   0.000000
   21       31.281161   0.000000
   22       32.185219   0.000000
   23       33.181074   0.000000
   24       35.277173   0.000000
 
  0.5000000E+00  0.1666667E+00  0.0000000E+00  0.1111111E+00
    1       -3.687034   1.000000
    2       -0.843789   1.000000
    3        2.987326   1.000000
    4        4.005953   1.000000
    5        7.743847   0.000000
    6        9.845517   0.000000
    7       10.357706   0.000000
    8       12.136250   0.000000
    9       15.070883   0.000000
   10       16.221107   0.000000
   11       17.451332   0.000000
   12       17.576097   0.000000
   13       18.401989   0.000000
   14       21.843186   0.000000
   15       23.668635   0.000000
   16       24.702195   0.000000
   17       25.838847   0.000000
   18       26.317353   0.000000
   19       26.832625   0.000000
   20       28.483666   0.000000
   21       29.715127   0.000000
   22       31.937087   0.000000
   23       32.687763   0.000000
   24       32.912010   0.000000
 
 -0.3333333E+00  0.1666667E+00  0.0000000E+00  0.1111111E+00
    1       -4.076447   1.000000
    2       -0.238584   1.000000
    3        2.711257   1.000000
    4        4.490852   1.000000
    5        8.167405   0.000000
    6        9.842571   0.000000
    7        9.965670   0.000000
    8       13.000427   0.000000
    9       13.056683   0.000000
   10       15.089356   0.000000
   11       17.127427   0.000000
   12       18.548935   0.000000
   13       20.574064   0.000000
   14       21.149049   0.000000
   15       22.024208   0.000000
   16       23.612191   0.000000
   17       25.684970   0.000000
   18       27.704836   0.000000
   19       27.754997   0.000000
   20       28.667405   0.000000
   21       30.497423   0.000000
   22       30.556461   0.000000
   23       33.038973   0.000000
   24       33.360013   0.000000
 
 -0.1666667E+00  0.1666667E+00  0.0000000E+00  0.5555556E-01
    1       -5.240805   1.000000
    2        2.066614   1.000000
    3        3.344691   1.000000
    4        5.230727   1.000000
    5        8.783100   0.000000
    6        9.305664   0.000000
    7        9.576461   0.000000
    8       11.374512   0.000000
    9       11.818125   0.000000
   10       15.141800   0.000000
   11       16.096910   0.000000
   12       17.144231   0.000000
   13       19.042135   0.000000
   14       21.296920   0.000000
   15       21.740932   0.000000
   16       24.398852   0.000000
   17       26.142401   0.000000
   18       26.446535   0.000000
   19       26.781869   0.000000
   20       28.260829   0.000000
   21       32.338583   0.000000
   22       32.544437   0.000000
   23       34.150696   0.000000
   24       35.156465   0.000000
 
  0.3333333E+00  0.3333333E+00  0.0000000E+00  0.2777778E-01
    1       -4.282563   1.000000
    2        0.781729   1.000000
    3        3.357180   1.000000
    4        3.357180   1.000000
    5        6.412346   0.000000
    6        7.663855   0.000000
    7       13.021156   0.000000
    8       13.021156   0.000000
    9       15.587048   0.000000
   10       15.627143   0.000000
   11       18.700300   0.000000
   12       19.214459   0.000000
   13       19.214459   0.000000
   14       20.729007   0.000000
   15       21.941891   0.000000
   16       22.048474   0.000000
   17       22.048474   0.000000
   18       24.850579   0.000000
   19       28.622683   0.000000
   20       30.290654   0.000000
   21       31.176744   0.000000
   22       31.176744   0.000000
   23       32.298697   0.000000
   24       33.311114   0.000000
 
  0.5000000E+00  0.3333333E+00  0.0000000E+00  0.1111111E+00
    1       -3.111802   1.000000
    2       -0.777078   1.000000
    3        2.113655   1.000000
    4        3.221000   1.000000
    5        6.741913   0.000000
    6        8.414431   0.000000
    7       13.196727   0.000000
    8       13.223438   0.000000
    9       16.349727   0.000000
   10       16.446594   0.000000
   11       18.079758   0.000000
   12       18.628665   0.000000
   13       20.328954   0.000000
   14       21.512662   0.000000
   15       21.704594   0.000000
   16       24.287848   0.000000
   17       24.476575   0.000000
   18       25.122113   0.000000
   19       26.318941   0.000000
   20       28.406188   0.000000
   21       28.890240   0.000000
   22       29.444583   0.000000
   23       30.097406   0.000000
   24       32.348483   0.000000
 
 -0.3333333E+00  0.3333333E+00  0.0000000E+00  0.5555556E-01
    1       -2.909803   1.000000
    2       -0.986984   1.000000
    3        1.318964   1.000000
    4        3.667420   1.000000
    5        7.252193   0.000000
    6       11.502528   0.000000
    7       12.224977   0.000000
    8       12.817895   0.000000
    9       13.159743   0.000000
   10       13.394179   0.000000
   11       20.008680   0.000000
   12       20.558566   0.000000
   13       21.455837   0.000000
   14       21.472800   0.000000
   15       22.382153   0.000000
   16       23.334273   0.000000
   17       24.161096   0.000000
   18       25.568456   0.000000
   19       27.941819   0.000000
   20       28.272654   0.000000
   21       28.561721   0.000000
   22       29.642495   0.000000
   23       32.251125   0.000000
   24       32.504724   0.000000
 
  0.5000000E+00  0.5000000E+00  0.0000000E+00  0.1388889E-01
    1       -2.033228   1.000000
    2       -2.033228   1.000000
    3        2.920967   1.000000
    4        2.920967   1.000000
    5        6.381674   0.000000
    6        6.381674   0.000000
    7       15.857860   0.000000
    8       15.857860   0.000000
    9       16.728220   0.000000
   10       16.728220   0.000000
   11       18.285676   0.000000
   12       18.285676   0.000000
   13       18.753507   0.000000
   14       18.753507   0.000000
   15       24.494435   0.000000
   16       24.494435   0.000000
   17       25.350371   0.000000
   18       25.350371   0.000000
   19       25.911265   0.000000
   20       25.911265   0.000000
   21       27.172357   0.000000
   22       27.172357   0.000000
   23       31.215399   0.000000
   24       31.215399   0.000000
 
  0.5000000E+00  0.3333333E+00  0.1666667E+00  0.1111111E+00
    1       -3.893825   1.000000
    2        0.144633   1.000000
    3        2.176311   1.000000
    4        3.471050   1.000000
    5        8.568891   0.000000
    6        9.402336   0.000000
    7        9.973148   0.000000
    8       12.815864   0.000000
    9       14.741500   0.000000
   10       15.627359   0.000000
   11       18.750743   0.000000
   12       18.910718   0.000000
   13       19.548164   0.000000
   14       20.629170   0.000000
   15       22.272675   0.000000
   16       23.586499   0.000000
   17       25.278893   0.000000
   18       26.695230   0.000000
   19       26.704362   0.000000
   20       28.368642   0.000000
   21       29.922082   0.000000
   22       30.193252   0.000000
   23       32.264673   0.000000
   24       33.243384   0.000000
 
 -0.3333333E+00  0.3333333E+00  0.1666667E+00  0.1111111E+00
    1       -2.899175   1.000000
    2       -1.064663   1.000000
    3        1.733187   1.000000
    4        2.996042   1.000000
    5        9.052213   0.000000
    6        9.283289   0.000000
    7       11.812566   0.000000
    8       12.250582   0.000000
    9       13.303213   0.000000
   10       16.842483   0.000000
   11       17.687239   0.000000
   12       19.118526   0.000000
   13       21.984511   0.000000
   14       22.583480   0.000000
   15       22.714028   0.000000
   16       23.657138   0.000000
   17       24.232300   0.000000
   18       26.229563   0.000000
   19       26.612171   0.000000
   20       27.368857   0.000000
   21       28.740387   0.000000
   22       31.308773   0.000000
   23       31.409998   0.000000
   24       31.595483   0.000000
 
 -0.3333333E+00  0.5000000E+00  0.1666667E+00  0.5555556E-01
    1       -1.908870   1.000000
    2       -1.908870   1.000000
    3        2.099812   1.000000
    4        2.099812   1.000000
    5        8.449224   0.000000
    6        8.449224   0.000000
    7       12.494248   0.000000
    8       12.494248   0.000000
    9       16.323864   0.000000
   10       16.323864   0.000000
   11       18.696159   0.000000
   12       18.696159   0.000000
   13       22.164991   0.000000
   14       22.164991   0.000000
   15       22.937333   0.000000
   16       22.937333   0.000000
   17       24.482116   0.000000
   18       24.482116   0.000000
   19       27.170674   0.000000
   20       27.170674   0.000000
   21       28.959570   0.000000
   22       28.959570   0.000000
   23       30.475574   0.000000
   24       30.475574   0.000000
