       N       E                     dE             d eps       ncg     rms          rms(c)
DAV:   1    -0.464930989936E+01   -0.46493E+01   -0.34011E+03   768   0.254E+02
DAV:   2    -0.116720053130E+02   -0.70227E+01   -0.70139E+01  1152   0.252E+01
DAV:   3    -0.116959347893E+02   -0.23929E-01   -0.23929E-01   768   0.179E+00
DAV:   4    -0.116959683107E+02   -0.33521E-04   -0.33521E-04  1440   0.731E-02
DAV:   5    -0.116959683111E+02   -0.36451E-09   -0.36404E-09   768   0.190E-04    0.498E+00
DAV:   6    -0.115387383182E+02    0.15723E+00   -0.10004E-01  1128   0.534E-01    0.299E+00
DAV:   7    -0.114671269716E+02    0.71611E-01   -0.17148E-01  1128   0.732E-01    0.189E-01
DAV:   8    -0.114674454304E+02   -0.31846E-03   -0.21472E-03   816   0.134E-01    0.598E-02
DAV:   9    -0.114675071807E+02   -0.61750E-04   -0.55899E-05  1248   0.224E-02    0.473E-02
DAV:  10    -0.114675145711E+02   -0.73904E-05   -0.50290E-06   912   0.637E-03    0.348E-03
DAV:  11    -0.114675146161E+02   -0.44983E-07   -0.34687E-07  1200   0.137E-03
   1 F= -.11467515E+02 E0= -.11467515E+02  d E =-.438313-100
