 running on   24 total cores
 distrk:  each k-point on   24 cores,    1 groups
 distr:  one band on    1 cores,   24 groups
 using from now: INCAR     
 vasp.5.4.1 24Jun15 (build Nov 25 2015 16:01:35) complex                        
  
 POSCAR found type information on POSCAR  Si
 POSCAR found :  1 types and       2 ions
 scaLAPACK will be used

 ----------------------------------------------------------------------------- 
|                                                                             |
|           W    W    AA    RRRRR   N    N  II  N    N   GGGG   !!!           |
|           W    W   A  A   R    R  NN   N  II  NN   N  G    G  !!!           |
|           W    W  A    A  R    R  N N  N  II  N N  N  G       !!!           |
|           W WW W  AAAAAA  RRRRR   N  N N  II  N  N N  G  GGG   !            |
|           WW  WW  A    A  R   R   N   NN  II  N   NN  G    G                |
|           W    W  A    A  R    R  N    N  II  N    N   GGGG   !!!           |
|                                                                             |
|      For optimal performance we recommend to set                            |
|        NCORE= 4 - approx SQRT( number of cores)                             |
|      NCORE specifies how many cores store one orbital (NPAR=cpu/NCORE).     |
|      This setting can  greatly improve the performance of VASP for DFT.     |
|      The default, NPAR=number of cores might be grossly inefficient         |
|      on modern multi-core architectures or massively parallel machines.     |
|      Do your own testing !!!!                                               |
|      Unfortunately you need to use the default for GW and RPA calculations. |
|      (for HF NCORE is supported but not extensively tested yet)             |
|                                                                             |
 ----------------------------------------------------------------------------- 


 ----------------------------------------------------------------------------- 
|                                                                             |
|  ADVICE TO THIS USER RUNNING 'VASP/VAMP'   (HEAR YOUR MASTER'S VOICE ...):  |
|                                                                             |
|      You enforced a specific xc-type in the INCAR file,                     |
|      a different type was found on the POTCAR file                          |
|          I HOPE YOU KNOW, WHAT YOU ARE  DOING                               |
|                                                                             |
 ----------------------------------------------------------------------------- 

 LDA part: xc-table for Pade appr. of Perdew
 POSCAR, INCAR and KPOINTS ok, starting setup
 WARNING: small aliasing (wrap around) errors must be expected
 FFT: planning ...
 WAVECAR not read
 WARNING: random wavefunctions but no delay for mixing, default for NELMDL
 entering main loop
       N       E                     dE             d eps       ncg     rms          rms(c)
DAV:   1    -0.464930989936E+01   -0.46493E+01   -0.34011E+03   768   0.254E+02
DAV:   2    -0.116720053130E+02   -0.70227E+01   -0.70139E+01  1152   0.252E+01
DAV:   3    -0.116959347893E+02   -0.23929E-01   -0.23929E-01   768   0.179E+00
DAV:   4    -0.116959683107E+02   -0.33521E-04   -0.33521E-04  1440   0.731E-02
DAV:   5    -0.116959683111E+02   -0.36451E-09   -0.36404E-09   768   0.190E-04    0.498E+00
DAV:   6    -0.115387383182E+02    0.15723E+00   -0.10004E-01  1128   0.534E-01    0.299E+00
DAV:   7    -0.114671269716E+02    0.71611E-01   -0.17148E-01  1128   0.732E-01    0.189E-01
DAV:   8    -0.114674454304E+02   -0.31846E-03   -0.21472E-03   816   0.134E-01    0.598E-02
DAV:   9    -0.114675071807E+02   -0.61750E-04   -0.55899E-05  1248   0.224E-02    0.473E-02
DAV:  10    -0.114675145711E+02   -0.73904E-05   -0.50290E-06   912   0.637E-03    0.348E-03
DAV:  11    -0.114675146161E+02   -0.44983E-07   -0.34687E-07  1200   0.137E-03
   1 F= -.11467515E+02 E0= -.11467515E+02  d E =-.438313-100
 writing wavefunctions
Application 20764465 resources: utime ~144s, stime ~5s, Rss ~19452, inblocks ~138547, outblocks ~210976
