       N       E                     dE             d eps       ncg     rms          rms(c)
DAV:   1     0.356466567243E+04    0.35647E+04   -0.18905E+05  7176   0.170E+03
DAV:   2     0.200274121030E+03   -0.33644E+04   -0.31535E+04  8016   0.352E+02
DAV:   3    -0.392519045496E+03   -0.59279E+03   -0.58401E+03  9480   0.171E+02
DAV:   4    -0.433132013780E+03   -0.40613E+02   -0.40422E+02  9680   0.489E+01
DAV:   5    -0.434634575744E+03   -0.15026E+01   -0.14994E+01  9744   0.915E+00    0.276E+01
DAV:   6    -0.415796602419E+03    0.18838E+02   -0.36742E+01  9904   0.104E+01    0.147E+01
DAV:   7    -0.413508979010E+03    0.22876E+01   -0.15699E+01 10136   0.692E+00    0.739E+00
DAV:   8    -0.413316291557E+03    0.19269E+00   -0.32847E+00  8768   0.341E+00    0.179E+00
DAV:   9    -0.413257526670E+03    0.58765E-01   -0.65503E-01  9304   0.174E+00    0.679E-01
DAV:  10    -0.413271543723E+03   -0.14017E-01   -0.12825E-01  8408   0.645E-01    0.543E-01
DAV:  11    -0.413269367474E+03    0.21762E-02   -0.17959E-02  9696   0.336E-01    0.268E-01
DAV:  12    -0.413270819926E+03   -0.14525E-02   -0.14838E-02  9736   0.200E-01    0.122E-01
DAV:  13    -0.413271204600E+03   -0.38467E-03   -0.23894E-03  8400   0.101E-01    0.979E-02
DAV:  14    -0.413271262412E+03   -0.57812E-04   -0.33587E-04  8920   0.380E-02    0.641E-02
DAV:  15    -0.413271303909E+03   -0.41497E-04   -0.48082E-04  8464   0.377E-02    0.156E-02
DAV:  16    -0.413271319862E+03   -0.15953E-04   -0.69057E-05 10152   0.173E-02    0.240E-02
DAV:  17    -0.413271317698E+03    0.21639E-05   -0.61923E-06  8800   0.529E-03    0.131E-02
DAV:  18    -0.413271317720E+03   -0.21744E-07   -0.31216E-05  9584   0.940E-03    0.665E-03
DAV:  19    -0.413271318055E+03   -0.33502E-06   -0.39911E-06  8712   0.474E-03    0.506E-03
DAV:  20    -0.413271318016E+03    0.38985E-07   -0.45752E-07 10064   0.123E-03    0.252E-03
DAV:  21    -0.413271318091E+03   -0.74837E-07   -0.28980E-07  9488   0.963E-04    0.734E-04
DAV:  22    -0.413271318090E+03    0.94951E-09   -0.77176E-08 10416   0.493E-04    0.773E-04
DAV:  23    -0.413271318076E+03    0.13944E-07   -0.36320E-09  7920   0.184E-04    0.499E-04
DAV:  24    -0.413271318048E+03    0.28282E-07   -0.60340E-09  9344   0.199E-04    0.244E-04
DAV:  25    -0.413271318049E+03   -0.19063E-08    0.78728E-10  8352   0.840E-05    0.296E-04
DAV:  26    -0.413271318055E+03   -0.59808E-08    0.12173E-09  6864   0.685E-05    0.221E-04
DAV:  27    -0.413271318057E+03   -0.16553E-08    0.20599E-09  5560   0.351E-05    0.206E-04
DAV:  28    -0.413271318058E+03   -0.13788E-08    0.19970E-09  4688   0.350E-05    0.202E-04
DAV:  29    -0.413271318061E+03   -0.20700E-08    0.18646E-09  4328   0.279E-05    0.198E-04
DAV:  30    -0.413271318062E+03   -0.10477E-08    0.20388E-09  4264   0.234E-05    0.198E-04
DAV:  31    -0.413271318061E+03    0.45839E-09    0.17492E-09  4256   0.156E-05    0.198E-04
DAV:  32    -0.413271318060E+03    0.60390E-09    0.14306E-09  4256   0.118E-05    0.198E-04
DAV:  33    -0.413271318061E+03   -0.20373E-09    0.11117E-09  4256   0.107E-05    0.198E-04
DAV:  34    -0.413271318061E+03   -0.12005E-09    0.13114E-09  4256   0.986E-06    0.198E-04
DAV:  35    -0.413271318061E+03    0.25102E-09    0.11642E-09  4256   0.473E-06    0.198E-04
DAV:  36    -0.413271318060E+03    0.12733E-09    0.11187E-09  4256   0.456E-06    0.198E-04
DAV:  37    -0.413271318061E+03   -0.26557E-09    0.11312E-09  4256   0.267E-06    0.198E-04
DAV:  38    -0.413271318061E+03   -0.13824E-09    0.10589E-09  4256   0.433E-06    0.198E-04
DAV:  39    -0.413271318060E+03    0.34561E-09    0.11501E-09  4248   0.706E-06    0.198E-04
DAV:  40    -0.413271318061E+03   -0.17462E-09    0.14275E-09  4208   0.121E-05    0.198E-04
DAV:  41    -0.413271318061E+03   -0.15280E-09    0.89274E-10  4136   0.645E-06    0.198E-04
DAV:  42    -0.413271318061E+03    0.72760E-10    0.12877E-09  4096   0.181E-06    0.198E-04
DAV:  43    -0.413271318061E+03    0.12005E-09    0.12866E-09  4048   0.195E-06    0.198E-04
DAV:  44    -0.413271318060E+03    0.24011E-09    0.12363E-09  4008   0.294E-06    0.198E-04
DAV:  45    -0.413271318061E+03   -0.50932E-09    0.10810E-09  3992   0.510E-06    0.198E-04
DAV:  46    -0.413271318060E+03    0.52387E-09    0.93448E-10  3992   0.120E-06    0.198E-04
DAV:  47    -0.413271318061E+03   -0.36380E-09    0.92366E-10  3992   0.736E-07    0.198E-04
DAV:  48    -0.413271318061E+03    0.10914E-10    0.79899E-10  3992   0.445E-07
   1 F= -.41327132E+03 E0= -.41327132E+03  d E =0.000000E+00
