 vasp.5.4.1 24Jun15 (build Nov 25 2015 16:01:35) complex                        
  
 executed on         CrayXC-Intel date 2016.07.12  03:58:45
 running on   96 total cores
 distrk:  each k-point on   24 cores,    4 groups
 distr:  one band on NCORES_PER_BAND=   3 cores,    8 groups


--------------------------------------------------------------------------------------------------------


 INCAR:
 POTCAR:    PAW_PBE C 08Apr2002                   
 POTCAR:    PAW_PBE N 08Apr2002                   
 POTCAR:    PAW_PBE H 15Jun2001                   
 POTCAR:    PAW_PBE Pb_d 06Sep2000                
 POTCAR:    PAW_PBE I 08Apr2002                   

 ----------------------------------------------------------------------------- 
|                                                                             |
|           W    W    AA    RRRRR   N    N  II  N    N   GGGG   !!!           |
|           W    W   A  A   R    R  NN   N  II  NN   N  G    G  !!!           |
|           W    W  A    A  R    R  N N  N  II  N N  N  G       !!!           |
|           W WW W  AAAAAA  RRRRR   N  N N  II  N  N N  G  GGG   !            |
|           WW  WW  A    A  R   R   N   NN  II  N   NN  G    G                |
|           W    W  A    A  R    R  N    N  II  N    N   GGGG   !!!           |
|                                                                             |
|      For optimal performance we recommend to set                            |
|        NCORE= 4 - approx SQRT( number of cores)                             |
|      NCORE specifies how many cores store one orbital (NPAR=cpu/NCORE).     |
|      This setting can  greatly improve the performance of VASP for DFT.     |
|      The default, NPAR=number of cores might be grossly inefficient         |
|      on modern multi-core architectures or massively parallel machines.     |
|      Do your own testing !!!!                                               |
|      Unfortunately you need to use the default for GW and RPA calculations. |
|      (for HF NCORE is supported but not extensively tested yet)             |
|                                                                             |
 ----------------------------------------------------------------------------- 


 ----------------------------------------------------------------------------- 
|                                                                             |
|           W    W    AA    RRRRR   N    N  II  N    N   GGGG   !!!           |
|           W    W   A  A   R    R  NN   N  II  NN   N  G    G  !!!           |
|           W    W  A    A  R    R  N N  N  II  N N  N  G       !!!           |
|           W WW W  AAAAAA  RRRRR   N  N N  II  N  N N  G  GGG   !            |
|           WW  WW  A    A  R   R   N   NN  II  N   NN  G    G                |
|           W    W  A    A  R    R  N    N  II  N    N   GGGG   !!!           |
|                                                                             |
|      You have enabled k-point parallelism (KPAR>1).                         |
|      This developmental code was originally  written by Paul Kent at ORNL,  |
|      and carefully double checked in Vienna.                                |
|      GW as well as linear response parallelism added by Martijn Marsman     |
|      and Georg Kresse.                                                      |
|      Carefully verify results versus KPAR=1.                                |
|      Report problems to Paul Kent and Vienna.                               |
|                                                                             |
 ----------------------------------------------------------------------------- 

 POTCAR:    PAW_PBE C 08Apr2002                   
   VRHFIN =C: s2p2                                                              
   LEXCH  = PE                                                                  
   EATOM  =   147.1560 eV,   10.8157 Ry                                         
                                                                                
   TITEL  = PAW_PBE C 08Apr2002                                                 
   LULTRA =        F    use ultrasoft PP ?                                      
   IUNSCR =        1    unscreen: 0-lin 1-nonlin 2-no                           
   RPACOR =    1.200    partial core radius                                     
   POMASS =   12.011; ZVAL   =    4.000    mass and valenz                      
   RCORE  =    1.500    outmost cutoff radius                                   
   RWIGS  =    1.630; RWIGS  =    0.863    wigner-seitz radius (au A)           
   ENMAX  =  400.000; ENMIN  =  300.000 eV                                      
   ICORE  =        2    local potential                                         
   LCOR   =        T    correct aug charges                                     
   LPAW   =        T    paw PP                                                  
   EAUG   =  644.873                                                            
   DEXC   =    0.000                                                            
   RMAX   =    1.529    core radius for proj-oper                               
   RAUG   =    1.300    factor for augmentation sphere                          
   RDEP   =    1.501    radius for radial grids                                 
   RDEPT  =    1.300    core radius for aug-charge                              
                                                                                
   Atomic configuration                                                         
    4 entries                                                                   
     n  l   j            E        occ.                                          
     1  0  0.50      -273.3789   2.0000                                         
     2  0  0.50       -13.7508   2.0000                                         
     2  1  0.50        -5.2854   2.0000                                         
     3  2  1.50        -5.4423   0.0000                                         
   Description                                                                  
     l       E           TYP  RCUT    TYP  RCUT                                 
     0    -13.7508458     23  1.200                                             
     0     -8.2022199     23  1.200                                             
     1     -5.2854383     23  1.500                                             
     1     34.0145650     23  1.500                                             
     2     -5.4423304      7  1.500                                             
  local pseudopotential read in
  partial core-charges read in
  partial kinetic energy density read in
  atomic valenz-charges read in
  non local Contribution for L=           0  read in
    real space projection operators read in
  non local Contribution for L=           0  read in
    real space projection operators read in
  non local Contribution for L=           1  read in
    real space projection operators read in
  non local Contribution for L=           1  read in
    real space projection operators read in
    PAW grid and wavefunctions read in
 
   number of l-projection  operators is LMAX  =           4
   number of lm-projection operators is LMMAX =           8
 
 POTCAR:    PAW_PBE N 08Apr2002                   
   VRHFIN =N: s2p3                                                              
   LEXCH  = PE                                                                  
   EATOM  =   264.5486 eV,   19.4438 Ry                                         
                                                                                
   TITEL  = PAW_PBE N 08Apr2002                                                 
   LULTRA =        F    use ultrasoft PP ?                                      
   IUNSCR =        1    unscreen: 0-lin 1-nonlin 2-no                           
   RPACOR =    1.200    partial core radius                                     
   POMASS =   14.001; ZVAL   =    5.000    mass and valenz                      
   RCORE  =    1.500    outmost cutoff radius                                   
   RWIGS  =    1.400; RWIGS  =    0.741    wigner-seitz radius (au A)           
   ENMAX  =  400.000; ENMIN  =  300.000 eV                                      
   ICORE  =        2    local potential                                         
   LCOR   =        T    correct aug charges                                     
   LPAW   =        T    paw PP                                                  
   EAUG   =  627.112                                                            
   DEXC   =    0.000                                                            
   RMAX   =    1.529    core radius for proj-oper                               
   RAUG   =    1.300    factor for augmentation sphere                          
   RDEP   =    1.514    radius for radial grids                                 
   RDEPT  =    1.338    core radius for aug-charge                              
                                                                                
   Atomic configuration                                                         
    4 entries                                                                   
     n  l   j            E        occ.                                          
     1  0  0.50      -384.7179   2.0000                                         
     2  0  0.50       -18.5828   2.0000                                         
     2  1  0.50        -7.0898   3.0000                                         
     3  2  1.50        -6.8029   0.0000                                         
   Description                                                                  
     l       E           TYP  RCUT    TYP  RCUT                                 
     0    -18.5828119     23  1.200                                             
     0    -13.5018863     23  1.200                                             
     1     -7.0897853     23  1.500                                             
     1      9.5240782     23  1.500                                             
     2     -6.8029130      7  1.500                                             
  local pseudopotential read in
  partial core-charges read in
  partial kinetic energy density read in
  atomic valenz-charges read in
  non local Contribution for L=           0  read in
    real space projection operators read in
  non local Contribution for L=           0  read in
    real space projection operators read in
  non local Contribution for L=           1  read in
    real space projection operators read in
  non local Contribution for L=           1  read in
    real space projection operators read in
    PAW grid and wavefunctions read in
 
   number of l-projection  operators is LMAX  =           4
   number of lm-projection operators is LMMAX =           8
 
 POTCAR:    PAW_PBE H 15Jun2001                   
   VRHFIN =H: ultrasoft test                                                    
   LEXCH  = PE                                                                  
   EATOM  =    12.4884 eV,    0.9179 Ry                                         
                                                                                
   TITEL  = PAW_PBE H 15Jun2001                                                 
   LULTRA =        F    use ultrasoft PP ?                                      
   IUNSCR =        0    unscreen: 0-lin 1-nonlin 2-no                           
   RPACOR =    0.000    partial core radius                                     
   POMASS =    1.000; ZVAL   =    1.000    mass and valenz                      
   RCORE  =    1.100    outmost cutoff radius                                   
   RWIGS  =    0.700; RWIGS  =    0.370    wigner-seitz radius (au A)           
   ENMAX  =  250.000; ENMIN  =  200.000 eV                                      
   RCLOC  =    0.701    cutoff for local pot                                    
   LCOR   =        T    correct aug charges                                     
   LPAW   =        T    paw PP                                                  
   EAUG   =  400.000                                                            
   RMAX   =    1.123    core radius for proj-oper                               
   RAUG   =    1.200    factor for augmentation sphere                          
   RDEP   =    1.112    radius for radial grids                                 
   RDEPT  =    0.926    core radius for aug-charge                              
                                                                                
   Atomic configuration                                                         
    2 entries                                                                   
     n  l   j            E        occ.                                          
     1  0  0.50        -6.4927   1.0000                                         
     2  1  0.50        -3.4015   0.0000                                         
   Description                                                                  
     l       E           TYP  RCUT    TYP  RCUT                                 
     0     -6.4927494     23  1.100                                             
     0      6.8029130     23  1.100                                             
     1     -4.0817478     23  1.100                                             
  local pseudopotential read in
  atomic valenz-charges read in
  non local Contribution for L=           0  read in
    real space projection operators read in
  non local Contribution for L=           0  read in
    real space projection operators read in
  non local Contribution for L=           1  read in
    real space projection operators read in
    PAW grid and wavefunctions read in
 
   number of l-projection  operators is LMAX  =           3
   number of lm-projection operators is LMMAX =           5
 
 POTCAR:    PAW_PBE Pb_d 06Sep2000                
   VRHFIN =Pb:                                                                  
   LEXCH  = PE                                                                  
   EATOM  =  1661.6185 eV,  122.1255 Ry                                         
                                                                                
   TITEL  = PAW_PBE Pb_d 06Sep2000                                              
   LULTRA =        F    use ultrasoft PP ?                                      
   IUNSCR =        1    unscreen: 0-lin 1-nonlin 2-no                           
   RPACOR =    2.200    partial core radius                                     
   POMASS =  207.200; ZVAL   =   14.000    mass and valenz                      
   RCORE  =    2.500    outmost cutoff radius                                   
   RWIGS  =    3.260; RWIGS  =    1.725    wigner-seitz radius (au A)           
   ENMAX  =  237.835; ENMIN  =  178.376 eV                                      
   ICORE  =        3    local potential                                         
   LCOR   =        T    correct aug charges                                     
   LPAW   =        T    paw PP                                                  
   EAUG   =  391.914                                                            
   DEXC   =    0.000                                                            
   RMAX   =    2.565    core radius for proj-oper                               
   RAUG   =    1.300    factor for augmentation sphere                          
   RDEP   =    2.643    radius for radial grids                                 
   RDEPT  =    2.092    core radius for aug-charge                              
                                                                                
   Atomic configuration                                                         
   16 entries                                                                   
     n  l   j            E        occ.                                          
     1  0  0.50    -88091.8466   2.0000                                         
     2  0  0.50    -15753.4197   2.0000                                         
     2  1  1.50    -13508.1797   6.0000                                         
     3  0  0.50     -3781.7194   2.0000                                         
     3  1  1.50     -3138.2529   6.0000                                         
     3  2  2.50     -2483.2977  10.0000                                         
     4  0  0.50      -856.2895   2.0000                                         
     4  1  1.50      -645.4942   6.0000                                         
     4  2  2.50      -401.8768  10.0000                                         
     4  3  3.50      -132.9059  14.0000                                         
     5  0  0.50      -144.0950   2.0000                                         
     5  1  1.50       -85.7879   6.0000                                         
     5  2  2.50       -21.1769  10.0000                                         
     6  0  0.50       -12.0372   2.0000                                         
     6  1  1.50        -3.4971   2.0000                                         
     5  3  2.50        -2.7212   0.0000                                         
   Description                                                                  
     l       E           TYP  RCUT    TYP  RCUT                                 
     2    -21.1768523     23  2.500                                             
     2      1.3605826     23  2.500                                             
     0    -12.0371562     23  2.500                                             
     0     13.6058260     23  2.500                                             
     1     -3.4971339     23  2.500                                             
     1     13.6058260     23  2.500                                             
     3     -1.3605826      7  2.500                                             
  local pseudopotential read in
  partial core-charges read in
  partial kinetic energy density read in
  atomic valenz-charges read in
  non local Contribution for L=           2  read in
    real space projection operators read in
  non local Contribution for L=           2  read in
    real space projection operators read in
  non local Contribution for L=           0  read in
    real space projection operators read in
  non local Contribution for L=           0  read in
    real space projection operators read in
  non local Contribution for L=           1  read in
    real space projection operators read in
  non local Contribution for L=           1  read in
    real space projection operators read in
    PAW grid and wavefunctions read in
 
   number of l-projection  operators is LMAX  =           6
   number of lm-projection operators is LMMAX =          18
 
 POTCAR:    PAW_PBE I 08Apr2002                   
   VRHFIN =I : s2p5                                                             
   LEXCH  = PE                                                                  
   EATOM  =   315.8678 eV,   23.2156 Ry                                         
                                                                                
   TITEL  = PAW_PBE I 08Apr2002                                                 
   LULTRA =        F    use ultrasoft PP ?                                      
   IUNSCR =        1    unscreen: 0-lin 1-nonlin 2-no                           
   RPACOR =    2.200    partial core radius                                     
   POMASS =  126.904; ZVAL   =    7.000    mass and valenz                      
   RCORE  =    2.300    outmost cutoff radius                                   
   RWIGS  =    2.810; RWIGS  =    1.487    wigner-seitz radius (au A)           
   ENMAX  =  175.647; ENMIN  =  131.735 eV                                      
   ICORE  =        3    local potential                                         
   LCOR   =        T    correct aug charges                                     
   LPAW   =        T    paw PP                                                  
   EAUG   =  370.139                                                            
   DEXC   =    0.000                                                            
   RMAX   =    2.359    core radius for proj-oper                               
   RAUG   =    1.300    factor for augmentation sphere                          
   RDEP   =    2.392    radius for radial grids                                 
   RDEPT  =    2.170    core radius for aug-charge                              
                                                                                
   Atomic configuration                                                         
   13 entries                                                                   
     n  l   j            E        occ.                                          
     1  0  0.50    -32976.3739   2.0000                                         
     2  0  0.50     -5094.5933   2.0000                                         
     2  1  1.50     -4572.0131   6.0000                                         
     3  0  0.50     -1028.2813   2.0000                                         
     3  1  1.50      -859.0250   6.0000                                         
     3  2  2.50      -605.7620  10.0000                                         
     4  0  0.50      -180.5540   2.0000                                         
     4  1  1.50      -127.5306   6.0000                                         
     4  2  2.50       -50.2720  10.0000                                         
     5  0  0.50       -17.4058   2.0000                                         
     5  1  0.50        -7.0851   5.0000                                         
     5  2  1.50        -7.0750   0.0000                                         
     4  3  2.50        -7.0750   0.0000                                         
   Description                                                                  
     l       E           TYP  RCUT    TYP  RCUT                                 
     0    -17.4058016     23  2.300                                             
     0    -18.7663842     23  2.300                                             
     1     -7.0850686     23  2.300                                             
     1     -4.2150896     23  2.300                                             
     2     -7.0750295     23  2.300                                             
     3     -1.3605826     23  2.300                                             
  local pseudopotential read in
  partial core-charges read in
  partial kinetic energy density read in
  atomic valenz-charges read in
  non local Contribution for L=           0  read in
    real space projection operators read in
  non local Contribution for L=           0  read in
    real space projection operators read in
  non local Contribution for L=           1  read in
    real space projection operators read in
  non local Contribution for L=           1  read in
    real space projection operators read in
  non local Contribution for L=           2  read in
    real space projection operators read in
    PAW grid and wavefunctions read in
 
   number of l-projection  operators is LMAX  =           5
   number of lm-projection operators is LMMAX =          13
 

 ----------------------------------------------------------------------------- 
|                                                                             |
|  ADVICE TO THIS USER RUNNING 'VASP/VAMP'   (HEAR YOUR MASTER'S VOICE ...):  |
|                                                                             |
|      You have a (more or less) 'large supercell' and for larger cells       |
|      it might be more efficient to use real space projection opertators     |
|      So try LREAL= Auto  in the INCAR   file.                               |
|      Mind: At the moment your POTCAR file does not contain real space       |
|       projectors, and has to be modified,  BUT if you                       |
|      want to do an extremely  accurate calculation you might also keep the  |
|      reciprocal projection scheme          (i.e. LREAL=.FALSE.)             |
|                                                                             |
 ----------------------------------------------------------------------------- 


 ----------------------------------------------------------------------------- 
|                                                                             |
|  ADVICE TO THIS USER RUNNING 'VASP/VAMP'   (HEAR YOUR MASTER'S VOICE ...):  |
|                                                                             |
|      You enforced a specific xc-type in the INCAR file,                     |
|      a different type was found on the POTCAR file                          |
|          I HOPE YOU KNOW, WHAT YOU ARE  DOING                               |
|                                                                             |
 ----------------------------------------------------------------------------- 

  PAW_PBE C 08Apr2002                   :
 energy of atom  1       EATOM= -147.1560
 kinetic energy error for atom=    0.0032 (will be added to EATOM!!)
  PAW_PBE N 08Apr2002                   :
 energy of atom  2       EATOM= -264.5486
 kinetic energy error for atom=    0.0061 (will be added to EATOM!!)
  PAW_PBE H 15Jun2001                   :
 energy of atom  3       EATOM=  -12.4884
 kinetic energy error for atom=    0.0002 (will be added to EATOM!!)
  PAW_PBE Pb_d 06Sep2000                :
 energy of atom  4       EATOM=-1661.6185
 kinetic energy error for atom=    0.0012 (will be added to EATOM!!)
  PAW_PBE I 08Apr2002                   :
 energy of atom  5       EATOM= -315.8678
 kinetic energy error for atom=    0.0003 (will be added to EATOM!!)
 
 
 POSCAR: C N H Pb I                              
  positions in direct lattice
  No initial velocities read in
 exchange correlation table for  LEXCH =       14
   RHO(1)=    0.500       N(1)  =     2000
   RHO(2)=  100.500       N(2)  =     4000
 


--------------------------------------------------------------------------------------------------------


 ion  position               nearest neighbor table
   1  0.175  0.250  0.263-  33 1.12  25 1.12  17 1.16   9 1.56
   2  0.719  0.250  0.195-  34 1.12  26 1.12  18 1.16  10 1.56
   3  0.219  0.750  0.195-  35 1.12  27 1.12  19 1.16  11 1.56
   4  0.675  0.750  0.263-  36 1.12  28 1.12  20 1.16  12 1.56
   5  0.175  0.250  0.763-  37 1.12  29 1.12  21 1.16  13 1.56
   6  0.719  0.250  0.695-  38 1.12  30 1.12  22 1.16  14 1.56
   7  0.219  0.750  0.695-  39 1.12  31 1.12  23 1.16  15 1.56
   8  0.675  0.750  0.763-  40 1.12  32 1.12  24 1.16  16 1.56
   9  0.299  0.250  0.272-  41 1.06  49 1.06  57 1.12   1 1.56
  10  0.811  0.250  0.276-  42 1.07  50 1.07  58 1.10   2 1.56
  11  0.311  0.750  0.276-  43 1.07  51 1.07  59 1.10   3 1.56
  12  0.799  0.750  0.272-  44 1.06  52 1.06  60 1.12   4 1.56
  13  0.299  0.250  0.772-  45 1.06  53 1.06  61 1.12   5 1.56
  14  0.811  0.250  0.776-  46 1.07  54 1.07  62 1.10   6 1.56
  15  0.311  0.750  0.776-  47 1.07  55 1.07  63 1.10   7 1.56
  16  0.799  0.750  0.772-  48 1.06  56 1.06  64 1.12   8 1.56
  17  0.154  0.250  0.175-   1 1.16
  18  0.756  0.250  0.111-   2 1.16
  19  0.256  0.750  0.111-   3 1.16
  20  0.654  0.750  0.175-   4 1.16
  21  0.154  0.250  0.675-   5 1.16
  22  0.756  0.250  0.611-   6 1.16
  23  0.256  0.750  0.611-   7 1.16
  24  0.654  0.750  0.675-   8 1.16
  25  0.141  0.322  0.303-   1 1.12
  26  0.668  0.323  0.208-   2 1.12
  27  0.168  0.823  0.208-   3 1.12
  28  0.641  0.822  0.303-   4 1.12
  29  0.141  0.322  0.803-   5 1.12
  30  0.668  0.323  0.708-   6 1.12
  31  0.168  0.823  0.708-   7 1.12
  32  0.641  0.822  0.803-   8 1.12
  33  0.141  0.178  0.303-   1 1.12
  34  0.668  0.177  0.208-   2 1.12
  35  0.168  0.677  0.208-   3 1.12
  36  0.641  0.678  0.303-   4 1.12
  37  0.141  0.178  0.803-   5 1.12
  38  0.668  0.177  0.708-   6 1.12
  39  0.168  0.677  0.708-   7 1.12
  40  0.641  0.678  0.803-   8 1.12
  41  0.335  0.317  0.235-   9 1.06
  42  0.861  0.319  0.267-  10 1.07
  43  0.361  0.819  0.267-  11 1.07
  44  0.835  0.817  0.235-  12 1.06
  45  0.335  0.317  0.735-  13 1.06
  46  0.861  0.319  0.767-  14 1.07
  47  0.361  0.819  0.767-  15 1.07
  48  0.835  0.817  0.735-  16 1.06
  49  0.335  0.183  0.234-   9 1.06
  50  0.861  0.181  0.267-  10 1.07
  51  0.361  0.681  0.267-  11 1.07
  52  0.835  0.683  0.234-  12 1.06
  53  0.335  0.183  0.734-  13 1.06
  54  0.861  0.181  0.767-  14 1.07
  55  0.361  0.681  0.767-  15 1.07
  56  0.835  0.683  0.734-  16 1.06
  57  0.328  0.250  0.355-   9 1.12
  58  0.779  0.250  0.357-  10 1.10
  59  0.279  0.750  0.357-  11 1.10
  60  0.828  0.750  0.355-  12 1.12
  61  0.328  0.250  0.855-  13 1.12
  62  0.779  0.250  0.857-  14 1.10
  63  0.279  0.750  0.857-  15 1.10
  64  0.828  0.750  0.855-  16 1.12
  65  0.472  0.496  0.489-  77 3.17  87 3.21  73 3.22  90 3.23  85 3.31  89 3.42
  66  0.972  0.504  0.489-  78 3.17  86 3.21  74 3.22  89 3.23  88 3.31  90 3.42
  67  0.472  0.004  0.489-  79 3.17  87 3.21  75 3.22  92 3.23  85 3.31  91 3.42
  68  0.972  0.996  0.489-  80 3.17  86 3.21  76 3.22  91 3.23  88 3.31  92 3.42
  69  0.472  0.496  0.989-  73 3.17  83 3.21  77 3.22  94 3.23  81 3.31  93 3.42
  70  0.972  0.504  0.989-  74 3.17  82 3.21  78 3.22  93 3.23  84 3.31  94 3.42
  71  0.472  0.004  0.989-  75 3.17  83 3.21  79 3.22  96 3.23  81 3.31  95 3.42
  72  0.972  0.996  0.989-  76 3.17  82 3.21  80 3.22  95 3.23  84 3.31  96 3.42
  73  0.455  0.498  0.238-  69 3.17  65 3.22
  74  0.955  0.502  0.238-  70 3.17  66 3.22
  75  0.455  0.002  0.238-  71 3.17  67 3.22
  76  0.955  0.998  0.238-  72 3.17  68 3.22
  77  0.455  0.498  0.738-  65 3.17  69 3.22
  78  0.955  0.502  0.738-  66 3.17  70 3.22
  79  0.455  0.002  0.738-  67 3.17  71 3.22
  80  0.955  0.998  0.738-  68 3.17  72 3.22
  81  0.381  0.250  0.025-  71 3.31  69 3.31
  82  0.018  0.250  0.999-  72 3.21  70 3.21
  83  0.518  0.750  0.999-  69 3.21  71 3.21
  84  0.881  0.750  0.025-  70 3.31  72 3.31
  85  0.381  0.250  0.525-  67 3.31  65 3.31
  86  0.018  0.250  0.499-  68 3.21  66 3.21
  87  0.518  0.750  0.499-  65 3.21  67 3.21
  88  0.881  0.750  0.525-  66 3.31  68 3.31
  89  0.216  0.582  0.461-  66 3.23  65 3.42
  90  0.716  0.418  0.461-  65 3.23  66 3.42
  91  0.216  0.918  0.461-  68 3.23  67 3.42
  92  0.716  0.082  0.461-  67 3.23  68 3.42
  93  0.216  0.582  0.961-  70 3.23  69 3.42
  94  0.716  0.418  0.961-  69 3.23  70 3.42
  95  0.216  0.918  0.961-  72 3.23  71 3.42
  96  0.716  0.082  0.961-  71 3.23  72 3.42
 
  LATTYP: Found a triclinic cell.
 ALAT       =    17.8238589327
 B/A-ratio  =     0.6989248630
 C/A-ratio  =     1.0156975818
 COS(alpha) =     0.0001355172
 COS(beta)  =     0.5146378593
 COS(gamma) =     0.6988877578
  
  Lattice vectors:
  
 A1 = (  -0.1406063366, -12.4576271275, -12.7466742118)
 A2 = (  -0.0011956322, -12.4575380825,   0.0007464135)
 A3 = ( -12.7162481321,  -0.0020049566, -12.8856194186)


Analysis of symmetry for initial positions (statically):
=====================================================================
 Subroutine PRICEL returns following result:
 
  LATTYP: Found a triclinic cell.
 ALAT       =     8.8502626515
 B/A-ratio  =     1.4075896561
 C/A-ratio  =     0.7202149489
 COS(alpha) =     0.0000518785
 COS(beta)  =     0.0156138721
 COS(gamma) =     0.7036188608
  
  Lattice vectors:
  
 A1 = (  -6.2878208978,   6.2278110854,  -0.0694726034)
 A2 = (   0.0011956322,  12.4575380825,  -0.0007464135)
 A3 = (  -0.0697053522,  -0.0000445225,  -6.3737103126)
 
   4 primitive cells build up your supercell.
 

 Routine SETGRP: Setting up the symmetry group for a 
 triclinic supercell.


 Subroutine GETGRP returns: Found  1 space group operations
 (whereof  1 operations were pure point group operations)
 out of a pool of  2 trial point group operations.


The static configuration has the point symmetry C_1 .


Analysis of symmetry for dynamics (positions and initial velocities):
=====================================================================
 Subroutine PRICEL returns following result:
 
  LATTYP: Found a triclinic cell.
 ALAT       =     8.8502626515
 B/A-ratio  =     1.4075896561
 C/A-ratio  =     0.7202149489
 COS(alpha) =     0.0000518785
 COS(beta)  =     0.0156138721
 COS(gamma) =     0.7036188608
  
  Lattice vectors:
  
 A1 = (  -6.2878208978,   6.2278110854,  -0.0694726034)
 A2 = (   0.0011956322,  12.4575380825,  -0.0007464135)
 A3 = (  -0.0697053522,  -0.0000445225,  -6.3737103126)
 
   4 primitive cells build up your supercell.
 

 Routine SETGRP: Setting up the symmetry group for a 
 triclinic supercell.


 Subroutine GETGRP returns: Found  1 space group operations
 (whereof  1 operations were pure point group operations)
 out of a pool of  2 trial point group operations.


The dynamic configuration has the point symmetry C_1 .


 Subroutine INISYM returns: Found  1 space group operations
 (whereof  1 operations are pure point group operations),
 and found     4 'primitive' translations

 
 
 KPOINTS: Automatic 3x3x3                         

Automatic generation of k-mesh.
Space group operators:
 irot       det(A)        alpha          n_x          n_y          n_z        tau_x        tau_y        tau_z
    1     1.000000     0.000000     1.000000     0.000000     0.000000     0.000000     0.000000     0.000000
 
 Subroutine IBZKPT returns following result:
 ===========================================
 
 Found     14 irreducible k-points:
 
 Following reciprocal coordinates:
            Coordinates               Weight
  0.000000  0.000000  0.000000      1.000000
  0.333333 -0.000000 -0.000000      2.000000
  0.000000  0.333333 -0.000000      2.000000
  0.333333  0.333333  0.000000      2.000000
 -0.333333  0.333333  0.000000      2.000000
  0.000000  0.000000  0.333333      2.000000
  0.333333  0.000000  0.333333      2.000000
 -0.333333  0.000000  0.333333      2.000000
  0.000000  0.333333  0.333333      2.000000
  0.333333  0.333333  0.333333      2.000000
 -0.333333  0.333333  0.333333      2.000000
  0.000000 -0.333333  0.333333      2.000000
  0.333333 -0.333333  0.333333      2.000000
 -0.333333 -0.333333  0.333333      2.000000
 
 Following cartesian coordinates:
            Coordinates               Weight
  0.000000  0.000000  0.000000      1.000000
  0.026507 -0.000003 -0.000290      2.000000
 -0.000004  0.026758 -0.000000      2.000000
  0.026503  0.026755 -0.000290      2.000000
 -0.026511  0.026760  0.000290      2.000000
 -0.000287  0.000002  0.026152      2.000000
  0.026220 -0.000001  0.025862      2.000000
 -0.026794  0.000004  0.026442      2.000000
 -0.000291  0.026759  0.026152      2.000000
  0.026215  0.026757  0.025862      2.000000
 -0.026798  0.026762  0.026442      2.000000
 -0.000283 -0.026756  0.026152      2.000000
  0.026224 -0.026759  0.025862      2.000000
 -0.026790 -0.026753  0.026442      2.000000
 


--------------------------------------------------------------------------------------------------------




 Dimension of arrays:
   k-points           NKPTS =     14   k-points in BZ     NKDIM =     14   number of bands    NBANDS=    256
   number of dos      NEDOS =    301   number of ions     NIONS =     96
   non local maximal  LDIM  =      6   non local SUM 2l+1 LMDIM =     18
   total plane-waves  NPLWV = ******
   max r-space proj   IRMAX =      1   max aug-charges    IRDMAX= 314103
   dimension x,y,z NGX =   112 NGY =  108 NGZ =  112
   dimension x,y,z NGXF=   224 NGYF=  216 NGZF=  224
   support grid    NGXF=   448 NGYF=  432 NGZF=  448
   ions per type =               8   8  48   8  24
 NGX,Y,Z   is equivalent  to a cutoff of  14.80, 14.41, 14.61 a.u.
 NGXF,Y,Z  is equivalent  to a cutoff of  29.61, 28.83, 29.21 a.u.


 I would recommend the setting:
   dimension x,y,z NGX =   109 NGY =  107 NGZ =  110
 SYSTEM =  MAPbI3-Cubic                            
 POSCAR =  C N H Pb I                              

 Startparameter for this run:
   NWRITE =      2    write-flag & timer
   PREC   = accura    normal or accurate (medium, high low for compatibility)
   ISTART =      0    job   : 0-new  1-cont  2-samecut
   ICHARG =      2    charge: 1-file 2-atom 10-const
   ISPIN  =      1    spin polarized calculation?
   LNONCOLLINEAR =      F non collinear calculations
   LSORBIT =      F    spin-orbit coupling
   INIWAV =      1    electr: 0-lowe 1-rand  2-diag
   LASPH  =      F    aspherical Exc in radial PAW
   METAGGA=      F    non-selfconsistent MetaGGA calc.

 Electronic Relaxation 1
   ENCUT  =  700.0 eV  51.45 Ry    7.17 a.u.  27.13 26.87 27.50*2*pi/ulx,y,z
   ENINI  =  700.0     initial cutoff
   ENAUG  =  644.9 eV  augmentation charge cutoff
   NELM   =     60;   NELMIN=  2; NELMDL= -5     # of ELM steps 
   EDIFF  = 0.1E-09   stopping-criterion for ELM
   LREAL  =      F    real-space projection
   NLSPLINE    = F    spline interpolate recip. space projectors
   LCOMPAT=      F    compatible to vasp.4.4
   GGA_COMPAT  = T    GGA compatible to vasp.4.4-vasp.4.6
   LMAXPAW     = -100 max onsite density
   LMAXMIX     =    2 max onsite mixed and CHGCAR
   VOSKOWN=      0    Vosko Wilk Nusair interpolation
   ROPT   =    0.00000   0.00000   0.00000   0.00000
   ROPT   =    0.00000
 Ionic relaxation
   EDIFFG = 0.1E-08   stopping-criterion for IOM
   NSW    =      0    number of steps for IOM
   NBLOCK =      1;   KBLOCK =      1    inner block; outer block 
   IBRION =     -1    ionic relax: 0-MD 1-quasi-New 2-CG
   NFREE  =      0    steps in history (QN), initial steepest desc. (CG)
   ISIF   =      2    stress and relaxation
   IWAVPR =     10    prediction:  0-non 1-charg 2-wave 3-comb
   ISYM   =      2    0-nonsym 1-usesym 2-fastsym
   LCORR  =      T    Harris-Foulkes like correction to forces

   POTIM  = 0.5000    time-step for ionic-motion
   TEIN   =    0.0    initial temperature
   TEBEG  =    0.0;   TEEND  =   0.0 temperature during run
   SMASS  =  -3.00    Nose mass-parameter (am)
   estimated Nose-frequenzy (Omega)   =  0.10E-29 period in steps =****** mass=  -0.362E-26a.u.
   SCALEE = 1.0000    scale energy and forces
   NPACO  =    256;   APACO  = 16.0  distance and # of slots for P.C.
   PSTRESS=    0.0 pullay stress

  Mass of Ions in am
   POMASS =  12.01 14.00  1.00207.20126.90
  Ionic Valenz
   ZVAL   =   4.00  5.00  1.00 14.00  7.00
  Atomic Wigner-Seitz radii
   RWIGS  =  -1.00 -1.00 -1.00 -1.00 -1.00
  virtual crystal weights 
   VCA    =   1.00  1.00  1.00  1.00  1.00
   NELECT =     400.0000    total number of electrons
   NUPDOWN=      -1.0000    fix difference up-down

 DOS related values:
   EMIN   =  10.00;   EMAX   =-10.00  energy-range for DOS
   EFERMI =   0.00
   ISMEAR =     0;   SIGMA  =   0.00  broadening in eV -4-tet -1-fermi 0-gaus

 Electronic relaxation 2 (details)
   IALGO  =     38    algorithm
   LDIAG  =      T    sub-space diagonalisation (order eigenvalues)
   LSUBROT=      F    optimize rotation matrix (better conditioning)
   TURBO    =      0    0=normal 1=particle mesh
   IRESTART =      0    0=no restart 2=restart with 2 vectors
   NREBOOT  =      0    no. of reboots
   NMIN     =      0    reboot dimension
   EREF     =   0.00    reference energy to select bands
   IMIX   =      4    mixing-type and parameters
     AMIX     =   0.40;   BMIX     =  1.00
     AMIX_MAG =   1.60;   BMIX_MAG =  1.00
     AMIN     =   0.10
     WC   =   100.;   INIMIX=   1;  MIXPRE=   1;  MAXMIX= -45

 Intra band minimization:
   WEIMIN = 0.0000     energy-eigenvalue tresh-hold
   EBREAK =  0.98E-13  absolut break condition
   DEPER  =   0.30     relativ break condition  

   TIME   =   0.40     timestep for ELM

  volume/ion in A,a.u.               =      20.80       140.38
  Fermi-wavevector in a.u.,A,eV,Ry     =   0.957863  1.810099 12.483376  0.917502
  Thomas-Fermi vector in A             =   2.086919
 
 Write flags
   LWAVE  =      F    write WAVECAR
   LCHARG =      F    write CHGCAR
   LVTOT  =      F    write LOCPOT, total local potential
   LVHAR  =      F    write LOCPOT, Hartree potential only
   LELF   =      F    write electronic localiz. function (ELF)
   LORBIT =      0    0 simple, 1 ext, 2 COOP (PROOUT)


 Dipole corrections
   LMONO  =      F    monopole corrections only (constant potential shift)
   LDIPOL =      F    correct potential (dipole corrections)
   IDIPOL =      0    1-x, 2-y, 3-z, 4-all directions 
   EPSILON=  1.0000000 bulk dielectric constant

 Core level calculations are selected ICORELEVEL =  1
 Exchange correlation treatment:
   GGA     =    PS    GGA type
   LEXCH   =    14    internal setting for exchange type
   VOSKOWN=      0    Vosko Wilk Nusair interpolation
   LHFCALC =     F    Hartree Fock is set to
   LHFONE  =     F    Hartree Fock one center treatment
   AEXX    =    0.0000 exact exchange contribution

 Linear response parameters
   LEPSILON=     F    determine dielectric tensor
   LRPA    =     F    only Hartree local field effects (RPA)
   LNABLA  =     F    use nabla operator in PAW spheres
   LVEL    =     F    velocity operator in full k-point grid
   LINTERFAST=   F  fast interpolation
   KINTER  =     0    interpolate to denser k-point grid
   CSHIFT  =0.1000    complex shift for real part using Kramers Kronig
   OMEGAMAX=  -1.0    maximum frequency
   DEG_THRESHOLD= 0.2000000E-02 threshold for treating states as degnerate
   RTIME   =    0.100 relaxation time in fs

 Orbital magnetization related:
   ORBITALMAG=     F  switch on orbital magnetization
   LCHIMAG   =     F  perturbation theory with respect to B field
   DQ        =  0.001000  dq finite difference perturbation B field



--------------------------------------------------------------------------------------------------------


 Static calculation
 charge density and potential will be updated during run
 non-spin polarized calculation
 Variant of blocked Davidson
 Davidson routine will perform the subspace rotation
 perform sub-space diagonalisation
    after iterative eigenvector-optimisation
 modified Broyden-mixing scheme, WC =      100.0
 initial mixing is a Kerker type mixing with AMIX =  0.4000 and BMIX =      1.0000
 Hartree-type preconditioning will be used
 using additional bands           56
 reciprocal scheme for non local part
 use partial core corrections
 calculate Harris-corrections to forces 
   (improved forces if not selfconsistent)
 use gradient corrections 
 use of overlap-Matrix (Vanderbilt PP)
 Gauss-broadening in eV      SIGMA  =   0.00


--------------------------------------------------------------------------------------------------------


  energy-cutoff  :      700.00
  volume of cell :     1996.98
      direct lattice vectors                 reciprocal lattice vectors
    12.576837428  0.001915912  0.138198793     0.079520802 -0.000007684 -0.000869670
     0.001195632 12.457538083 -0.000746413    -0.000012224  0.080272684 -0.000000427
     0.139410704  0.000089045 12.747420625    -0.000862111  0.000004784  0.078456671

  length of vectors
    12.577596840 12.457538162 12.748182927     0.079525558  0.080272685  0.078461408


 
 k-points in units of 2pi/SCALE and weight: Automatic 3x3x3                         
   0.00000000  0.00000000  0.00000000       0.037
   0.02650693 -0.00000256 -0.00028989       0.074
  -0.00000407  0.02675756 -0.00000014       0.074
   0.02650286  0.02675500 -0.00029003       0.074
  -0.02651101  0.02676012  0.00028975       0.074
  -0.00028737  0.00000159  0.02615222       0.074
   0.02621956 -0.00000097  0.02586233       0.074
  -0.02679430  0.00000416  0.02644211       0.074
  -0.00029144  0.02675916  0.02615208       0.074
   0.02621549  0.02675659  0.02586219       0.074
  -0.02679838  0.02676172  0.02644197       0.074
  -0.00028330 -0.02675597  0.02615237       0.074
   0.02622364 -0.02675853  0.02586248       0.074
  -0.02679023 -0.02675341  0.02644226       0.074
 
 k-points in reciprocal lattice and weights: Automatic 3x3x3                         
   0.00000000  0.00000000  0.00000000       0.037
   0.33333333 -0.00000000 -0.00000000       0.074
   0.00000000  0.33333333 -0.00000000       0.074
   0.33333333  0.33333333  0.00000000       0.074
  -0.33333333  0.33333333  0.00000000       0.074
   0.00000000  0.00000000  0.33333333       0.074
   0.33333333  0.00000000  0.33333333       0.074
  -0.33333333  0.00000000  0.33333333       0.074
   0.00000000  0.33333333  0.33333333       0.074
   0.33333333  0.33333333  0.33333333       0.074
  -0.33333333  0.33333333  0.33333333       0.074
   0.00000000 -0.33333333  0.33333333       0.074
   0.33333333 -0.33333333  0.33333333       0.074
  -0.33333333 -0.33333333  0.33333333       0.074
 
 position of ions in fractional coordinates (direct lattice) 
   0.17515756  0.24981722  0.26292529
   0.71883070  0.24999933  0.19490542
   0.21883070  0.74999933  0.19490542
   0.67515756  0.74981722  0.26292529
   0.17515756  0.24981722  0.76292529
   0.71883070  0.24999933  0.69490542
   0.21883070  0.74999933  0.69490542
   0.67515756  0.74981722  0.76292529
   0.29852800  0.24993456  0.27196058
   0.81054644  0.25007272  0.27580801
   0.31054644  0.75007272  0.27580801
   0.79852800  0.74993456  0.27196058
   0.29852800  0.24993456  0.77196058
   0.81054644  0.25007272  0.77580801
   0.31054644  0.75007272  0.77580801
   0.79852800  0.74993456  0.77196058
   0.15369377  0.24982399  0.17483236
   0.75645656  0.24981820  0.11094489
   0.25645656  0.74981820  0.11094489
   0.65369377  0.74982399  0.17483236
   0.15369377  0.24982399  0.67483236
   0.75645656  0.24981820  0.61094489
   0.25645656  0.74981820  0.61094489
   0.65369377  0.74982399  0.67483236
   0.14068920  0.32201249  0.30316698
   0.66798641  0.32269189  0.20786366
   0.16798641  0.82269189  0.20786366
   0.64068920  0.82201249  0.30316698
   0.14068920  0.32201249  0.80316698
   0.66798641  0.32269189  0.70786366
   0.16798641  0.82269189  0.70786366
   0.64068920  0.82201249  0.80316698
   0.14093286  0.17752823  0.30314136
   0.66795281  0.17742392  0.20816005
   0.16795281  0.67742392  0.20816005
   0.64093286  0.67752823  0.30314136
   0.14093286  0.17752823  0.80314136
   0.66795281  0.17742392  0.70816005
   0.16795281  0.67742392  0.70816005
   0.64093286  0.67752823  0.80314136
   0.33521116  0.31714602  0.23452041
   0.86105799  0.31860254  0.26699257
   0.36105799  0.81860254  0.26699257
   0.83521116  0.81714602  0.23452041
   0.33521116  0.31714602  0.73452041
   0.86105799  0.31860254  0.76699257
   0.36105799  0.81860254  0.76699257
   0.83521116  0.81714602  0.73452041
   0.33541652  0.18280184  0.23448689
   0.86099408  0.18140794  0.26729491
   0.36099408  0.68140794  0.26729491
   0.83541652  0.68280184  0.23448689
   0.33541652  0.18280184  0.73448689
   0.86099408  0.18140794  0.76729491
   0.36099408  0.68140794  0.76729491
   0.83541652  0.68280184  0.73448689
   0.32769238  0.24990475  0.35463637
   0.77864777  0.25028229  0.35658212
   0.27864777  0.75028229  0.35658212
   0.82769238  0.74990475  0.35463637
   0.32769238  0.24990475  0.85463637
   0.77864777  0.25028229  0.85658212
   0.27864777  0.75028229  0.85658212
   0.82769238  0.74990475  0.85463637
   0.47242263  0.49642898  0.48881619
   0.97246092  0.50355061  0.48880670
   0.47246092  0.00355061  0.48880670
   0.97242263  0.99642898  0.48881619
   0.47242263  0.49642898  0.98881619
   0.97246092  0.50355061  0.98880670
   0.47246092  0.00355061  0.98880670
   0.97242263  0.99642898  0.98881619
   0.45469061  0.49809504  0.23758403
   0.95479674  0.50188706  0.23756146
   0.45479674  0.00188706  0.23756146
   0.95469061  0.99809504  0.23758403
   0.45469061  0.49809504  0.73758403
   0.95479674  0.50188706  0.73756146
   0.45479674  0.00188706  0.73756146
   0.95469061  0.99809504  0.73758403
   0.38104267  0.24999256  0.02472239
   0.01822821  0.24996546  0.99894205
   0.51822821  0.74996546  0.99894205
   0.88104267  0.74999256  0.02472239
   0.38104267  0.24999256  0.52472239
   0.01822821  0.24996546  0.49894205
   0.51822821  0.74996546  0.49894205
   0.88104267  0.74999256  0.52472239
   0.21615488  0.58186749  0.46123971
   0.71618800  0.41812738  0.46123969
   0.21618800  0.91812738  0.46123969
   0.71615488  0.08186749  0.46123971
   0.21615488  0.58186749  0.96123971
   0.71618800  0.41812738  0.96123969
   0.21618800  0.91812738  0.96123969
   0.71615488  0.08186749  0.96123971
 
 position of ions in cartesian coordinates  (Angst):
   2.23988145  3.11246653  3.37563936
   9.06808772  3.11577074  2.58369629
   2.78026682  9.34358183  2.51422369
   8.52889798  9.34219353  3.44436555
   2.30958680  3.11251106  9.74934967
   9.13779307  3.11581527  8.95740660
   2.84997218  9.34362635  8.88793400
   8.59860333  9.34223805  9.81807586
   3.79275112  3.11416547  3.50786558
  10.23286041  3.11686794  3.62767062
   3.94503951  9.34467903  3.55819801
  10.08176765  9.34389247  3.57659177
   3.86245647  3.11420999  9.88157589
  10.30256576  3.11691247 10.00138093
   4.01474487  9.34472355  9.93190833
  10.15147300  9.34393699  9.95030208
   1.95765378  3.11250191  2.24971545
   9.52959681  3.11357894  1.51861612
   3.24177591  9.34139003  1.44914352
   8.24667031  9.34222891  2.31844164
   2.02735913  3.11254644  8.62342576
   9.59930216  3.11362346  7.89232643
   3.31148127  9.34143455  7.82285383
   8.31637566  9.34227343  8.69215195
   1.81207498  4.01177934  3.88379976
   8.43052071  4.02124480  2.74179952
   2.14269981 10.24905588  2.67232691
   8.10109151 10.24150634  3.95252595
   1.88178034  4.01182386 10.25751007
   8.50022606  4.02128932  9.11550983
   2.21240516 10.24910041  9.04603723
   8.17079687 10.24155086 10.32623626
   1.81496306  2.21186167  3.88361470
   8.42996576  2.21156350  2.74568156
   2.14214486  8.43937459  2.67620896
   8.10397959  8.44158867  3.95234089
   1.88466841  2.21190619 10.25732501
   8.49967111  2.21160802  9.11939188
   2.21185021  8.43941911  9.04991927
   8.17368494  8.44163319 10.32605120
   4.24897015  3.95152177  3.03561934
  10.86698893  3.97067680  3.52222602
   4.57916803 10.19848789  3.45275341
  10.53798668 10.18124877  3.10434553
   4.31867551  3.95156629  9.40932965
  10.93669428  3.97072133  9.89593633
   4.64887338 10.19853241  9.82646373
  10.60769204 10.18129329  9.47805584
   4.25138763  2.27792434  3.03532068
  10.86606321  2.26156970  3.52617363
   4.57824231  8.48938078  3.45670103
  10.54040416  8.50765134  3.10404687
   4.32109298  2.27796886  9.40903100
  10.93576856  2.26161422  9.89988394
   4.64794766  8.48942531  9.83041134
  10.61010951  8.50769586  9.47775719
   4.17107265  3.11385740  4.56579913
   9.84293702  3.11942472  4.65292363
   3.55511612  9.34723580  4.58345103
  10.46008918  9.34358440  4.63452532
   4.24077800  3.11390193 10.93950945
   9.91264237  3.11946924 11.02663395
   3.62482147  9.34728033 10.95716134
  10.52979453  9.34362892 11.00823564
   6.01032241  6.18523151  6.29606332
  12.29922983  6.27490763  6.36504168
   6.01021330  0.04518063  6.29631549
  12.29933894 12.41495851  6.36478951
   6.08002776  6.18527604 12.66977364
  12.36893518  6.27495215 12.73875200
   6.07991865  0.04522515 12.67002581
  12.36904429 12.41500303 12.73849983
   5.75228721  6.20593025  3.09104943
  12.04204201  6.25412759  3.15987296
   5.75302548  0.02440059  3.09114677
  12.04130374 12.43565725  3.15977562
   5.82199256  6.20597478  9.46475974
  12.11174736  6.25417211  9.53358328
   5.82273083  0.02444511  9.46485709
  12.11100909 12.43570177  9.53348593
   4.79605712  3.11502409  0.36761972
   0.36881536  3.11407812 12.73626700
   6.65783189  9.34380512 12.80499319
  11.08507365  9.34475108  0.43634591
   4.86576247  3.11506861  6.74133003
   0.29911001  3.11403360  6.36255668
   6.58812654  9.34376060  6.43128287
  11.15477900  9.34479560  6.81005622
   2.78354225  7.24909167  5.90905467
   9.07218167  5.21025097  5.97828055
   2.78436077 11.43806205  5.90880795
   9.07136315  1.02128058  5.97852728
   2.85324760  7.24913619 12.28276499
   9.14188702  5.21029549 12.35199087
   2.85406612 11.43810658 12.28251826
   9.14106850  1.02132511 12.35223759
 


--------------------------------------------------------------------------------------------------------


 k-point  1 :   0.0000 0.0000 0.0000  plane waves:   84007
 k-point  2 :   0.3333-0.0000-0.0000  plane waves:   84003
 k-point  3 :   0.0000 0.3333-0.0000  plane waves:   83995
 k-point  4 :   0.3333 0.3333 0.0000  plane waves:   84018
 k-point  5 :  -0.3333 0.3333 0.0000  plane waves:   84019
 k-point  6 :   0.0000 0.0000 0.3333  plane waves:   83960
 k-point  7 :   0.3333 0.0000 0.3333  plane waves:   83937
 k-point  8 :  -0.3333 0.0000 0.3333  plane waves:   83982
 k-point  9 :   0.0000 0.3333 0.3333  plane waves:   83984
 k-point 10 :   0.3333 0.3333 0.3333  plane waves:   84012
 k-point 11 :  -0.3333 0.3333 0.3333  plane waves:   83970
 k-point 12 :   0.0000-0.3333 0.3333  plane waves:   83977
 k-point 13 :   0.3333-0.3333 0.3333  plane waves:   84013
 k-point 14 :  -0.3333-0.3333 0.3333  plane waves:   83973

 maximum and minimum number of plane-waves per node :     28039    27934

 maximum number of plane-waves:     84019
 maximum index in each direction: 
   IXMAX=   27   IYMAX=   27   IZMAX=   27
   IXMIN=  -27   IYMIN=  -27   IZMIN=  -27

 NGX is ok and might be reduce to 110
 WARNING: aliasing errors must be expected set NGY to 110 to avoid them
 NGZ is ok and might be reduce to 110
 aliasing errors are usually negligible using standard VASP settings
 and one can safely disregard these warnings

 parallel 3D FFT for wavefunctions:
    minimum data exchange during FFTs selected (reduces bandwidth)
 parallel 3D FFT for charge:
    minimum data exchange during FFTs selected (reduces bandwidth)


 total amount of memory used by VASP on root node   697522. kBytes
========================================================================

   base      :      30000. kBytes
   nonl-proj :     325712. kBytes
   fftplans  :      80881. kBytes
   grid      :      57435. kBytes
   one-center:        497. kBytes
   wavefun   :     202997. kBytes
 
     INWAV:  cpu time    0.0000: real time    0.0000
 Broyden mixing: mesh for mixing (old mesh)
   NGX = 55   NGY = 53   NGZ = 55
  (NGX  =224   NGY  =216   NGZ  =224)
  gives a total of 160325 points

 initial charge density was supplied:
 charge density of overlapping atoms calculated
 number of electron     400.0000000 magnetization 
 keeping initial charge density in first step


--------------------------------------------------------------------------------------------------------


 Maximum index for augmentation-charges        14098 (set IRDMAX)


--------------------------------------------------------------------------------------------------------


 First call to EWALD:  gamma=   0.141
 Maximum number of real-space cells 3x 3x 3
 Maximum number of reciprocal cells 3x 3x 3

 FEWALD executed in parallel
    FEWALD:  cpu time    0.0520: real time    0.0505


----------------------------------------- Iteration    1(   1)  ---------------------------------------


    POTLOK:  cpu time    0.4400: real time    0.4437
    SETDIJ:  cpu time    0.7520: real time    0.7527
     EDDAV:  cpu time   70.9364: real time   70.9839
       DOS:  cpu time    0.0000: real time    0.0021
    --------------------------------------------
      LOOP:  cpu time   72.1365: real time   72.2041

 eigenvalue-minimisations  :  7176
 total energy-change (2. order) : 0.3564666E+04  (-0.1890536E+05)
 number of electron     400.0000000 magnetization 
 augmentation part      400.0000000 magnetization 

 Free energy of the ion-electron system (eV)
  ---------------------------------------------------
  alpha Z        PSCENC =       370.05370877
  Ewald energy   TEWEN  =    -15827.14521432
  -Hartree energ DENC   =     -7897.94632524
  -exchange      EXHF   =         0.00000000
  -V(xc)+E(xc)   XCENC  =       386.17323062
  PAW double counting   =     20601.23165652   -19855.90553853
  entropy T*S    EENTRO =        -0.00004947
  eigenvalues    EBANDS =      1039.19752379
  atomic energy  EATOM  =     24749.00668030
  Solvation  Ediel_sol  =         0.00000000
  ---------------------------------------------------
  free energy    TOTEN  =      3564.66567243 eV

  energy without entropy =     3564.66572190  energy(sigma->0) =     3564.66569717


--------------------------------------------------------------------------------------------------------




----------------------------------------- Iteration    1(   2)  ---------------------------------------


     EDDAV:  cpu time   77.6168: real time   77.6680
       DOS:  cpu time    0.0080: real time    0.0053
    --------------------------------------------
      LOOP:  cpu time   77.6289: real time   77.7042

 eigenvalue-minimisations  :  8016
 total energy-change (2. order) :-0.3364392E+04  (-0.3153548E+04)
 number of electron     400.0000000 magnetization 
 augmentation part      400.0000000 magnetization 

 Free energy of the ion-electron system (eV)
  ---------------------------------------------------
  alpha Z        PSCENC =       370.05370877
  Ewald energy   TEWEN  =    -15827.14521432
  -Hartree energ DENC   =     -7897.94632524
  -exchange      EXHF   =         0.00000000
  -V(xc)+E(xc)   XCENC  =       386.17323062
  PAW double counting   =     20601.23165652   -19855.90553853
  entropy T*S    EENTRO =        -0.00004179
  eigenvalues    EBANDS =     -2325.19403529
  atomic energy  EATOM  =     24749.00668030
  Solvation  Ediel_sol  =         0.00000000
  ---------------------------------------------------
  free energy    TOTEN  =       200.27412103 eV

  energy without entropy =      200.27416282  energy(sigma->0) =      200.27414193


--------------------------------------------------------------------------------------------------------




----------------------------------------- Iteration    1(   3)  ---------------------------------------


     EDDAV:  cpu time   88.1535: real time   88.2083
       DOS:  cpu time    0.0000: real time    0.0009
    --------------------------------------------
      LOOP:  cpu time   88.1535: real time   88.2509

 eigenvalue-minimisations  :  9480
 total energy-change (2. order) :-0.5927932E+03  (-0.5840102E+03)
 number of electron     400.0000000 magnetization 
 augmentation part      400.0000000 magnetization 

 Free energy of the ion-electron system (eV)
  ---------------------------------------------------
  alpha Z        PSCENC =       370.05370877
  Ewald energy   TEWEN  =    -15827.14521432
  -Hartree energ DENC   =     -7897.94632524
  -exchange      EXHF   =         0.00000000
  -V(xc)+E(xc)   XCENC  =       386.17323062
  PAW double counting   =     20601.23165652   -19855.90553853
  entropy T*S    EENTRO =         0.00000000
  eigenvalues    EBANDS =     -2917.98724361
  atomic energy  EATOM  =     24749.00668030
  Solvation  Ediel_sol  =         0.00000000
  ---------------------------------------------------
  free energy    TOTEN  =      -392.51904550 eV

  energy without entropy =     -392.51904550  energy(sigma->0) =     -392.51904550


--------------------------------------------------------------------------------------------------------




----------------------------------------- Iteration    1(   4)  ---------------------------------------


     EDDAV:  cpu time   89.7816: real time   89.8373
       DOS:  cpu time    0.0000: real time    0.0017
    --------------------------------------------
      LOOP:  cpu time   89.7856: real time   89.8771

 eigenvalue-minimisations  :  9680
 total energy-change (2. order) :-0.4061297E+02  (-0.4042203E+02)
 number of electron     400.0000000 magnetization 
 augmentation part      400.0000000 magnetization 

 Free energy of the ion-electron system (eV)
  ---------------------------------------------------
  alpha Z        PSCENC =       370.05370877
  Ewald energy   TEWEN  =    -15827.14521432
  -Hartree energ DENC   =     -7897.94632524
  -exchange      EXHF   =         0.00000000
  -V(xc)+E(xc)   XCENC  =       386.17323062
  PAW double counting   =     20601.23165652   -19855.90553853
  entropy T*S    EENTRO =         0.00000000
  eigenvalues    EBANDS =     -2958.60021190
  atomic energy  EATOM  =     24749.00668030
  Solvation  Ediel_sol  =         0.00000000
  ---------------------------------------------------
  free energy    TOTEN  =      -433.13201378 eV

  energy without entropy =     -433.13201378  energy(sigma->0) =     -433.13201378


--------------------------------------------------------------------------------------------------------




----------------------------------------- Iteration    1(   5)  ---------------------------------------


     EDDAV:  cpu time   90.2696: real time   90.3260
       DOS:  cpu time    0.0000: real time    0.0009
    CHARGE:  cpu time    3.3282: real time    3.3311
    MIXING:  cpu time    0.0120: real time    0.0132
    --------------------------------------------
      LOOP:  cpu time   93.6139: real time   93.7133

 eigenvalue-minimisations  :  9744
 total energy-change (2. order) :-0.1502562E+01  (-0.1499429E+01)
 number of electron     400.0000000 magnetization 
 augmentation part        7.5045067 magnetization 

 Broyden mixing:
  rms(total) = 0.27580E+01    rms(broyden)= 0.27580E+01
  rms(prec ) = 0.33032E+01
  weight for this iteration     100.00

 Free energy of the ion-electron system (eV)
  ---------------------------------------------------
  alpha Z        PSCENC =       370.05370877
  Ewald energy   TEWEN  =    -15827.14521432
  -Hartree energ DENC   =     -7897.94632524
  -exchange      EXHF   =         0.00000000
  -V(xc)+E(xc)   XCENC  =       386.17323062
  PAW double counting   =     20601.23165652   -19855.90553853
  entropy T*S    EENTRO =        -0.00000000
  eigenvalues    EBANDS =     -2960.10277386
  atomic energy  EATOM  =     24749.00668030
  Solvation  Ediel_sol  =         0.00000000
  ---------------------------------------------------
  free energy    TOTEN  =      -434.63457574 eV

  energy without entropy =     -434.63457574  energy(sigma->0) =     -434.63457574


--------------------------------------------------------------------------------------------------------




----------------------------------------- Iteration    1(   6)  ---------------------------------------


    POTLOK:  cpu time    0.4360: real time    0.4374
    SETDIJ:  cpu time    0.7520: real time    0.7521
     EDDAV:  cpu time   91.7977: real time   91.8578
       DOS:  cpu time    0.0040: real time    0.0013
    CHARGE:  cpu time    3.3202: real time    3.3235
    MIXING:  cpu time    0.0120: real time    0.0132
    --------------------------------------------
      LOOP:  cpu time   96.3260: real time   96.4214

 eigenvalue-minimisations  :  9904
 total energy-change (2. order) : 0.1883797E+02  (-0.3674249E+01)
 number of electron     400.0000000 magnetization 
 augmentation part        7.8563571 magnetization 

 Broyden mixing:
  rms(total) = 0.14652E+01    rms(broyden)= 0.14652E+01
  rms(prec ) = 0.16475E+01
  weight for this iteration     100.00

 eigenvalues of (default mixing * dielectric matrix)
  average eigenvalue GAMMA=   1.5272
  1.5272

 Free energy of the ion-electron system (eV)
  ---------------------------------------------------
  alpha Z        PSCENC =       370.05370877
  Ewald energy   TEWEN  =    -15827.14521432
  -Hartree energ DENC   =     -8048.86684448
  -exchange      EXHF   =         0.00000000
  -V(xc)+E(xc)   XCENC  =       399.33236262
  PAW double counting   =     22715.93531783   -21966.52104028
  entropy T*S    EENTRO =         0.00000000
  eigenvalues    EBANDS =     -2807.59157286
  atomic energy  EATOM  =     24749.00668030
  Solvation  Ediel_sol  =         0.00000000
  ---------------------------------------------------
  free energy    TOTEN  =      -415.79660242 eV

  energy without entropy =     -415.79660242  energy(sigma->0) =     -415.79660242


--------------------------------------------------------------------------------------------------------




----------------------------------------- Iteration    1(   7)  ---------------------------------------


    POTLOK:  cpu time    0.4360: real time    0.4378
    SETDIJ:  cpu time    0.7520: real time    0.7521
     EDDAV:  cpu time   93.6058: real time   93.6644
       DOS:  cpu time    0.0000: real time    0.0012
    CHARGE:  cpu time    3.3202: real time    3.3223
    MIXING:  cpu time    0.0120: real time    0.0133
    --------------------------------------------
      LOOP:  cpu time   98.1341: real time   98.2352

 eigenvalue-minimisations  : 10136
 total energy-change (2. order) : 0.2287623E+01  (-0.1569941E+01)
 number of electron     400.0000000 magnetization 
 augmentation part        7.9587625 magnetization 

 Broyden mixing:
  rms(total) = 0.73879E+00    rms(broyden)= 0.73877E+00
  rms(prec ) = 0.79338E+00
  weight for this iteration     100.00

 eigenvalues of (default mixing * dielectric matrix)
  average eigenvalue GAMMA=   1.8380
  1.4521  2.2239

 Free energy of the ion-electron system (eV)
  ---------------------------------------------------
  alpha Z        PSCENC =       370.05370877
  Ewald energy   TEWEN  =    -15827.14521432
  -Hartree energ DENC   =     -8123.75196166
  -exchange      EXHF   =         0.00000000
  -V(xc)+E(xc)   XCENC  =       407.98114877
  PAW double counting   =     25448.59962711   -24696.53820180
  entropy T*S    EENTRO =        -0.00000000
  eigenvalues    EBANDS =     -2741.71476619
  atomic energy  EATOM  =     24749.00668030
  Solvation  Ediel_sol  =         0.00000000
  ---------------------------------------------------
  free energy    TOTEN  =      -413.50897901 eV

  energy without entropy =     -413.50897901  energy(sigma->0) =     -413.50897901


--------------------------------------------------------------------------------------------------------




----------------------------------------- Iteration    1(   8)  ---------------------------------------


    POTLOK:  cpu time    0.4400: real time    0.4389
    SETDIJ:  cpu time    0.7520: real time    0.7537
     EDDAV:  cpu time   82.6492: real time   82.7044
       DOS:  cpu time    0.0040: real time    0.0014
    CHARGE:  cpu time    3.3202: real time    3.3227
    MIXING:  cpu time    0.0120: real time    0.0135
    --------------------------------------------
      LOOP:  cpu time   87.1774: real time   87.2583

 eigenvalue-minimisations  :  8768
 total energy-change (2. order) : 0.1926875E+00  (-0.3284748E+00)
 number of electron     400.0000000 magnetization 
 augmentation part        7.7910748 magnetization 

 Broyden mixing:
  rms(total) = 0.17889E+00    rms(broyden)= 0.17889E+00
  rms(prec ) = 0.21778E+00
  weight for this iteration     100.00

 eigenvalues of (default mixing * dielectric matrix)
  average eigenvalue GAMMA=   1.6156
  2.4065  1.2202  1.2202

 Free energy of the ion-electron system (eV)
  ---------------------------------------------------
  alpha Z        PSCENC =       370.05370877
  Ewald energy   TEWEN  =    -15827.14521432
  -Hartree energ DENC   =     -8126.16999912
  -exchange      EXHF   =         0.00000000
  -V(xc)+E(xc)   XCENC  =       410.41987002
  PAW double counting   =     27378.64372988   -26627.47885773
  entropy T*S    EENTRO =         0.00000000
  eigenvalues    EBANDS =     -2740.64620936
  atomic energy  EATOM  =     24749.00668030
  Solvation  Ediel_sol  =         0.00000000
  ---------------------------------------------------
  free energy    TOTEN  =      -413.31629156 eV

  energy without entropy =     -413.31629156  energy(sigma->0) =     -413.31629156


--------------------------------------------------------------------------------------------------------




----------------------------------------- Iteration    1(   9)  ---------------------------------------


    POTLOK:  cpu time    0.4360: real time    0.4375
    SETDIJ:  cpu time    0.7520: real time    0.7528
     EDDAV:  cpu time   87.3295: real time   87.3857
       DOS:  cpu time    0.0040: real time    0.0026
    CHARGE:  cpu time    3.3202: real time    3.3225
    MIXING:  cpu time    0.0120: real time    0.0137
    --------------------------------------------
      LOOP:  cpu time   91.8577: real time   91.9972

 eigenvalue-minimisations  :  9304
 total energy-change (2. order) : 0.5876489E-01  (-0.6550253E-01)
 number of electron     400.0000000 magnetization 
 augmentation part        7.8192834 magnetization 

 Broyden mixing:
  rms(total) = 0.67906E-01    rms(broyden)= 0.67902E-01
  rms(prec ) = 0.77479E-01
  weight for this iteration     100.00

 eigenvalues of (default mixing * dielectric matrix)
  average eigenvalue GAMMA=   1.5500
  2.2880  1.0582  1.4617  1.3922

 Free energy of the ion-electron system (eV)
  ---------------------------------------------------
  alpha Z        PSCENC =       370.05370877
  Ewald energy   TEWEN  =    -15827.14521432
  -Hartree energ DENC   =     -8146.34074922
  -exchange      EXHF   =         0.00000000
  -V(xc)+E(xc)   XCENC  =       411.85467065
  PAW double counting   =     27571.23340523   -26820.27266950
  entropy T*S    EENTRO =         0.00000000
  eigenvalues    EBANDS =     -2721.64735857
  atomic energy  EATOM  =     24749.00668030
  Solvation  Ediel_sol  =         0.00000000
  ---------------------------------------------------
  free energy    TOTEN  =      -413.25752667 eV

  energy without entropy =     -413.25752667  energy(sigma->0) =     -413.25752667


--------------------------------------------------------------------------------------------------------




----------------------------------------- Iteration    1(  10)  ---------------------------------------


    POTLOK:  cpu time    0.4360: real time    0.4367
    SETDIJ:  cpu time    0.7520: real time    0.7528
     EDDAV:  cpu time   80.2330: real time   80.2817
       DOS:  cpu time    0.0000: real time    0.0014
    CHARGE:  cpu time    3.3242: real time    3.3262
    MIXING:  cpu time    0.0160: real time    0.0140
    --------------------------------------------
      LOOP:  cpu time   84.7653: real time   84.8370

 eigenvalue-minimisations  :  8408
 total energy-change (2. order) :-0.1401705E-01  (-0.1282514E-01)
 number of electron     400.0000000 magnetization 
 augmentation part        7.7748374 magnetization 

 Broyden mixing:
  rms(total) = 0.54272E-01    rms(broyden)= 0.54271E-01
  rms(prec ) = 0.63560E-01
  weight for this iteration     100.00

 eigenvalues of (default mixing * dielectric matrix)
  average eigenvalue GAMMA=   1.4321
  2.3165  1.9462  1.0235  1.0235  0.8510

 Free energy of the ion-electron system (eV)
  ---------------------------------------------------
  alpha Z        PSCENC =       370.05370877
  Ewald energy   TEWEN  =    -15827.14521432
  -Hartree energ DENC   =     -8148.81805859
  -exchange      EXHF   =         0.00000000
  -V(xc)+E(xc)   XCENC  =       411.97284419
  PAW double counting   =     27560.30369761   -26809.80446831
  entropy T*S    EENTRO =         0.00000000
  eigenvalues    EBANDS =     -2718.84073337
  atomic energy  EATOM  =     24749.00668030
  Solvation  Ediel_sol  =         0.00000000
  ---------------------------------------------------
  free energy    TOTEN  =      -413.27154372 eV

  energy without entropy =     -413.27154372  energy(sigma->0) =     -413.27154372


--------------------------------------------------------------------------------------------------------




----------------------------------------- Iteration    1(  11)  ---------------------------------------


    POTLOK:  cpu time    0.4400: real time    0.4379
    SETDIJ:  cpu time    0.7520: real time    0.7537
     EDDAV:  cpu time   90.8977: real time   90.9564
       DOS:  cpu time    0.0040: real time    0.0028
    CHARGE:  cpu time    3.3202: real time    3.3220
    MIXING:  cpu time    0.0160: real time    0.0142
    --------------------------------------------
      LOOP:  cpu time   95.4300: real time   95.5394

 eigenvalue-minimisations  :  9696
 total energy-change (2. order) : 0.2176250E-02  (-0.1795905E-02)
 number of electron     400.0000000 magnetization 
 augmentation part        7.7754648 magnetization 

 Broyden mixing:
  rms(total) = 0.26770E-01    rms(broyden)= 0.26770E-01
  rms(prec ) = 0.31763E-01
  weight for this iteration     100.00

 eigenvalues of (default mixing * dielectric matrix)
  average eigenvalue GAMMA=   1.5062
  2.3610  1.7730  1.7730  0.9540  1.0882  1.0882

 Free energy of the ion-electron system (eV)
  ---------------------------------------------------
  alpha Z        PSCENC =       370.05370877
  Ewald energy   TEWEN  =    -15827.14521432
  -Hartree energ DENC   =     -8147.81652257
  -exchange      EXHF   =         0.00000000
  -V(xc)+E(xc)   XCENC  =       411.95813167
  PAW double counting   =     27587.06760852   -26836.66432164
  entropy T*S    EENTRO =        -0.00000000
  eigenvalues    EBANDS =     -2719.72943822
  atomic energy  EATOM  =     24749.00668030
  Solvation  Ediel_sol  =         0.00000000
  ---------------------------------------------------
  free energy    TOTEN  =      -413.26936747 eV

  energy without entropy =     -413.26936747  energy(sigma->0) =     -413.26936747


--------------------------------------------------------------------------------------------------------




----------------------------------------- Iteration    1(  12)  ---------------------------------------


    POTLOK:  cpu time    0.4360: real time    0.4376
    SETDIJ:  cpu time    0.7520: real time    0.7531
     EDDAV:  cpu time   90.6337: real time   90.6932
       DOS:  cpu time    0.0040: real time    0.0013
    CHARGE:  cpu time    3.3162: real time    3.3204
    MIXING:  cpu time    0.0160: real time    0.0145
    --------------------------------------------
      LOOP:  cpu time   95.1619: real time   95.2623

 eigenvalue-minimisations  :  9736
 total energy-change (2. order) :-0.1452452E-02  (-0.1483786E-02)
 number of electron     400.0000000 magnetization 
 augmentation part        7.7918525 magnetization 

 Broyden mixing:
  rms(total) = 0.12217E-01    rms(broyden)= 0.12217E-01
  rms(prec ) = 0.14797E-01
  weight for this iteration     100.00

 eigenvalues of (default mixing * dielectric matrix)
  average eigenvalue GAMMA=   1.4667
  2.6155  2.3596  1.2444  1.2444  0.9434  0.9297  0.9297

 Free energy of the ion-electron system (eV)
  ---------------------------------------------------
  alpha Z        PSCENC =       370.05370877
  Ewald energy   TEWEN  =    -15827.14521432
  -Hartree energ DENC   =     -8148.04038443
  -exchange      EXHF   =         0.00000000
  -V(xc)+E(xc)   XCENC  =       412.00303853
  PAW double counting   =     27578.36606527   -26828.00318459
  entropy T*S    EENTRO =         0.00000000
  eigenvalues    EBANDS =     -2719.51152946
  atomic energy  EATOM  =     24749.00668030
  Solvation  Ediel_sol  =         0.00000000
  ---------------------------------------------------
  free energy    TOTEN  =      -413.27081993 eV

  energy without entropy =     -413.27081993  energy(sigma->0) =     -413.27081993


--------------------------------------------------------------------------------------------------------




----------------------------------------- Iteration    1(  13)  ---------------------------------------


    POTLOK:  cpu time    0.4400: real time    0.4379
    SETDIJ:  cpu time    0.7560: real time    0.7575
     EDDAV:  cpu time   80.4530: real time   80.5042
       DOS:  cpu time    0.0040: real time    0.0009
    CHARGE:  cpu time    3.3162: real time    3.3215
    MIXING:  cpu time    0.0160: real time    0.0148
    --------------------------------------------
      LOOP:  cpu time   84.9853: real time   85.0520

 eigenvalue-minimisations  :  8400
 total energy-change (2. order) :-0.3846741E-03  (-0.2389442E-03)
 number of electron     400.0000000 magnetization 
 augmentation part        7.7891714 magnetization 

 Broyden mixing:
  rms(total) = 0.97940E-02    rms(broyden)= 0.97937E-02
  rms(prec ) = 0.11202E-01
  weight for this iteration     100.00

 eigenvalues of (default mixing * dielectric matrix)
  average eigenvalue GAMMA=   1.4316
  2.6627  2.3133  1.3414  1.3414  0.9505  0.9505  0.9464  0.9464

 Free energy of the ion-electron system (eV)
  ---------------------------------------------------
  alpha Z        PSCENC =       370.05370877
  Ewald energy   TEWEN  =    -15827.14521432
  -Hartree energ DENC   =     -8148.20287333
  -exchange      EXHF   =         0.00000000
  -V(xc)+E(xc)   XCENC  =       412.02100717
  PAW double counting   =     27579.73811755   -26829.41772831
  entropy T*S    EENTRO =         0.00000000
  eigenvalues    EBANDS =     -2719.32490244
  atomic energy  EATOM  =     24749.00668030
  Solvation  Ediel_sol  =         0.00000000
  ---------------------------------------------------
  free energy    TOTEN  =      -413.27120460 eV

  energy without entropy =     -413.27120460  energy(sigma->0) =     -413.27120460


--------------------------------------------------------------------------------------------------------




----------------------------------------- Iteration    1(  14)  ---------------------------------------


    POTLOK:  cpu time    0.4360: real time    0.4390
    SETDIJ:  cpu time    0.7520: real time    0.7515
     EDDAV:  cpu time   84.4453: real time   84.4962
       DOS:  cpu time    0.0000: real time    0.0009
    CHARGE:  cpu time    3.3202: real time    3.3242
    MIXING:  cpu time    0.0160: real time    0.0151
    --------------------------------------------
      LOOP:  cpu time   88.9736: real time   89.1528

 eigenvalue-minimisations  :  8920
 total energy-change (2. order) :-0.5781194E-04  (-0.3358739E-04)
 number of electron     400.0000000 magnetization 
 augmentation part        7.7904977 magnetization 

 Broyden mixing:
  rms(total) = 0.64102E-02    rms(broyden)= 0.64101E-02
  rms(prec ) = 0.73637E-02
  weight for this iteration     100.00

 eigenvalues of (default mixing * dielectric matrix)
  average eigenvalue GAMMA=   1.5201
  2.6980  2.6980  1.8576  1.3755  1.0670  1.0670  0.9464  0.9859  0.9859

 Free energy of the ion-electron system (eV)
  ---------------------------------------------------
  alpha Z        PSCENC =       370.05370877
  Ewald energy   TEWEN  =    -15827.14521432
  -Hartree energ DENC   =     -8148.43449353
  -exchange      EXHF   =         0.00000000
  -V(xc)+E(xc)   XCENC  =       412.03906629
  PAW double counting   =     27577.66592131   -26827.32712668
  entropy T*S    EENTRO =        -0.00000000
  eigenvalues    EBANDS =     -2719.12980454
  atomic energy  EATOM  =     24749.00668030
  Solvation  Ediel_sol  =         0.00000000
  ---------------------------------------------------
  free energy    TOTEN  =      -413.27126241 eV

  energy without entropy =     -413.27126241  energy(sigma->0) =     -413.27126241


--------------------------------------------------------------------------------------------------------




----------------------------------------- Iteration    1(  15)  ---------------------------------------


    POTLOK:  cpu time    0.4360: real time    0.4387
    SETDIJ:  cpu time    0.7520: real time    0.7518
     EDDAV:  cpu time   81.6051: real time   81.6561
       DOS:  cpu time    0.0000: real time    0.0010
    CHARGE:  cpu time    3.3202: real time    3.3205
    MIXING:  cpu time    0.0160: real time    0.0154
    --------------------------------------------
[...]
   -.965E+01 0.794E-01 0.392E+02   0.108E+02 -.859E-01 -.421E+02   -.182E+01 0.909E-02 0.455E+01   0.989E-08 0.144E-08 0.210E-07
   0.144E+02 0.189E-02 0.421E+02   -.152E+02 -.285E-02 -.453E+02   0.130E+01 -.259E-03 0.469E+01   -.699E-09 -.551E-08 0.124E-07
   0.194E+02 -.387E+02 -.161E+02   -.211E+02 0.426E+02 0.182E+02   0.223E+01 -.430E+01 -.246E+01   0.249E-07 -.946E-08 -.115E-07
   0.351E+02 -.380E+02 -.287E+01   -.377E+02 0.421E+02 0.351E+01   0.318E+01 -.434E+01 -.660E+00   0.134E-08 -.162E-07 -.588E-08
   0.351E+02 -.380E+02 -.287E+01   -.377E+02 0.421E+02 0.351E+01   0.318E+01 -.434E+01 -.660E+00   0.226E-07 -.695E-08 -.668E-09
   0.194E+02 -.387E+02 -.161E+02   -.211E+02 0.426E+02 0.182E+02   0.223E+01 -.430E+01 -.246E+01   0.255E-09 -.530E-08 -.690E-08
   0.194E+02 -.387E+02 -.161E+02   -.211E+02 0.426E+02 0.182E+02   0.223E+01 -.430E+01 -.246E+01   0.261E-07 -.976E-08 0.116E-08
   0.351E+02 -.380E+02 -.287E+01   -.377E+02 0.421E+02 0.351E+01   0.318E+01 -.434E+01 -.660E+00   -.294E-08 -.589E-08 0.112E-07
   0.351E+02 -.380E+02 -.287E+01   -.377E+02 0.421E+02 0.351E+01   0.318E+01 -.434E+01 -.660E+00   0.191E-07 -.138E-07 0.436E-08
   0.194E+02 -.387E+02 -.161E+02   -.211E+02 0.426E+02 0.182E+02   0.223E+01 -.430E+01 -.246E+01   0.403E-08 -.142E-07 0.246E-08
   0.193E+02 0.388E+02 -.161E+02   -.210E+02 -.427E+02 0.182E+02   0.222E+01 0.431E+01 -.246E+01   0.275E-07 0.518E-08 -.141E-07
   0.351E+02 0.380E+02 -.300E+01   -.377E+02 -.420E+02 0.366E+01   0.318E+01 0.434E+01 -.679E+00   -.232E-08 0.540E-08 -.744E-08
   0.351E+02 0.380E+02 -.300E+01   -.377E+02 -.420E+02 0.366E+01   0.318E+01 0.434E+01 -.679E+00   0.205E-07 0.143E-07 -.335E-08
   0.193E+02 0.388E+02 -.161E+02   -.210E+02 -.427E+02 0.182E+02   0.222E+01 0.431E+01 -.246E+01   0.404E-08 0.128E-07 -.192E-08
   0.193E+02 0.388E+02 -.161E+02   -.210E+02 -.427E+02 0.182E+02   0.222E+01 0.431E+01 -.246E+01   0.246E-07 0.141E-07 0.347E-08
   0.351E+02 0.380E+02 -.300E+01   -.377E+02 -.420E+02 0.366E+01   0.318E+01 0.434E+01 -.679E+00   0.245E-08 0.144E-07 0.128E-07
   0.351E+02 0.380E+02 -.300E+01   -.377E+02 -.420E+02 0.366E+01   0.318E+01 0.434E+01 -.679E+00   0.196E-07 0.866E-08 0.695E-08
   0.193E+02 0.388E+02 -.161E+02   -.210E+02 -.427E+02 0.182E+02   0.222E+01 0.431E+01 -.246E+01   -.900E-09 0.674E-08 -.210E-08
   -.262E+02 -.477E+02 0.254E+02   0.284E+02 0.523E+02 -.279E+02   -.282E+01 -.506E+01 0.288E+01   -.117E-07 -.401E-07 0.439E-08
   -.369E+02 -.451E+02 0.711E+01   0.400E+02 0.497E+02 -.773E+01   -.377E+01 -.505E+01 0.587E+00   -.225E-07 -.227E-07 -.465E-08
   -.369E+02 -.451E+02 0.711E+01   0.400E+02 0.497E+02 -.773E+01   -.377E+01 -.505E+01 0.587E+00   -.700E-09 0.782E-10 -.756E-08
   -.262E+02 -.477E+02 0.254E+02   0.284E+02 0.523E+02 -.279E+02   -.282E+01 -.506E+01 0.288E+01   -.311E-07 -.271E-07 0.186E-07
   -.262E+02 -.477E+02 0.254E+02   0.284E+02 0.523E+02 -.279E+02   -.282E+01 -.506E+01 0.288E+01   -.453E-08 -.162E-07 0.234E-07
   -.369E+02 -.451E+02 0.711E+01   0.400E+02 0.497E+02 -.773E+01   -.377E+01 -.505E+01 0.587E+00   -.273E-07 -.205E-07 0.668E-08
   -.369E+02 -.451E+02 0.711E+01   0.400E+02 0.497E+02 -.773E+01   -.377E+01 -.505E+01 0.587E+00   -.951E-08 -.244E-07 0.472E-08
   -.262E+02 -.477E+02 0.254E+02   0.284E+02 0.523E+02 -.279E+02   -.282E+01 -.506E+01 0.288E+01   -.315E-07 -.332E-07 0.176E-07
   -.263E+02 0.475E+02 0.254E+02   0.285E+02 -.521E+02 -.279E+02   -.283E+01 0.505E+01 0.288E+01   -.410E-08 0.196E-07 0.377E-08
   -.368E+02 0.452E+02 0.689E+01   0.399E+02 -.497E+02 -.749E+01   -.376E+01 0.505E+01 0.562E+00   -.228E-07 0.168E-07 -.793E-08
   -.368E+02 0.452E+02 0.689E+01   0.399E+02 -.497E+02 -.749E+01   -.376E+01 0.505E+01 0.562E+00   -.549E-08 0.246E-07 -.583E-08
   -.263E+02 0.475E+02 0.254E+02   0.285E+02 -.521E+02 -.279E+02   -.283E+01 0.505E+01 0.288E+01   -.317E-07 0.333E-07 0.212E-07
   -.263E+02 0.475E+02 0.254E+02   0.285E+02 -.521E+02 -.279E+02   -.283E+01 0.505E+01 0.288E+01   -.125E-07 0.363E-07 0.244E-07
   -.368E+02 0.452E+02 0.689E+01   0.399E+02 -.497E+02 -.749E+01   -.376E+01 0.505E+01 0.562E+00   -.293E-07 0.242E-07 0.109E-07
   -.368E+02 0.452E+02 0.689E+01   0.399E+02 -.497E+02 -.749E+01   -.376E+01 0.505E+01 0.562E+00   -.242E-08 0.205E-08 0.196E-08
   -.263E+02 0.475E+02 0.254E+02   0.285E+02 -.521E+02 -.279E+02   -.283E+01 0.505E+01 0.288E+01   -.305E-07 0.269E-07 0.146E-07
   -.180E+02 -.249E-03 -.451E+02   0.189E+02 0.146E-02 0.483E+02   -.173E+01 0.192E-02 -.471E+01   -.599E-08 -.406E-08 -.413E-07
   0.210E+02 -.929E-01 -.520E+02   -.225E+02 0.104E+00 0.559E+02   0.207E+01 -.122E-01 -.542E+01   -.457E-08 -.287E-08 -.289E-07
   0.210E+02 -.929E-01 -.520E+02   -.225E+02 0.104E+00 0.559E+02   0.207E+01 -.122E-01 -.542E+01   0.176E-07 0.123E-07 -.297E-07
   -.180E+02 -.249E-03 -.451E+02   0.189E+02 0.146E-02 0.483E+02   -.173E+01 0.192E-02 -.471E+01   -.241E-07 -.730E-09 -.338E-07
   -.180E+02 -.249E-03 -.451E+02   0.189E+02 0.146E-02 0.483E+02   -.173E+01 0.192E-02 -.471E+01   -.279E-08 0.472E-08 -.136E-07
   0.210E+02 -.929E-01 -.520E+02   -.225E+02 0.104E+00 0.559E+02   0.207E+01 -.122E-01 -.542E+01   -.117E-07 -.387E-08 -.904E-08
   0.210E+02 -.929E-01 -.520E+02   -.225E+02 0.104E+00 0.559E+02   0.207E+01 -.122E-01 -.542E+01   0.145E-07 -.589E-08 -.168E-07
   -.180E+02 -.249E-03 -.451E+02   0.189E+02 0.146E-02 0.483E+02   -.173E+01 0.192E-02 -.471E+01   -.295E-07 0.245E-09 -.382E-07
   -.257E+02 0.264E+02 -.115E+02   0.249E+02 -.266E+02 0.112E+02   0.892E+00 0.255E+00 0.273E+00   -.108E-07 0.895E-08 0.128E-06
   -.258E+02 -.263E+02 -.115E+02   0.250E+02 0.265E+02 0.112E+02   0.897E+00 -.248E+00 0.276E+00   -.758E-07 0.853E-07 0.267E-07
   -.258E+02 -.263E+02 -.115E+02   0.250E+02 0.265E+02 0.112E+02   0.897E+00 -.248E+00 0.276E+00   -.562E-07 -.159E-07 -.146E-06
   -.257E+02 0.264E+02 -.115E+02   0.249E+02 -.266E+02 0.112E+02   0.892E+00 0.255E+00 0.273E+00   -.134E-07 -.979E-07 -.668E-07
   -.257E+02 0.264E+02 -.115E+02   0.249E+02 -.266E+02 0.112E+02   0.892E+00 0.255E+00 0.273E+00   -.796E-07 -.572E-07 -.137E-06
   -.258E+02 -.263E+02 -.115E+02   0.250E+02 0.265E+02 0.112E+02   0.897E+00 -.248E+00 0.276E+00   -.750E-08 -.746E-07 -.728E-07
   -.258E+02 -.263E+02 -.115E+02   0.250E+02 0.265E+02 0.112E+02   0.897E+00 -.248E+00 0.276E+00   -.351E-07 0.723E-07 0.862E-07
   -.257E+02 0.264E+02 -.115E+02   0.249E+02 -.266E+02 0.112E+02   0.892E+00 0.255E+00 0.273E+00   -.488E-07 0.879E-07 -.242E-08
   -.165E+02 0.144E+02 0.547E+01   0.166E+02 -.144E+02 -.539E+01   -.503E-01 0.280E-01 -.783E-01   0.112E-07 -.168E-07 0.150E-07
   -.166E+02 -.143E+02 0.544E+01   0.167E+02 0.143E+02 -.536E+01   -.534E-01 -.270E-01 -.793E-01   -.597E-08 -.305E-08 0.679E-07
   -.166E+02 -.143E+02 0.544E+01   0.167E+02 0.143E+02 -.536E+01   -.534E-01 -.270E-01 -.793E-01   0.471E-08 0.153E-07 -.269E-07
   -.165E+02 0.144E+02 0.547E+01   0.166E+02 -.144E+02 -.539E+01   -.503E-01 0.280E-01 -.783E-01   -.644E-08 0.338E-08 0.498E-08
   -.165E+02 0.144E+02 0.547E+01   0.166E+02 -.144E+02 -.539E+01   -.503E-01 0.280E-01 -.783E-01   0.940E-08 -.634E-08 -.166E-07
   -.166E+02 -.143E+02 0.544E+01   0.167E+02 0.143E+02 -.536E+01   -.534E-01 -.270E-01 -.793E-01   -.133E-07 0.343E-08 -.579E-07
   -.166E+02 -.143E+02 0.544E+01   0.167E+02 0.143E+02 -.536E+01   -.534E-01 -.270E-01 -.793E-01   0.101E-07 0.605E-08 0.306E-07
   -.165E+02 0.144E+02 0.547E+01   0.166E+02 -.144E+02 -.539E+01   -.503E-01 0.280E-01 -.783E-01   -.186E-07 -.217E-08 0.123E-07
   0.197E+02 -.802E-01 -.129E+02   -.206E+02 0.816E-01 0.139E+02   0.113E+01 -.153E-02 -.126E+01   0.256E-07 -.212E-07 0.150E-07
   -.435E+02 -.318E-01 -.211E+02   0.444E+02 0.322E-01 0.214E+02   -.112E+01 -.531E-03 -.163E+00   0.232E-07 -.237E-07 -.514E-08
   -.435E+02 -.318E-01 -.211E+02   0.444E+02 0.322E-01 0.214E+02   -.112E+01 -.531E-03 -.163E+00   -.223E-07 0.170E-07 -.532E-08
   0.197E+02 -.802E-01 -.129E+02   -.206E+02 0.816E-01 0.139E+02   0.113E+01 -.153E-02 -.126E+01   -.641E-07 0.273E-07 -.438E-08
   0.197E+02 -.802E-01 -.129E+02   -.206E+02 0.816E-01 0.139E+02   0.113E+01 -.153E-02 -.126E+01   0.452E-07 0.394E-07 0.189E-07
   -.435E+02 -.318E-01 -.211E+02   0.444E+02 0.322E-01 0.214E+02   -.112E+01 -.531E-03 -.163E+00   0.108E-07 0.412E-07 0.680E-09
   -.435E+02 -.318E-01 -.211E+02   0.444E+02 0.322E-01 0.214E+02   -.112E+01 -.531E-03 -.163E+00   -.984E-08 -.374E-07 0.795E-08
   0.197E+02 -.802E-01 -.129E+02   -.206E+02 0.816E-01 0.139E+02   0.113E+01 -.153E-02 -.126E+01   -.274E-07 -.425E-07 -.234E-08
   0.155E+02 0.570E+01 -.435E+01   -.150E+02 -.478E+01 0.419E+01   -.632E+00 -.146E+01 0.283E+00   0.305E-07 -.214E-07 0.236E-07
   0.155E+02 -.574E+01 -.445E+01   -.150E+02 0.483E+01 0.429E+01   -.633E+00 0.145E+01 0.282E+00   -.522E-07 0.372E-07 0.216E-07
   0.155E+02 -.574E+01 -.445E+01   -.150E+02 0.483E+01 0.429E+01   -.633E+00 0.145E+01 0.282E+00   0.499E-07 0.144E-07 -.293E-07
   0.155E+02 0.570E+01 -.435E+01   -.150E+02 -.478E+01 0.419E+01   -.632E+00 -.146E+01 0.283E+00   -.550E-07 -.165E-07 -.262E-07
   0.155E+02 0.570E+01 -.435E+01   -.150E+02 -.478E+01 0.419E+01   -.632E+00 -.146E+01 0.283E+00   0.947E-07 0.338E-08 -.269E-07
   0.155E+02 -.574E+01 -.445E+01   -.150E+02 0.483E+01 0.429E+01   -.633E+00 0.145E+01 0.282E+00   -.739E-07 -.522E-07 -.217E-07
   0.155E+02 -.574E+01 -.445E+01   -.150E+02 0.483E+01 0.429E+01   -.633E+00 0.145E+01 0.282E+00   0.758E-07 0.150E-09 0.208E-07
   0.155E+02 0.570E+01 -.435E+01   -.150E+02 -.478E+01 0.419E+01   -.632E+00 -.146E+01 0.283E+00   -.620E-07 0.353E-07 0.206E-07
 -----------------------------------------------------------------------------------------------
   -.597E+02 -.964E-01 -.107E+02   0.547E-12 0.109E-12 -.148E-12   0.597E+02 0.964E-01 0.107E+02   -.432E-06 0.903E-08 -.138E-06
 
 
 POSITION                                       TOTAL-FORCE (eV/Angst)
 -----------------------------------------------------------------------------------
      2.23988      3.11247      3.37564         0.853340      0.001378     -0.847408
      9.06809      3.11577      2.58370         1.211131     -0.000995      0.013194
      2.78027      9.34358      2.51422         1.211131     -0.000995      0.013194
      8.52890      9.34219      3.44437         0.853340      0.001378     -0.847408
      2.30959      3.11251      9.74935         0.853340      0.001378     -0.847408
      9.13779      3.11582      8.95741         1.211131     -0.000995      0.013194
      2.84997      9.34363      8.88793         1.211131     -0.000995      0.013194
      8.59860      9.34224      9.81808         0.853340      0.001378     -0.847408
      3.79275      3.11417      3.50787        -0.281426     -0.005201      0.576884
     10.23286      3.11687      3.62767        -0.589202     -0.004083     -0.111488
      3.94504      9.34468      3.55820        -0.589202     -0.004083     -0.111488
     10.08177      9.34389      3.57659        -0.281426     -0.005201      0.576884
      3.86246      3.11421      9.88158        -0.281426     -0.005201      0.576884
     10.30257      3.11691     10.00138        -0.589202     -0.004083     -0.111488
      4.01474      9.34472      9.93191        -0.589202     -0.004083     -0.111488
     10.15147      9.34394      9.95030        -0.281426     -0.005201      0.576884
      1.95765      3.11250      2.24972         0.513246     -0.001221      1.531081
      9.52960      3.11358      1.51862        -0.669167      0.002592      1.654090
      3.24178      9.34139      1.44914        -0.669167      0.002592      1.654090
      8.24667      9.34223      2.31844         0.513246     -0.001221      1.531081
      2.02736      3.11255      8.62343         0.513246     -0.001221      1.531081
      9.59930      3.11362      7.89233        -0.669167      0.002592      1.654090
      3.31148      9.34143      7.82285        -0.669167      0.002592      1.654090
      8.31638      9.34227      8.69215         0.513246     -0.001221      1.531081
      1.81207      4.01178      3.88380         0.493900     -0.361089     -0.337280
      8.43052      4.02124      2.74180         0.574933     -0.326145     -0.012876
      2.14270     10.24906      2.67233         0.574933     -0.326145     -0.012876
      8.10109     10.24151      3.95253         0.493900     -0.361089     -0.337280
      1.88178      4.01182     10.25751         0.493900     -0.361089     -0.337280
      8.50023      4.02129      9.11551         0.574933     -0.326145     -0.012876
      2.21241     10.24910      9.04604         0.574933     -0.326145     -0.012876
      8.17080     10.24155     10.32624         0.493900     -0.361089     -0.337280
      1.81496      2.21186      3.88361         0.487262      0.359638     -0.337375
      8.42997      2.21156      2.74568         0.570864      0.322331     -0.017384
      2.14214      8.43937      2.67621         0.570864      0.322331     -0.017384
      8.10398      8.44159      3.95234         0.487262      0.359638     -0.337375
      1.88467      2.21191     10.25733         0.487262      0.359638     -0.337375
      8.49967      2.21161      9.11939         0.570864      0.322331     -0.017384
      2.21185      8.43942      9.04992         0.570864      0.322331     -0.017384
      8.17368      8.44163     10.32605         0.487262      0.359638     -0.337375
      4.24897      3.95152      3.03562        -0.569101     -0.431179      0.413831
     10.86699      3.97068      3.52223        -0.707923     -0.491899     -0.033864
      4.57917     10.19849      3.45275        -0.707923     -0.491899     -0.033864
     10.53799     10.18125      3.10435        -0.569101     -0.431179      0.413831
      4.31868      3.95157      9.40933        -0.569101     -0.431179      0.413831
     10.93669      3.97072      9.89594        -0.707923     -0.491899     -0.033864
      4.64887     10.19853      9.82646        -0.707923     -0.491899     -0.033864
     10.60769     10.18129      9.47806        -0.569101     -0.431179      0.413831
      4.25139      2.27792      3.03532        -0.577174      0.434904      0.414037
     10.86606      2.26157      3.52617        -0.712770      0.498244     -0.040312
      4.57824      8.48938      3.45670        -0.712770      0.498244     -0.040312
     10.54040      8.50765      3.10405        -0.577174      0.434904      0.414037
      4.32109      2.27797      9.40903        -0.577174      0.434904      0.414037
     10.93577      2.26161      9.89988        -0.712770      0.498244     -0.040312
      4.64795      8.48943      9.83041        -0.712770      0.498244     -0.040312
     10.61011      8.50770      9.47776        -0.577174      0.434904      0.414037
      4.17107      3.11386      4.56580        -0.885285      0.003129     -1.429507
      9.84294      3.11942      4.65292         0.483547     -0.001496     -1.492232
      3.55512      9.34724      4.58345         0.483547     -0.001496     -1.492232
     10.46009      9.34358      4.63453        -0.885285      0.003129     -1.429507
      4.24078      3.11390     10.93951        -0.885285      0.003129     -1.429507
      9.91264      3.11947     11.02663         0.483547     -0.001496     -1.492232
      3.62482      9.34728     10.95716         0.483547     -0.001496     -1.492232
     10.52979      9.34363     11.00824        -0.885285      0.003129     -1.429507
      6.01032      6.18523      6.29606         0.032751      0.002995     -0.013934
     12.29923      6.27491      6.36504         0.034054     -0.002636     -0.013829
      6.01021      0.04518      6.29632         0.034054     -0.002636     -0.013829
     12.29934     12.41496      6.36479         0.032751      0.002995     -0.013934
      6.08003      6.18528     12.66977         0.032751      0.002995     -0.013934
     12.36894      6.27495     12.73875         0.034054     -0.002636     -0.013829
      6.07992      0.04523     12.67003         0.034054     -0.002636     -0.013829
     12.36904     12.41500     12.73850         0.032751      0.002995     -0.013934
      5.75229      6.20593      3.09105         0.032263     -0.014835      0.000433
     12.04204      6.25413      3.15987         0.032494      0.014612      0.000312
      5.75303      0.02440      3.09115         0.032494      0.014612      0.000312
     12.04130     12.43566      3.15978         0.032263     -0.014835      0.000433
      5.82199      6.20597      9.46476         0.032263     -0.014835      0.000433
     12.11175      6.25417      9.53358         0.032494      0.014612      0.000312
      5.82273      0.02445      9.46486         0.032494      0.014612      0.000312
     12.11101     12.43570      9.53349         0.032263     -0.014835      0.000433
      4.79606      3.11502      0.36762         0.276999     -0.000125     -0.256596
      0.36882      3.11408     12.73627        -0.217360     -0.000060      0.095333
      6.65783      9.34381     12.80499        -0.217360     -0.000060      0.095333
     11.08507      9.34475      0.43635         0.276999     -0.000125     -0.256596
      4.86576      3.11507      6.74133         0.276999     -0.000125     -0.256596
      0.29911      3.11403      6.36256        -0.217360     -0.000060      0.095333
      6.58813      9.34376      6.43128        -0.217360     -0.000060      0.095333
     11.15478      9.34480      6.81006         0.276999     -0.000125     -0.256596
      2.78354      7.24909      5.90905        -0.193340     -0.541609      0.121132
      9.07218      5.21025      5.97828        -0.194036      0.542750      0.123757
      2.78436     11.43806      5.90881        -0.194036      0.542750      0.123757
      9.07136      1.02128      5.97853        -0.193340     -0.541609      0.121132
      2.85325      7.24914     12.28276        -0.193340     -0.541609      0.121132
      9.14189      5.21030     12.35199        -0.194036      0.542750      0.123757
      2.85407     11.43811     12.28252        -0.194036      0.542750      0.123757
      9.14107      1.02133     12.35224        -0.193340     -0.541609      0.121132
 -----------------------------------------------------------------------------------
    total drift:                               -0.002385      0.000015     -0.001077


--------------------------------------------------------------------------------------------------------



  FREE ENERGIE OF THE ION-ELECTRON SYSTEM (eV)
  ---------------------------------------------------
  free  energy   TOTEN  =      -413.27131806 eV

  energy  without entropy=     -413.27131806  energy(sigma->0) =     -413.27131806
 


--------------------------------------------------------------------------------------------------------


    POTLOK:  cpu time    1.2081: real time    1.2082


--------------------------------------------------------------------------------------------------------


     LOOP+:  cpu time 3621.8223: real time 3625.7933
    4ORBIT:  cpu time    0.0000: real time    0.0000

 total amount of memory used by VASP on root node   697522. kBytes
========================================================================

   base      :      30000. kBytes
   nonl-proj :     325712. kBytes
   fftplans  :      80881. kBytes
   grid      :      57435. kBytes
   one-center:        497. kBytes
   wavefun   :     202997. kBytes
 
  
  
 General timing and accounting informations for this job:
 ========================================================
  
                  Total CPU time used (sec):     3651.196
                            User time (sec):     3649.768
                          System time (sec):        1.428
                         Elapsed time (sec):     3657.161
  
                   Maximum memory used (kb):      650088.
                   Average memory used (kb):           0.
  
                          Minor page faults:       287707
                          Major page faults:            0
                 Voluntary context switches:         1569
