  96  96   0   0
  0.2080188E+02  0.1257760E-08  0.1245754E-08  0.1274818E-08  0.5000000E-15
  1.000000000000000E-004
  CAR 
 MAPbI3-Cubic                            
     10.63976145    -19.62225433  301      1.58637506      1.00000000
    -19.622  0.0000E+00  0.0000E+00
    -19.521  0.0000E+00  0.0000E+00
    -19.421  0.0000E+00  0.0000E+00
    -19.320  0.0000E+00  0.0000E+00
    -19.219  0.0000E+00  0.0000E+00
    -19.118  0.0000E+00  0.0000E+00
    -19.017  0.0000E+00  0.0000E+00
    -18.916  0.0000E+00  0.0000E+00
    -18.815  0.0000E+00  0.0000E+00
    -18.714  0.0000E+00  0.0000E+00
    -18.614  0.0000E+00  0.0000E+00
    -18.513  0.0000E+00  0.0000E+00
    -18.412  0.0000E+00  0.0000E+00
    -18.311  0.0000E+00  0.0000E+00
    -18.210  0.0000E+00  0.1600E+02
    -18.109  0.0000E+00  0.1600E+02
    -18.008  0.0000E+00  0.1600E+02
    -17.907  0.0000E+00  0.1600E+02
    -17.807  0.0000E+00  0.1600E+02
    -17.706  0.0000E+00  0.1600E+02
    -17.605  0.0000E+00  0.1600E+02
    -17.504  0.0000E+00  0.1600E+02
    -17.403  0.0000E+00  0.1600E+02
    -17.302  0.0000E+00  0.1600E+02
    -17.201  0.0000E+00  0.1600E+02
    -17.100  0.0000E+00  0.1600E+02
    -17.000  0.0000E+00  0.1600E+02
    -16.899  0.0000E+00  0.1600E+02
    -16.798  0.0000E+00  0.1600E+02
    -16.697  0.0000E+00  0.1600E+02
    -16.596  0.0000E+00  0.1600E+02
    -16.495  0.0000E+00  0.1600E+02
    -16.394  0.0000E+00  0.4800E+02
    -16.293  0.0000E+00  0.4800E+02
    -16.193  0.0000E+00  0.4800E+02
    -16.092  0.0000E+00  0.4800E+02
    -15.991  0.0000E+00  0.4800E+02
    -15.890  0.0000E+00  0.4800E+02
    -15.789  0.0000E+00  0.4800E+02
    -15.688  0.0000E+00  0.4800E+02
    -15.587  0.0000E+00  0.4800E+02
    -15.486  0.0000E+00  0.4800E+02
    -15.386  0.0000E+00  0.4800E+02
    -15.285  0.0000E+00  0.4800E+02
    -15.184  0.0000E+00  0.4800E+02
    -15.083  0.0000E+00  0.4800E+02
    -14.982  0.0000E+00  0.4800E+02
    -14.881  0.0000E+00  0.4800E+02
    -14.780  0.0000E+00  0.4800E+02
    -14.679  0.0000E+00  0.4800E+02
    -14.579  0.0000E+00  0.4800E+02
    -14.478  0.0000E+00  0.4800E+02
    -14.377  0.0000E+00  0.4800E+02
    -14.276  0.0000E+00  0.4800E+02
    -14.175  0.0000E+00  0.4800E+02
    -14.074  0.0000E+00  0.4800E+02
    -13.973  0.0000E+00  0.4800E+02
    -13.872  0.7796E+02  0.7290E+02
    -13.772  0.0000E+00  0.9600E+02
    -13.671  0.0000E+00  0.9600E+02
    -13.570  0.0000E+00  0.9600E+02
    -13.469  0.0000E+00  0.9600E+02
    -13.368  0.0000E+00  0.9600E+02
    -13.267  0.0000E+00  0.9600E+02
    -13.166  0.0000E+00  0.9600E+02
    -13.065  0.0000E+00  0.9600E+02
    -12.965  0.0000E+00  0.9600E+02
    -12.864  0.0000E+00  0.9600E+02
    -12.763  0.0000E+00  0.9600E+02
    -12.662  0.0000E+00  0.9600E+02
    -12.561  0.0000E+00  0.9600E+02
    -12.460  0.0000E+00  0.9600E+02
    -12.359  0.0000E+00  0.9600E+02
    -12.258  0.0000E+00  0.9600E+02
    -12.158  0.0000E+00  0.9600E+02
    -12.057  0.0000E+00  0.9600E+02
    -11.956  0.0000E+00  0.9600E+02
    -11.855  0.0000E+00  0.9600E+02
    -11.754  0.0000E+00  0.9600E+02
    -11.653  0.0000E+00  0.9600E+02
    -11.552  0.0000E+00  0.9600E+02
    -11.452  0.0000E+00  0.9600E+02
    -11.351  0.4199E+02  0.1035E+03
    -11.250  0.0000E+00  0.1120E+03
    -11.149  0.0000E+00  0.1120E+03
    -11.048  0.0000E+00  0.1120E+03
    -10.947  0.0000E+00  0.1120E+03
    -10.846  0.0000E+00  0.1120E+03
    -10.745  0.3691E-03  0.1133E+03
    -10.645  0.4843E+01  0.1171E+03
    -10.544  0.4866E+01  0.1230E+03
    -10.443  0.7316E+00  0.1282E+03
    -10.342  0.5595E+01  0.1304E+03
    -10.241  0.7326E+01  0.1400E+03
    -10.140  0.7343E+00  0.1436E+03
    -10.039  0.1526E+02  0.1524E+03
     -9.938  0.2938E+01  0.1594E+03
     -9.838  0.0000E+00  0.1600E+03
     -9.737  0.0000E+00  0.1600E+03
     -9.636  0.0000E+00  0.1600E+03
     -9.535  0.0000E+00  0.1600E+03
     -9.434  0.0000E+00  0.1600E+03
     -9.333  0.0000E+00  0.1600E+03
     -9.232  0.0000E+00  0.1600E+03
     -9.131  0.0000E+00  0.1600E+03
     -9.031  0.0000E+00  0.1600E+03
     -8.930  0.0000E+00  0.1600E+03
     -8.829  0.0000E+00  0.1600E+03
     -8.728  0.0000E+00  0.1600E+03
     -8.627  0.0000E+00  0.1600E+03
     -8.526  0.0000E+00  0.1600E+03
     -8.425  0.0000E+00  0.1600E+03
     -8.324  0.0000E+00  0.1600E+03
     -8.224  0.0000E+00  0.1600E+03
     -8.123  0.0000E+00  0.1600E+03
     -8.022  0.0000E+00  0.1600E+03
     -7.921  0.0000E+00  0.1600E+03
     -7.820  0.0000E+00  0.1600E+03
     -7.719  0.0000E+00  0.1680E+03
     -7.618  0.0000E+00  0.1840E+03
     -7.517  0.0000E+00  0.1920E+03
     -7.417  0.0000E+00  0.1920E+03
     -7.316  0.0000E+00  0.1920E+03
     -7.215  0.0000E+00  0.1920E+03
     -7.114  0.0000E+00  0.1920E+03
     -7.013  0.0000E+00  0.1920E+03
     -6.912  0.0000E+00  0.1921E+03
     -6.811  0.1293E+01  0.1924E+03
     -6.710  0.2447E-07  0.1925E+03
     -6.610  0.0000E+00  0.1934E+03
     -6.509  0.7343E+00  0.1944E+03
     -6.408  0.2765E+01  0.1960E+03
     -6.307  0.2103E+01  0.1977E+03
     -6.206  0.0000E+00  0.1991E+03
     -6.105  0.0000E+00  0.2009E+03
     -6.004  0.1147E+01  0.2032E+03
     -5.903  0.3672E+01  0.2052E+03
     -5.803  0.1469E+01  0.2136E+03
     -5.702  0.4031E+01  0.2221E+03
     -5.601  0.2444E-01  0.2232E+03
     -5.500  0.0000E+00  0.2235E+03
     -5.399  0.0000E+00  0.2239E+03
     -5.298  0.0000E+00  0.2240E+03
     -5.197  0.0000E+00  0.2240E+03
     -5.096  0.0000E+00  0.2240E+03
     -4.996  0.0000E+00  0.2240E+03
     -4.895  0.0000E+00  0.2240E+03
     -4.794  0.0000E+00  0.2240E+03
     -4.693  0.0000E+00  0.2240E+03
     -4.592  0.0000E+00  0.2240E+03
     -4.491  0.0000E+00  0.2240E+03
     -4.390  0.0000E+00  0.2240E+03
     -4.289  0.0000E+00  0.2240E+03
     -4.189  0.0000E+00  0.2240E+03
     -4.088  0.0000E+00  0.2240E+03
     -3.987  0.0000E+00  0.2240E+03
     -3.886  0.0000E+00  0.2240E+03
     -3.785  0.0000E+00  0.2240E+03
     -3.684  0.0000E+00  0.2240E+03
     -3.583  0.1555E+02  0.2297E+03
     -3.483  0.0000E+00  0.2560E+03
     -3.382  0.0000E+00  0.2560E+03
     -3.281  0.0000E+00  0.2560E+03
     -3.180  0.0000E+00  0.2560E+03
     -3.079  0.0000E+00  0.2560E+03
     -2.978  0.0000E+00  0.2560E+03
     -2.877  0.0000E+00  0.2560E+03
     -2.776  0.0000E+00  0.2560E+03
     -2.676  0.0000E+00  0.2560E+03
     -2.575  0.0000E+00  0.2560E+03
     -2.474  0.0000E+00  0.2560E+03
     -2.373  0.0000E+00  0.2560E+03
     -2.272  0.0000E+00  0.2560E+03
     -2.171  0.7343E+00  0.2564E+03
     -2.070  0.2298E+01  0.2591E+03
     -1.969  0.2937E+01  0.2621E+03
     -1.869  0.2917E+01  0.2648E+03
     -1.768  0.3053E+01  0.2673E+03
     -1.667  0.5846E+01  0.2717E+03
     -1.566  0.3664E+01  0.2753E+03
     -1.465  0.2203E+01  0.2789E+03
     -1.364  0.0000E+00  0.2798E+03
     -1.263  0.2166E-04  0.2801E+03
     -1.162  0.2227E+01  0.2835E+03
     -1.062  0.4258E+01  0.2862E+03
     -0.961  0.5703E+01  0.2921E+03
     -0.860  0.4703E+01  0.2963E+03
     -0.759  0.1246E+01  0.3002E+03
     -0.658  0.2933E+01  0.3024E+03
     -0.557  0.2252E+01  0.3066E+03
     -0.456  0.5971E+01  0.3125E+03
     -0.355  0.5039E+01  0.3187E+03
     -0.255  0.4482E-02  0.3221E+03
     -0.154  0.5274E+01  0.3274E+03
     -0.053  0.5845E+01  0.3357E+03
      0.048  0.4373E+01  0.3441E+03
      0.149  0.1615E+01  0.3508E+03
      0.250  0.4405E+01  0.3542E+03
      0.351  0.4978E+01  0.3596E+03
      0.452  0.6273E+01  0.3649E+03
      0.552  0.1757E+01  0.3707E+03
      0.653  0.5141E+01  0.3779E+03
      0.754  0.9277E+01  0.3863E+03
      0.855  0.5542E+01  0.3923E+03
      0.956  0.4385E+01  0.3956E+03
      1.057  0.1880E+01  0.3973E+03
      1.158  0.7344E+00  0.3988E+03
      1.259  0.0000E+00  0.3994E+03
      1.359  0.7049E+00  0.3998E+03
      1.460  0.0000E+00  0.3999E+03
      1.561  0.0000E+00  0.4000E+03
      1.662  0.0000E+00  0.4000E+03
      1.763  0.0000E+00  0.4000E+03
      1.864  0.0000E+00  0.4000E+03
      1.965  0.0000E+00  0.4000E+03
      2.066  0.0000E+00  0.4000E+03
      2.166  0.7329E+00  0.4001E+03
      2.267  0.0000E+00  0.4001E+03
      2.368  0.0000E+00  0.4002E+03
      2.469  0.0000E+00  0.4003E+03
      2.570  0.0000E+00  0.4004E+03
      2.671  0.7343E+00  0.4007E+03
      2.772  0.0000E+00  0.4011E+03
      2.873  0.0000E+00  0.4019E+03
      2.973  0.0000E+00  0.4022E+03
      3.074  0.0000E+00  0.4028E+03
      3.175  0.1394E+01  0.4040E+03
      3.276  0.4580E-04  0.4046E+03
      3.377  0.8916E-11  0.4056E+03
      3.478  0.0000E+00  0.4066E+03
      3.579  0.7343E+00  0.4082E+03
      3.679  0.7343E+00  0.4093E+03
      3.780  0.1469E+01  0.4096E+03
      3.881  0.1469E+01  0.4110E+03
      3.982  0.1469E+01  0.4121E+03
      4.083  0.7591E-05  0.4133E+03
      4.184  0.1443E+01  0.4148E+03
      4.285  0.6068E+00  0.4167E+03
      4.386  0.7309E+00  0.4187E+03
      4.486  0.1333E-01  0.4201E+03
      4.587  0.0000E+00  0.4214E+03
      4.688  0.2186E+01  0.4226E+03
      4.789  0.5002E-03  0.4231E+03
      4.890  0.0000E+00  0.4241E+03
      4.991  0.0000E+00  0.4249E+03
      5.092  0.1469E+01  0.4253E+03
      5.193  0.2203E+01  0.4266E+03
      5.293  0.1469E+01  0.4279E+03
      5.394  0.2938E+01  0.4295E+03
      5.495  0.4411E-06  0.4321E+03
      5.596  0.3672E+01  0.4360E+03
      5.697  0.0000E+00  0.4381E+03
      5.798  0.3672E+01  0.4405E+03
      5.899  0.2810E+01  0.4430E+03
      6.000  0.0000E+00  0.4461E+03
      6.100  0.2487E+01  0.4497E+03
      6.201  0.7343E+00  0.4539E+03
      6.302  0.1468E+01  0.4585E+03
      6.403  0.2738E+01  0.4625E+03
      6.504  0.4515E+01  0.4681E+03
      6.605  0.2204E+01  0.4733E+03
      6.706  0.5034E+01  0.4781E+03
      6.807  0.4067E+01  0.4818E+03
      6.907  0.3746E+01  0.4864E+03
      7.008  0.1469E+01  0.4893E+03
      7.109  0.3688E+01  0.4932E+03
      7.210  0.2386E+01  0.4988E+03
      7.311  0.7343E+00  0.5031E+03
      7.412  0.5266E+01  0.5083E+03
      7.513  0.7920E+01  0.5127E+03
      7.614  0.5300E+01  0.5168E+03
      7.714  0.4030E+01  0.5217E+03
      7.815  0.3173E+01  0.5271E+03
      7.916  0.4285E+01  0.5329E+03
      8.017  0.7811E+00  0.5381E+03
      8.118  0.3728E+01  0.5427E+03
      8.219  0.7189E+00  0.5484E+03
      8.320  0.2232E+01  0.5535E+03
      8.421  0.8142E+01  0.5599E+03
      8.521  0.6016E+01  0.5667E+03
      8.622  0.9376E+01  0.5728E+03
      8.723  0.3453E+01  0.5781E+03
      8.824  0.7449E+01  0.5834E+03
      8.925  0.8322E+01  0.5902E+03
      9.026  0.1836E+01  0.5954E+03
      9.127  0.4171E+01  0.5982E+03
      9.228  0.3708E+00  0.5999E+03
      9.328  0.0000E+00  0.6000E+03
      9.429  0.0000E+00  0.6000E+03
      9.530  0.0000E+00  0.6000E+03
      9.631  0.0000E+00  0.6000E+03
      9.732  0.0000E+00  0.6000E+03
      9.833  0.0000E+00  0.6000E+03
      9.934  0.0000E+00  0.6000E+03
     10.035  0.0000E+00  0.6000E+03
     10.135  0.0000E+00  0.6000E+03
     10.236  0.0000E+00  0.6000E+03
     10.337  0.0000E+00  0.6000E+03
     10.438  0.0000E+00  0.6000E+03
     10.539  0.0000E+00  0.6000E+03
     10.640  0.0000E+00  0.6000E+03
