 vasp.5.4.1 24Jun15 (build Nov 25 2015 16:39:35) complex                        
  
 executed on         CrayXC-Intel date 2016.06.27  20:09:14
 running on  864 total cores
 distrk:  each k-point on   96 cores,    9 groups
 distr:  one band on NCORES_PER_BAND=  12 cores,    8 groups


--------------------------------------------------------------------------------------------------------


 INCAR:
 POTCAR:    PAW_PBE C 08Apr2002                   
 POTCAR:    PAW_PBE N 08Apr2002                   
 POTCAR:    PAW_PBE H 15Jun2001                   
 POTCAR:    PAW_PBE Pb_d 06Sep2000                
 POTCAR:    PAW_PBE I 08Apr2002                   

 ----------------------------------------------------------------------------- 
|                                                                             |
|           W    W    AA    RRRRR   N    N  II  N    N   GGGG   !!!           |
|           W    W   A  A   R    R  NN   N  II  NN   N  G    G  !!!           |
|           W    W  A    A  R    R  N N  N  II  N N  N  G       !!!           |
|           W WW W  AAAAAA  RRRRR   N  N N  II  N  N N  G  GGG   !            |
|           WW  WW  A    A  R   R   N   NN  II  N   NN  G    G                |
|           W    W  A    A  R    R  N    N  II  N    N   GGGG   !!!           |
|                                                                             |
|      For optimal performance we recommend to set                            |
|        NCORE= 4 - approx SQRT( number of cores)                             |
|      NCORE specifies how many cores store one orbital (NPAR=cpu/NCORE).     |
|      This setting can  greatly improve the performance of VASP for DFT.     |
|      The default, NPAR=number of cores might be grossly inefficient         |
|      on modern multi-core architectures or massively parallel machines.     |
|      Do your own testing !!!!                                               |
|      Unfortunately you need to use the default for GW and RPA calculations. |
|      (for HF NCORE is supported but not extensively tested yet)             |
|                                                                             |
 ----------------------------------------------------------------------------- 


 ----------------------------------------------------------------------------- 
|                                                                             |
|           W    W    AA    RRRRR   N    N  II  N    N   GGGG   !!!           |
|           W    W   A  A   R    R  NN   N  II  NN   N  G    G  !!!           |
|           W    W  A    A  R    R  N N  N  II  N N  N  G       !!!           |
|           W WW W  AAAAAA  RRRRR   N  N N  II  N  N N  G  GGG   !            |
|           WW  WW  A    A  R   R   N   NN  II  N   NN  G    G                |
|           W    W  A    A  R    R  N    N  II  N    N   GGGG   !!!           |
|                                                                             |
|      You have enabled k-point parallelism (KPAR>1).                         |
|      This developmental code was originally  written by Paul Kent at ORNL,  |
|      and carefully double checked in Vienna.                                |
|      GW as well as linear response parallelism added by Martijn Marsman     |
|      and Georg Kresse.                                                      |
|      Carefully verify results versus KPAR=1.                                |
|      Report problems to Paul Kent and Vienna.                               |
|                                                                             |
 ----------------------------------------------------------------------------- 

 POTCAR:    PAW_PBE C 08Apr2002                   
   VRHFIN =C: s2p2                                                              
   LEXCH  = PE                                                                  
   EATOM  =   147.1560 eV,   10.8157 Ry                                         
                                                                                
   TITEL  = PAW_PBE C 08Apr2002                                                 
   LULTRA =        F    use ultrasoft PP ?                                      
   IUNSCR =        1    unscreen: 0-lin 1-nonlin 2-no                           
   RPACOR =    1.200    partial core radius                                     
   POMASS =   12.011; ZVAL   =    4.000    mass and valenz                      
   RCORE  =    1.500    outmost cutoff radius                                   
   RWIGS  =    1.630; RWIGS  =    0.863    wigner-seitz radius (au A)           
   ENMAX  =  400.000; ENMIN  =  300.000 eV                                      
   ICORE  =        2    local potential                                         
   LCOR   =        T    correct aug charges                                     
   LPAW   =        T    paw PP                                                  
   EAUG   =  644.873                                                            
   DEXC   =    0.000                                                            
   RMAX   =    1.529    core radius for proj-oper                               
   RAUG   =    1.300    factor for augmentation sphere                          
   RDEP   =    1.501    radius for radial grids                                 
   RDEPT  =    1.300    core radius for aug-charge                              
                                                                                
   Atomic configuration                                                         
    4 entries                                                                   
     n  l   j            E        occ.                                          
     1  0  0.50      -273.3789   2.0000                                         
     2  0  0.50       -13.7508   2.0000                                         
     2  1  0.50        -5.2854   2.0000                                         
     3  2  1.50        -5.4423   0.0000                                         
   Description                                                                  
     l       E           TYP  RCUT    TYP  RCUT                                 
     0    -13.7508458     23  1.200                                             
     0     -8.2022199     23  1.200                                             
     1     -5.2854383     23  1.500                                             
     1     34.0145650     23  1.500                                             
     2     -5.4423304      7  1.500                                             
  local pseudopotential read in
  partial core-charges read in
  partial kinetic energy density read in
  atomic valenz-charges read in
  non local Contribution for L=           0  read in
    real space projection operators read in
  non local Contribution for L=           0  read in
    real space projection operators read in
  non local Contribution for L=           1  read in
    real space projection operators read in
  non local Contribution for L=           1  read in
    real space projection operators read in
    PAW grid and wavefunctions read in
 
   number of l-projection  operators is LMAX  =           4
   number of lm-projection operators is LMMAX =           8
 
 POTCAR:    PAW_PBE N 08Apr2002                   
   VRHFIN =N: s2p3                                                              
   LEXCH  = PE                                                                  
   EATOM  =   264.5486 eV,   19.4438 Ry                                         
                                                                                
   TITEL  = PAW_PBE N 08Apr2002                                                 
   LULTRA =        F    use ultrasoft PP ?                                      
   IUNSCR =        1    unscreen: 0-lin 1-nonlin 2-no                           
   RPACOR =    1.200    partial core radius                                     
   POMASS =   14.001; ZVAL   =    5.000    mass and valenz                      
   RCORE  =    1.500    outmost cutoff radius                                   
   RWIGS  =    1.400; RWIGS  =    0.741    wigner-seitz radius (au A)           
   ENMAX  =  400.000; ENMIN  =  300.000 eV                                      
   ICORE  =        2    local potential                                         
   LCOR   =        T    correct aug charges                                     
   LPAW   =        T    paw PP                                                  
   EAUG   =  627.112                                                            
   DEXC   =    0.000                                                            
   RMAX   =    1.529    core radius for proj-oper                               
   RAUG   =    1.300    factor for augmentation sphere                          
   RDEP   =    1.514    radius for radial grids                                 
   RDEPT  =    1.338    core radius for aug-charge                              
                                                                                
   Atomic configuration                                                         
    4 entries                                                                   
     n  l   j            E        occ.                                          
     1  0  0.50      -384.7179   2.0000                                         
     2  0  0.50       -18.5828   2.0000                                         
     2  1  0.50        -7.0898   3.0000                                         
     3  2  1.50        -6.8029   0.0000                                         
   Description                                                                  
     l       E           TYP  RCUT    TYP  RCUT                                 
     0    -18.5828119     23  1.200                                             
     0    -13.5018863     23  1.200                                             
     1     -7.0897853     23  1.500                                             
     1      9.5240782     23  1.500                                             
     2     -6.8029130      7  1.500                                             
  local pseudopotential read in
  partial core-charges read in
  partial kinetic energy density read in
  atomic valenz-charges read in
  non local Contribution for L=           0  read in
    real space projection operators read in
  non local Contribution for L=           0  read in
    real space projection operators read in
  non local Contribution for L=           1  read in
    real space projection operators read in
  non local Contribution for L=           1  read in
    real space projection operators read in
    PAW grid and wavefunctions read in
 
   number of l-projection  operators is LMAX  =           4
   number of lm-projection operators is LMMAX =           8
 
 POTCAR:    PAW_PBE H 15Jun2001                   
   VRHFIN =H: ultrasoft test                                                    
   LEXCH  = PE                                                                  
   EATOM  =    12.4884 eV,    0.9179 Ry                                         
                                                                                
   TITEL  = PAW_PBE H 15Jun2001                                                 
   LULTRA =        F    use ultrasoft PP ?                                      
   IUNSCR =        0    unscreen: 0-lin 1-nonlin 2-no                           
   RPACOR =    0.000    partial core radius                                     
   POMASS =    1.000; ZVAL   =    1.000    mass and valenz                      
   RCORE  =    1.100    outmost cutoff radius                                   
   RWIGS  =    0.700; RWIGS  =    0.370    wigner-seitz radius (au A)           
   ENMAX  =  250.000; ENMIN  =  200.000 eV                                      
   RCLOC  =    0.701    cutoff for local pot                                    
   LCOR   =        T    correct aug charges                                     
   LPAW   =        T    paw PP                                                  
   EAUG   =  400.000                                                            
   RMAX   =    1.123    core radius for proj-oper                               
   RAUG   =    1.200    factor for augmentation sphere                          
   RDEP   =    1.112    radius for radial grids                                 
   RDEPT  =    0.926    core radius for aug-charge                              
                                                                                
   Atomic configuration                                                         
    2 entries                                                                   
     n  l   j            E        occ.                                          
     1  0  0.50        -6.4927   1.0000                                         
     2  1  0.50        -3.4015   0.0000                                         
   Description                                                                  
     l       E           TYP  RCUT    TYP  RCUT                                 
     0     -6.4927494     23  1.100                                             
     0      6.8029130     23  1.100                                             
     1     -4.0817478     23  1.100                                             
  local pseudopotential read in
  atomic valenz-charges read in
  non local Contribution for L=           0  read in
    real space projection operators read in
  non local Contribution for L=           0  read in
    real space projection operators read in
  non local Contribution for L=           1  read in
    real space projection operators read in
    PAW grid and wavefunctions read in
 
   number of l-projection  operators is LMAX  =           3
   number of lm-projection operators is LMMAX =           5
 
 POTCAR:    PAW_PBE Pb_d 06Sep2000                
   VRHFIN =Pb:                                                                  
   LEXCH  = PE                                                                  
   EATOM  =  1661.6185 eV,  122.1255 Ry                                         
                                                                                
   TITEL  = PAW_PBE Pb_d 06Sep2000                                              
   LULTRA =        F    use ultrasoft PP ?                                      
   IUNSCR =        1    unscreen: 0-lin 1-nonlin 2-no                           
   RPACOR =    2.200    partial core radius                                     
   POMASS =  207.200; ZVAL   =   14.000    mass and valenz                      
   RCORE  =    2.500    outmost cutoff radius                                   
   RWIGS  =    3.260; RWIGS  =    1.725    wigner-seitz radius (au A)           
   ENMAX  =  237.835; ENMIN  =  178.376 eV                                      
   ICORE  =        3    local potential                                         
   LCOR   =        T    correct aug charges                                     
   LPAW   =        T    paw PP                                                  
   EAUG   =  391.914                                                            
   DEXC   =    0.000                                                            
   RMAX   =    2.565    core radius for proj-oper                               
   RAUG   =    1.300    factor for augmentation sphere                          
   RDEP   =    2.643    radius for radial grids                                 
   RDEPT  =    2.092    core radius for aug-charge                              
                                                                                
   Atomic configuration                                                         
   16 entries                                                                   
     n  l   j            E        occ.                                          
     1  0  0.50    -88091.8466   2.0000                                         
     2  0  0.50    -15753.4197   2.0000                                         
     2  1  1.50    -13508.1797   6.0000                                         
     3  0  0.50     -3781.7194   2.0000                                         
     3  1  1.50     -3138.2529   6.0000                                         
     3  2  2.50     -2483.2977  10.0000                                         
     4  0  0.50      -856.2895   2.0000                                         
     4  1  1.50      -645.4942   6.0000                                         
     4  2  2.50      -401.8768  10.0000                                         
     4  3  3.50      -132.9059  14.0000                                         
     5  0  0.50      -144.0950   2.0000                                         
     5  1  1.50       -85.7879   6.0000                                         
     5  2  2.50       -21.1769  10.0000                                         
     6  0  0.50       -12.0372   2.0000                                         
     6  1  1.50        -3.4971   2.0000                                         
     5  3  2.50        -2.7212   0.0000                                         
   Description                                                                  
     l       E           TYP  RCUT    TYP  RCUT                                 
     2    -21.1768523     23  2.500                                             
     2      1.3605826     23  2.500                                             
     0    -12.0371562     23  2.500                                             
     0     13.6058260     23  2.500                                             
     1     -3.4971339     23  2.500                                             
     1     13.6058260     23  2.500                                             
     3     -1.3605826      7  2.500                                             
  local pseudopotential read in
  partial core-charges read in
  partial kinetic energy density read in
  atomic valenz-charges read in
  non local Contribution for L=           2  read in
    real space projection operators read in
  non local Contribution for L=           2  read in
    real space projection operators read in
  non local Contribution for L=           0  read in
    real space projection operators read in
  non local Contribution for L=           0  read in
    real space projection operators read in
  non local Contribution for L=           1  read in
    real space projection operators read in
  non local Contribution for L=           1  read in
    real space projection operators read in
    PAW grid and wavefunctions read in
 
   number of l-projection  operators is LMAX  =           6
   number of lm-projection operators is LMMAX =          18
 
 POTCAR:    PAW_PBE I 08Apr2002                   
   VRHFIN =I : s2p5                                                             
   LEXCH  = PE                                                                  
   EATOM  =   315.8678 eV,   23.2156 Ry                                         
                                                                                
   TITEL  = PAW_PBE I 08Apr2002                                                 
   LULTRA =        F    use ultrasoft PP ?                                      
   IUNSCR =        1    unscreen: 0-lin 1-nonlin 2-no                           
   RPACOR =    2.200    partial core radius                                     
   POMASS =  126.904; ZVAL   =    7.000    mass and valenz                      
   RCORE  =    2.300    outmost cutoff radius                                   
   RWIGS  =    2.810; RWIGS  =    1.487    wigner-seitz radius (au A)           
   ENMAX  =  175.647; ENMIN  =  131.735 eV                                      
   ICORE  =        3    local potential                                         
   LCOR   =        T    correct aug charges                                     
   LPAW   =        T    paw PP                                                  
   EAUG   =  370.139                                                            
   DEXC   =    0.000                                                            
   RMAX   =    2.359    core radius for proj-oper                               
   RAUG   =    1.300    factor for augmentation sphere                          
   RDEP   =    2.392    radius for radial grids                                 
   RDEPT  =    2.170    core radius for aug-charge                              
                                                                                
   Atomic configuration                                                         
   13 entries                                                                   
     n  l   j            E        occ.                                          
     1  0  0.50    -32976.3739   2.0000                                         
     2  0  0.50     -5094.5933   2.0000                                         
     2  1  1.50     -4572.0131   6.0000                                         
     3  0  0.50     -1028.2813   2.0000                                         
     3  1  1.50      -859.0250   6.0000                                         
     3  2  2.50      -605.7620  10.0000                                         
     4  0  0.50      -180.5540   2.0000                                         
     4  1  1.50      -127.5306   6.0000                                         
     4  2  2.50       -50.2720  10.0000                                         
     5  0  0.50       -17.4058   2.0000                                         
     5  1  0.50        -7.0851   5.0000                                         
     5  2  1.50        -7.0750   0.0000                                         
     4  3  2.50        -7.0750   0.0000                                         
   Description                                                                  
     l       E           TYP  RCUT    TYP  RCUT                                 
     0    -17.4058016     23  2.300                                             
     0    -18.7663842     23  2.300                                             
     1     -7.0850686     23  2.300                                             
     1     -4.2150896     23  2.300                                             
     2     -7.0750295     23  2.300                                             
     3     -1.3605826     23  2.300                                             
  local pseudopotential read in
  partial core-charges read in
  partial kinetic energy density read in
  atomic valenz-charges read in
  non local Contribution for L=           0  read in
    real space projection operators read in
  non local Contribution for L=           0  read in
    real space projection operators read in
  non local Contribution for L=           1  read in
    real space projection operators read in
  non local Contribution for L=           1  read in
    real space projection operators read in
  non local Contribution for L=           2  read in
    real space projection operators read in
    PAW grid and wavefunctions read in
 
   number of l-projection  operators is LMAX  =           5
   number of lm-projection operators is LMMAX =          13
 

 ----------------------------------------------------------------------------- 
|                                                                             |
|  ADVICE TO THIS USER RUNNING 'VASP/VAMP'   (HEAR YOUR MASTER'S VOICE ...):  |
|                                                                             |
|      You have a (more or less) 'large supercell' and for larger cells       |
|      it might be more efficient to use real space projection opertators     |
|      So try LREAL= Auto  in the INCAR   file.                               |
|      Mind: At the moment your POTCAR file does not contain real space       |
|       projectors, and has to be modified,  BUT if you                       |
|      want to do an extremely  accurate calculation you might also keep the  |
|      reciprocal projection scheme          (i.e. LREAL=.FALSE.)             |
|                                                                             |
 ----------------------------------------------------------------------------- 


 ----------------------------------------------------------------------------- 
|                                                                             |
|  ADVICE TO THIS USER RUNNING 'VASP/VAMP'   (HEAR YOUR MASTER'S VOICE ...):  |
|                                                                             |
|      You enforced a specific xc-type in the INCAR file,                     |
|      a different type was found on the POTCAR file                          |
|          I HOPE YOU KNOW, WHAT YOU ARE  DOING                               |
|                                                                             |
 ----------------------------------------------------------------------------- 

  PAW_PBE C 08Apr2002                   :
 energy of atom  1       EATOM= -147.1560
 kinetic energy error for atom=    0.0032 (will be added to EATOM!!)
  PAW_PBE N 08Apr2002                   :
 energy of atom  2       EATOM= -264.5486
 kinetic energy error for atom=    0.0061 (will be added to EATOM!!)
  PAW_PBE H 15Jun2001                   :
 energy of atom  3       EATOM=  -12.4884
 kinetic energy error for atom=    0.0002 (will be added to EATOM!!)
  PAW_PBE Pb_d 06Sep2000                :
 energy of atom  4       EATOM=-1661.6185
 kinetic energy error for atom=    0.0012 (will be added to EATOM!!)
  PAW_PBE I 08Apr2002                   :
 energy of atom  5       EATOM= -315.8678
 kinetic energy error for atom=    0.0003 (will be added to EATOM!!)
 
 
 POSCAR: C N H Pb I                              
  positions in direct lattice
  No initial velocities read in
 exchange correlation table for  LEXCH =       14
   RHO(1)=    0.500       N(1)  =     2000
   RHO(2)=  100.500       N(2)  =     4000
 


--------------------------------------------------------------------------------------------------------


 ion  position               nearest neighbor table
   1  0.198  0.250  0.229-  25 1.10  33 1.10  17 1.10   9 1.49
   2  0.696  0.250  0.229-  26 1.10  34 1.10  18 1.10  10 1.49
   3  0.196  0.750  0.229-  27 1.10  35 1.10  19 1.10  11 1.49
   4  0.698  0.750  0.229-  28 1.10  36 1.10  20 1.10  12 1.49
   5  0.196  0.250  0.729-  29 1.10  37 1.10  21 1.10  13 1.49
   6  0.698  0.250  0.729-  30 1.10  38 1.10  22 1.10  14 1.49
   7  0.198  0.750  0.729-  31 1.10  39 1.10  23 1.10  15 1.49
   8  0.696  0.750  0.729-  32 1.10  40 1.10  24 1.10  16 1.49
   9  0.309  0.250  0.264-  41 1.05  49 1.05  57 1.05   1 1.49
  10  0.800  0.250  0.284-  58 1.04  42 1.05  50 1.05   2 1.49
  11  0.300  0.750  0.284-  59 1.04  43 1.05  51 1.05   3 1.49
  12  0.809  0.750  0.264-  44 1.05  52 1.05  60 1.05   4 1.49
  13  0.300  0.250  0.784-  61 1.04  45 1.05  53 1.05   5 1.49
  14  0.809  0.250  0.764-  46 1.05  54 1.05  62 1.05   6 1.49
  15  0.309  0.750  0.764-  47 1.05  55 1.05  63 1.05   7 1.49
  16  0.800  0.750  0.784-  64 1.04  48 1.05  56 1.05   8 1.49
  17  0.197  0.250  0.142-   1 1.10
  18  0.713  0.250  0.144-   2 1.10
  19  0.213  0.750  0.144-   3 1.10
  20  0.697  0.750  0.142-   4 1.10
  21  0.213  0.250  0.644-   5 1.10
  22  0.697  0.250  0.642-   6 1.10
  23  0.197  0.750  0.642-   7 1.10
  24  0.713  0.750  0.644-   8 1.10
  25  0.157  0.322  0.259-   1 1.10
  26  0.652  0.322  0.252-   2 1.10
  27  0.152  0.822  0.252-   3 1.10
  28  0.657  0.822  0.259-   4 1.10
  29  0.152  0.322  0.752-   5 1.10
  30  0.657  0.322  0.759-   6 1.10
  31  0.157  0.822  0.759-   7 1.10
  32  0.652  0.822  0.752-   8 1.10
  33  0.157  0.177  0.259-   1 1.10
  34  0.652  0.177  0.252-   2 1.10
  35  0.152  0.677  0.252-   3 1.10
  36  0.657  0.677  0.259-   4 1.10
  37  0.152  0.177  0.752-   5 1.10
  38  0.657  0.177  0.759-   6 1.10
  39  0.157  0.677  0.759-   7 1.10
  40  0.652  0.677  0.752-   8 1.10
  41  0.351  0.318  0.237-   9 1.05
  42  0.845  0.318  0.265-  10 1.05
  43  0.345  0.818  0.265-  11 1.05
  44  0.851  0.818  0.237-  12 1.05
  45  0.345  0.318  0.765-  13 1.05
  46  0.851  0.318  0.737-  14 1.05
  47  0.351  0.818  0.737-  15 1.05
  48  0.845  0.818  0.765-  16 1.05
  49  0.351  0.182  0.237-   9 1.05
  50  0.845  0.182  0.265-  10 1.05
  51  0.345  0.682  0.265-  11 1.05
  52  0.851  0.682  0.237-  12 1.05
  53  0.345  0.182  0.765-  13 1.05
  54  0.851  0.182  0.737-  14 1.05
  55  0.351  0.682  0.737-  15 1.05
  56  0.845  0.682  0.765-  16 1.05
  57  0.317  0.250  0.346-   9 1.05
  58  0.790  0.250  0.365-  10 1.04
  59  0.290  0.750  0.365-  11 1.04
  60  0.817  0.750  0.346-  12 1.05
  61  0.290  0.250  0.865-  13 1.04
  62  0.817  0.250  0.846-  14 1.05
  63  0.317  0.750  0.846-  15 1.05
  64  0.790  0.750  0.865-  16 1.04
  65  0.472  0.499  0.489-  90 3.09  87 3.14  85 3.16  77 3.17  73 3.22  89 3.26
  66  0.972  0.501  0.489-  89 3.09  86 3.14  88 3.16  78 3.17  74 3.22  90 3.26
  67  0.472  0.001  0.489-  92 3.09  87 3.14  85 3.16  79 3.17  75 3.22  91 3.26
  68  0.972  0.999  0.489-  91 3.09  86 3.14  88 3.16  80 3.17  76 3.22  92 3.26
  69  0.472  0.501  0.989-  94 3.09  81 3.14  83 3.16  73 3.17  77 3.22  93 3.26
  70  0.972  0.499  0.989-  93 3.09  84 3.14  82 3.16  74 3.17  78 3.22  94 3.26
  71  0.472  0.999  0.989-  96 3.09  81 3.14  83 3.16  75 3.17  79 3.22  95 3.26
  72  0.972  0.001  0.989-  95 3.09  84 3.14  82 3.16  76 3.17  80 3.22  96 3.26
  73  0.455  0.503  0.238-  69 3.17  65 3.22
  74  0.955  0.497  0.238-  70 3.17  66 3.22
  75  0.455  0.997  0.238-  71 3.17  67 3.22
  76  0.955  0.003  0.238-  72 3.17  68 3.22
  77  0.455  0.497  0.738-  65 3.17  69 3.22
  78  0.955  0.503  0.738-  66 3.17  70 3.22
  79  0.455  0.003  0.738-  67 3.17  71 3.22
  80  0.955  0.997  0.738-  68 3.17  72 3.22
  81  0.470  0.250  0.011-  71 3.14  69 3.14
  82  0.929  0.250  0.013-  72 3.16  70 3.16
  83  0.429  0.750  0.013-  69 3.16  71 3.16
  84  0.970  0.750  0.011-  70 3.14  72 3.14
  85  0.429  0.250  0.513-  67 3.16  65 3.16
  86  0.970  0.250  0.511-  68 3.14  66 3.14
  87  0.470  0.750  0.511-  65 3.14  67 3.14
  88  0.929  0.750  0.513-  66 3.16  68 3.16
  89  0.216  0.523  0.461-  66 3.09  65 3.26
  90  0.716  0.477  0.461-  65 3.09  66 3.26
  91  0.216  0.977  0.461-  68 3.09  67 3.26
  92  0.716  0.023  0.461-  67 3.09  68 3.26
  93  0.216  0.477  0.961-  70 3.09  69 3.26
  94  0.716  0.523  0.961-  69 3.09  70 3.26
  95  0.216  0.023  0.961-  72 3.09  71 3.26
  96  0.716  0.977  0.961-  71 3.09  72 3.26
 

IMPORTANT INFORMATION: All symmetrisations will be switched off!
NOSYMM: (Re-)initialisation of all symmetry stuff for point group C_1.

 
 
 KPOINTS: Automatic 3x3x3                         

Automatic generation of k-mesh.
Space group operators:
 irot       det(A)        alpha          n_x          n_y          n_z        tau_x        tau_y        tau_z
    1     1.000000     0.000000     1.000000     0.000000     0.000000     0.000000     0.000000     0.000000
 
 Subroutine IBZKPT returns following result:
 ===========================================
 
 Found     27 irreducible k-points:
 
 Following reciprocal coordinates:
            Coordinates               Weight
  0.000000  0.000000  0.000000      1.000000
  0.333333 -0.000000 -0.000000      1.000000
 -0.333333  0.000000  0.000000      1.000000
  0.000000  0.333333 -0.000000      1.000000
  0.333333  0.333333  0.000000      1.000000
 -0.333333  0.333333  0.000000      1.000000
 -0.000000 -0.333333  0.000000      1.000000
  0.333333 -0.333333 -0.000000      1.000000
 -0.333333 -0.333333 -0.000000      1.000000
  0.000000  0.000000  0.333333      1.000000
  0.333333  0.000000  0.333333      1.000000
 -0.333333  0.000000  0.333333      1.000000
  0.000000  0.333333  0.333333      1.000000
  0.333333  0.333333  0.333333      1.000000
 -0.333333  0.333333  0.333333      1.000000
  0.000000 -0.333333  0.333333      1.000000
  0.333333 -0.333333  0.333333      1.000000
 -0.333333 -0.333333  0.333333      1.000000
  0.000000  0.000000 -0.333333      1.000000
  0.333333 -0.000000 -0.333333      1.000000
 -0.333333 -0.000000 -0.333333      1.000000
 -0.000000  0.333333 -0.333333      1.000000
  0.333333  0.333333 -0.333333      1.000000
 -0.333333  0.333333 -0.333333      1.000000
 -0.000000 -0.333333 -0.333333      1.000000
  0.333333 -0.333333 -0.333333      1.000000
 -0.333333 -0.333333 -0.333333      1.000000
 
 Following cartesian coordinates:
            Coordinates               Weight
  0.000000  0.000000  0.000000      1.000000
  0.026507 -0.000003 -0.000290      1.000000
 -0.026507  0.000003  0.000290      1.000000
 -0.000004  0.026758 -0.000000      1.000000
  0.026503  0.026755 -0.000290      1.000000
 -0.026511  0.026760  0.000290      1.000000
  0.000004 -0.026758  0.000000      1.000000
  0.026511 -0.026760 -0.000290      1.000000
 -0.026503 -0.026755  0.000290      1.000000
 -0.000287  0.000002  0.026152      1.000000
  0.026220 -0.000001  0.025862      1.000000
 -0.026794  0.000004  0.026442      1.000000
 -0.000291  0.026759  0.026152      1.000000
  0.026215  0.026757  0.025862      1.000000
 -0.026798  0.026762  0.026442      1.000000
 -0.000283 -0.026756  0.026152      1.000000
  0.026224 -0.026759  0.025862      1.000000
 -0.026790 -0.026753  0.026442      1.000000
  0.000287 -0.000002 -0.026152      1.000000
  0.026794 -0.000004 -0.026442      1.000000
 -0.026220  0.000001 -0.025862      1.000000
  0.000283  0.026756 -0.026152      1.000000
  0.026790  0.026753 -0.026442      1.000000
 -0.026224  0.026759 -0.025862      1.000000
  0.000291 -0.026759 -0.026152      1.000000
  0.026798 -0.026762 -0.026442      1.000000
 -0.026215 -0.026757 -0.025862      1.000000
 


--------------------------------------------------------------------------------------------------------




 Dimension of arrays:
   k-points           NKPTS =     27   k-points in BZ     NKDIM =     27   number of bands    NBANDS=    600
   number of dos      NEDOS =    301   number of ions     NIONS =     96
   non local maximal  LDIM  =      6   non local SUM 2l+1 LMDIM =     18
   total plane-waves  NPLWV = ******
   max r-space proj   IRMAX =      1   max aug-charges    IRDMAX= 314103
   dimension x,y,z NGX =   112 NGY =  108 NGZ =  112
   dimension x,y,z NGXF=   224 NGYF=  216 NGZF=  224
   support grid    NGXF=   448 NGYF=  432 NGZF=  448
   ions per type =               8   8  48   8  24
 NGX,Y,Z   is equivalent  to a cutoff of  14.80, 14.41, 14.61 a.u.
 NGXF,Y,Z  is equivalent  to a cutoff of  29.61, 28.83, 29.21 a.u.


 I would recommend the setting:
   dimension x,y,z NGX =   109 NGY =  107 NGZ =  110
 SYSTEM =  MAPbI3-Cubic                            
 POSCAR =  C N H Pb I                              

 Startparameter for this run:
   NWRITE =      2    write-flag & timer
   PREC   = accura    normal or accurate (medium, high low for compatibility)
   ISTART =      0    job   : 0-new  1-cont  2-samecut
   ICHARG =      2    charge: 1-file 2-atom 10-const
   ISPIN  =      1    spin polarized calculation?
   LNONCOLLINEAR =      T non collinear calculations
   LSORBIT =      T    spin-orbit coupling
   INIWAV =      1    electr: 0-lowe 1-rand  2-diag
   LASPH  =      F    aspherical Exc in radial PAW
   METAGGA=      F    non-selfconsistent MetaGGA calc.

 Electronic Relaxation 1
   ENCUT  =  700.0 eV  51.45 Ry    7.17 a.u.  27.13 26.87 27.50*2*pi/ulx,y,z
   ENINI  =  700.0     initial cutoff
   ENAUG  =  644.9 eV  augmentation charge cutoff
   NELM   =     60;   NELMIN=  2; NELMDL= -5     # of ELM steps 
   EDIFF  = 0.1E-07   stopping-criterion for ELM
   LREAL  =      F    real-space projection
   NLSPLINE    = F    spline interpolate recip. space projectors
   LCOMPAT=      F    compatible to vasp.4.4
   GGA_COMPAT  = T    GGA compatible to vasp.4.4-vasp.4.6
   LMAXPAW     = -100 max onsite density
   LMAXMIX     =    2 max onsite mixed and CHGCAR
   VOSKOWN=      0    Vosko Wilk Nusair interpolation
   ROPT   =    0.00000   0.00000   0.00000   0.00000
   ROPT   =    0.00000
 Ionic relaxation
   EDIFFG = 0.1E-06   stopping-criterion for IOM
   NSW    =      0    number of steps for IOM
   NBLOCK =      1;   KBLOCK =      1    inner block; outer block 
   IBRION =     -1    ionic relax: 0-MD 1-quasi-New 2-CG
   NFREE  =      0    steps in history (QN), initial steepest desc. (CG)
   ISIF   =      2    stress and relaxation
   IWAVPR =     10    prediction:  0-non 1-charg 2-wave 3-comb
   ISYM   =      0    0-nonsym 1-usesym 2-fastsym
   LCORR  =      T    Harris-Foulkes like correction to forces

   POTIM  = 0.5000    time-step for ionic-motion
   TEIN   =    0.0    initial temperature
   TEBEG  =    0.0;   TEEND  =   0.0 temperature during run
   SMASS  =  -3.00    Nose mass-parameter (am)
   estimated Nose-frequenzy (Omega)   =  0.10E-29 period in steps =****** mass=  -0.362E-26a.u.
   SCALEE = 1.0000    scale energy and forces
   NPACO  =    256;   APACO  = 16.0  distance and # of slots for P.C.
   PSTRESS=    0.0 pullay stress

  Mass of Ions in am
   POMASS =  12.01 14.00  1.00207.20126.90
  Ionic Valenz
   ZVAL   =   4.00  5.00  1.00 14.00  7.00
  Atomic Wigner-Seitz radii
   RWIGS  =  -1.00 -1.00 -1.00 -1.00 -1.00
  virtual crystal weights 
   VCA    =   1.00  1.00  1.00  1.00  1.00
   NELECT =     400.0000    total number of electrons
   NUPDOWN=      -1.0000    fix difference up-down

 DOS related values:
   EMIN   =  10.00;   EMAX   =-10.00  energy-range for DOS
   EFERMI =   0.00
   ISMEAR =     0;   SIGMA  =   0.00  broadening in eV -4-tet -1-fermi 0-gaus

 Electronic relaxation 2 (details)
   IALGO  =     38    algorithm
   LDIAG  =      T    sub-space diagonalisation (order eigenvalues)
   LSUBROT=      F    optimize rotation matrix (better conditioning)
   TURBO    =      0    0=normal 1=particle mesh
   IRESTART =      0    0=no restart 2=restart with 2 vectors
   NREBOOT  =      0    no. of reboots
   NMIN     =      0    reboot dimension
   EREF     =   0.00    reference energy to select bands
   IMIX   =      4    mixing-type and parameters
     AMIX     =   0.40;   BMIX     =  1.00
     AMIX_MAG =   1.60;   BMIX_MAG =  1.00
     AMIN     =   0.10
     WC   =   100.;   INIMIX=   1;  MIXPRE=   1;  MAXMIX= -45

 Intra band minimization:
   WEIMIN = 0.0000     energy-eigenvalue tresh-hold
   EBREAK =  0.42E-11  absolut break condition
   DEPER  =   0.30     relativ break condition  

   TIME   =   0.40     timestep for ELM

  volume/ion in A,a.u.               =      20.80       140.38
  Fermi-wavevector in a.u.,A,eV,Ry     =   0.957863  1.810099 12.483376  0.917502
  Thomas-Fermi vector in A             =   2.086919
 
 Write flags
   LWAVE  =      F    write WAVECAR
   LCHARG =      F    write CHGCAR
   LVTOT  =      F    write LOCPOT, total local potential
   LVHAR  =      F    write LOCPOT, Hartree potential only
   LELF   =      F    write electronic localiz. function (ELF)
   LORBIT =      0    0 simple, 1 ext, 2 COOP (PROOUT)


 Dipole corrections
   LMONO  =      F    monopole corrections only (constant potential shift)
   LDIPOL =      F    correct potential (dipole corrections)
   IDIPOL =      0    1-x, 2-y, 3-z, 4-all directions 
   EPSILON=  1.0000000 bulk dielectric constant

 Core level calculations are selected ICORELEVEL =  1
 Exchange correlation treatment:
   GGA     =    PS    GGA type
   LEXCH   =    14    internal setting for exchange type
   VOSKOWN=      0    Vosko Wilk Nusair interpolation
   LHFCALC =     F    Hartree Fock is set to
   LHFONE  =     F    Hartree Fock one center treatment
   AEXX    =    0.0000 exact exchange contribution

 Linear response parameters
   LEPSILON=     F    determine dielectric tensor
   LRPA    =     F    only Hartree local field effects (RPA)
   LNABLA  =     F    use nabla operator in PAW spheres
   LVEL    =     F    velocity operator in full k-point grid
   LINTERFAST=   F  fast interpolation
   KINTER  =     0    interpolate to denser k-point grid
   CSHIFT  =0.1000    complex shift for real part using Kramers Kronig
   OMEGAMAX=  -1.0    maximum frequency
   DEG_THRESHOLD= 0.2000000E-02 threshold for treating states as degnerate
   RTIME   =    0.100 relaxation time in fs

 Orbital magnetization related:
   ORBITALMAG=     F  switch on orbital magnetization
   LCHIMAG   =     F  perturbation theory with respect to B field
   DQ        =  0.001000  dq finite difference perturbation B field



--------------------------------------------------------------------------------------------------------


 Static calculation
 charge density and potential will be updated during run
 non collinear spin polarized calculation
 Variant of blocked Davidson
 Davidson routine will perform the subspace rotation
 perform sub-space diagonalisation
    after iterative eigenvector-optimisation
 modified Broyden-mixing scheme, WC =      100.0
 initial mixing is a Kerker type mixing with AMIX =  0.4000 and BMIX =      1.0000
 Hartree-type preconditioning will be used
 using additional bands          400
 reciprocal scheme for non local part
 use partial core corrections
 calculate Harris-corrections to forces 
   (improved forces if not selfconsistent)
 use gradient corrections 
 use of overlap-Matrix (Vanderbilt PP)
 Gauss-broadening in eV      SIGMA  =   0.00


--------------------------------------------------------------------------------------------------------


  energy-cutoff  :      700.00
  volume of cell :     1996.98
      direct lattice vectors                 reciprocal lattice vectors
    12.576837428  0.001915912  0.138198793     0.079520802 -0.000007684 -0.000869670
     0.001195632 12.457538083 -0.000746413    -0.000012224  0.080272684 -0.000000427
     0.139410704  0.000089045 12.747420625    -0.000862111  0.000004784  0.078456671

  length of vectors
    12.577596840 12.457538162 12.748182927     0.079525558  0.080272685  0.078461408


 
 k-points in units of 2pi/SCALE and weight: Automatic 3x3x3                         
   0.00000000  0.00000000  0.00000000       0.037
   0.02650693 -0.00000256 -0.00028989       0.037
  -0.02650693  0.00000256  0.00028989       0.037
  -0.00000407  0.02675756 -0.00000014       0.037
   0.02650286  0.02675500 -0.00029003       0.037
  -0.02651101  0.02676012  0.00028975       0.037
   0.00000407 -0.02675756  0.00000014       0.037
   0.02651101 -0.02676012 -0.00028975       0.037
  -0.02650286 -0.02675500  0.00029003       0.037
  -0.00028737  0.00000159  0.02615222       0.037
   0.02621956 -0.00000097  0.02586233       0.037
  -0.02679430  0.00000416  0.02644211       0.037
  -0.00029144  0.02675916  0.02615208       0.037
   0.02621549  0.02675659  0.02586219       0.037
  -0.02679838  0.02676172  0.02644197       0.037
  -0.00028330 -0.02675597  0.02615237       0.037
   0.02622364 -0.02675853  0.02586248       0.037
  -0.02679023 -0.02675341  0.02644226       0.037
   0.00028737 -0.00000159 -0.02615222       0.037
   0.02679430 -0.00000416 -0.02644211       0.037
  -0.02621956  0.00000097 -0.02586233       0.037
   0.00028330  0.02675597 -0.02615237       0.037
   0.02679023  0.02675341 -0.02644226       0.037
  -0.02622364  0.02675853 -0.02586248       0.037
   0.00029144 -0.02675916 -0.02615208       0.037
   0.02679838 -0.02676172 -0.02644197       0.037
  -0.02621549 -0.02675659 -0.02586219       0.037
 
 k-points in reciprocal lattice and weights: Automatic 3x3x3                         
   0.00000000  0.00000000  0.00000000       0.037
   0.33333333 -0.00000000 -0.00000000       0.037
  -0.33333333  0.00000000  0.00000000       0.037
   0.00000000  0.33333333 -0.00000000       0.037
   0.33333333  0.33333333  0.00000000       0.037
  -0.33333333  0.33333333  0.00000000       0.037
  -0.00000000 -0.33333333  0.00000000       0.037
   0.33333333 -0.33333333 -0.00000000       0.037
  -0.33333333 -0.33333333 -0.00000000       0.037
   0.00000000  0.00000000  0.33333333       0.037
   0.33333333  0.00000000  0.33333333       0.037
  -0.33333333  0.00000000  0.33333333       0.037
   0.00000000  0.33333333  0.33333333       0.037
   0.33333333  0.33333333  0.33333333       0.037
  -0.33333333  0.33333333  0.33333333       0.037
   0.00000000 -0.33333333  0.33333333       0.037
   0.33333333 -0.33333333  0.33333333       0.037
  -0.33333333 -0.33333333  0.33333333       0.037
   0.00000000  0.00000000 -0.33333333       0.037
   0.33333333 -0.00000000 -0.33333333       0.037
  -0.33333333 -0.00000000 -0.33333333       0.037
  -0.00000000  0.33333333 -0.33333333       0.037
   0.33333333  0.33333333 -0.33333333       0.037
  -0.33333333  0.33333333 -0.33333333       0.037
  -0.00000000 -0.33333333 -0.33333333       0.037
   0.33333333 -0.33333333 -0.33333333       0.037
  -0.33333333 -0.33333333 -0.33333333       0.037
 
 position of ions in fractional coordinates (direct lattice) 
   0.19753026  0.24986605  0.22867303
   0.69645800  0.24995050  0.22915768
   0.19645800  0.74995050  0.22915768
   0.69753026  0.74986605  0.22867303
   0.19645800  0.24995050  0.72915768
   0.69753026  0.24986605  0.72867303
   0.19753026  0.74986605  0.72867303
   0.69645800  0.74995050  0.72915768
   0.30949437  0.24997651  0.26370093
   0.79958007  0.25003077  0.28406766
   0.29958007  0.75003077  0.28406766
   0.80949437  0.74997651  0.26370093
   0.29958007  0.25003077  0.78406766
   0.80949437  0.24997651  0.76370093
   0.30949437  0.74997651  0.76370093
   0.79958007  0.75003077  0.78406766
   0.19738504  0.24977908  0.14206154
   0.71276529  0.24986311  0.14371571
   0.21276529  0.74986311  0.14371571
   0.69738504  0.74977908  0.14206154
   0.21276529  0.24986311  0.64371571
   0.69738504  0.24977908  0.64206154
   0.19738504  0.74977908  0.64206154
   0.71276529  0.74986311  0.64371571
   0.15714247  0.32224920  0.25901400
   0.65153315  0.32245517  0.25201664
   0.15153315  0.82245517  0.25201664
   0.65714247  0.82224920  0.25901400
   0.15153315  0.32245517  0.75201664
   0.65714247  0.32224920  0.75901400
   0.15714247  0.82224920  0.75901400
   0.65153315  0.82245517  0.75201664
   0.15728309  0.17748036  0.25914092
   0.65160258  0.17747178  0.25216049
   0.15160258  0.67747178  0.25216049
   0.65728309  0.67748036  0.25914092
   0.15160258  0.17747178  0.75216049
   0.65728309  0.17748036  0.75914092
   0.15728309  0.67748036  0.75914092
   0.65160258  0.67747178  0.75216049
   0.35112941  0.31779428  0.23685491
   0.84513974  0.31795429  0.26465807
   0.34513974  0.81795429  0.26465807
   0.85112941  0.81779428  0.23685491
   0.34513974  0.31795429  0.76465807
   0.85112941  0.31779428  0.73685491
   0.35112941  0.81779428  0.73685491
   0.84513974  0.81795429  0.76465807
   0.35124255  0.18216038  0.23695209
   0.84516805  0.18204940  0.26482971
   0.34516805  0.68204940  0.26482971
   0.85124255  0.68216038  0.23695209
   0.34516805  0.18204940  0.76482971
   0.85124255  0.18216038  0.73695209
   0.35124255  0.68216038  0.73695209
   0.84516805  0.68204940  0.76482971
   0.31658400  0.25003768  0.34573571
   0.78975615  0.25014937  0.36548278
   0.28975615  0.75014937  0.36548278
   0.81658400  0.75003768  0.34573571
   0.28975615  0.25014937  0.86548278
   0.81658400  0.25003768  0.84573571
   0.31658400  0.75003768  0.84573571
   0.78975615  0.75014937  0.86548278
   0.47243920  0.49866510  0.48880792
   0.97244435  0.50131449  0.48881497
   0.47244435  0.00131449  0.48881497
   0.97243920  0.99866510  0.48880792
   0.47244435  0.50131449  0.98881497
   0.97243920  0.49866510  0.98880792
   0.47243920  0.99866510  0.98880792
   0.97244435  0.00131449  0.98881497
   0.45471275  0.50273324  0.23757431
   0.95477460  0.49724886  0.23757117
   0.45477460  0.99724886  0.23757117
   0.95471275  0.00273324  0.23757431
   0.45477460  0.49724886  0.73757117
   0.95471275  0.50273324  0.73757431
   0.45471275  0.00273324  0.73757431
   0.95477460  0.99724886  0.73757117
   0.46996762  0.24997413  0.01092386
   0.92930326  0.24998389  0.01274058
   0.42930326  0.74998389  0.01274058
   0.96996762  0.74997413  0.01092386
   0.42930326  0.24998389  0.51274058
   0.96996762  0.24997413  0.51092386
   0.46996762  0.74997413  0.51092386
   0.92930326  0.74998389  0.51274058
   0.21616640  0.52332060  0.46126405
   0.71617648  0.47667427  0.46121535
   0.21617648  0.97667427  0.46121535
   0.71616640  0.02332060  0.46126405
   0.21617648  0.47667427  0.96121535
   0.71616640  0.52332060  0.96126405
   0.21616640  0.02332060  0.96126405
   0.71617648  0.97667427  0.96121535
 
 position of ions in cartesian coordinates  (Angst):
   2.51648423  3.11311461  2.94210322
   8.79148494  3.11512267  3.01723242
   2.50366404  9.34293375  2.94775982
   8.80550076  9.34284161  3.01082941
   2.57277158  3.11420923  9.32184334
   8.87460830  3.11411709  9.38491293
   2.58678740  9.34192818  9.31544033
   8.86178811  9.34393623  9.39056953
   3.92952200  3.11470839  3.40409182
  10.09608953  3.11632503  3.73144438
   3.80826863  9.34413611  3.66197178
  10.21853853  9.34443538  3.47281801
   3.87737617  3.11541159 10.03605530
  10.28764607  3.11571087  9.84690152
   3.99982517  9.34352195  9.77742892
  10.16639270  9.34513859 10.10478149
   2.50258311  3.11202323  1.83801013
   8.98466748  3.11405762  1.93032145
   2.69684658  9.34186871  1.86084884
   8.79159964  9.34175023  1.90673632
   2.76595412  3.11314419  8.23493236
   8.86070717  3.11302571  8.28081984
   2.57288628  9.34083680  8.21134723
   9.05497065  9.34287119  8.30365855
   2.01284987  4.01475582  3.32323680
   8.22974582  4.01826832  3.30236248
   1.94192492 10.24607941  3.23288988
   8.30186640 10.24448281  3.39196299
   2.01103246  4.01735489  9.60697339
   8.37097394  4.01575829  9.76604651
   2.08315304 10.24356938  9.69657391
   8.30004899 10.24708189  9.67569958
   2.01446309  2.21129279  3.32498217
   8.23046573  2.21213238  3.30431409
   1.94264483  8.43994347  3.23484149
   8.30347962  8.44101978  3.39370836
   2.01175237  2.21121895  9.60892501
   8.37258715  2.21229526  9.76779188
   2.08476625  8.44010635  9.69831928
   8.30076890  8.44094595  9.67765120
   4.44949759  3.95962818  3.06757765
  10.66646149  3.96257040  3.49026770
   4.37864059 10.19038148  3.42079510
  10.73851412 10.18935517  3.13630384
   4.44774813  3.96165696  9.79487862
  10.80762165  3.96063065  9.51038736
   4.51980076 10.18844174  9.44091476
  10.73676466 10.19138396  9.86360481
   4.45077187  2.26996390  3.06893331
  10.66667896  2.26953014  3.49256100
   4.37885807  8.49734123  3.42308840
  10.73978840  8.49969089  3.13765950
   4.44796560  2.26861671  9.79717192
  10.80889594  2.27096637  9.51174302
   4.52107504  8.49877746  9.44227042
  10.73698213  8.49834371  9.86589811
   4.03012370  3.11549120  4.45080344
   9.98388596  3.11779093  4.76791933
   3.69606507  9.34560201  4.69844673
  10.31914023  9.34521819  4.51952963
   3.76517260  3.11687749 11.07253025
  10.38824777  3.11649367 10.89361315
   4.10042687  9.34430476 10.82414054
  10.05418913  9.34660449 11.14125644
   6.01053233  6.21308816  6.29595853
  12.29901990  6.24705098  6.36514648
   6.01000337  0.01732398  6.29642029
  12.29954886 12.44281516  6.36468472
   6.08030654  6.24613755 12.66975740
  12.36865640  6.21409064 12.73876824
   6.08083550 12.44190173 12.66929563
  12.36812744  0.01832646 12.73923000
   5.75256977  6.26371084  3.09092515
  12.04175945  6.19634701  3.15999724
   5.75393855 12.42415809  3.09052464
  12.04039067  0.03589975  3.16039776
   5.82304609  6.19543357  9.46460815
  12.11069383  6.26471331  9.53373486
   5.82167730  0.03498632  9.46500867
  12.11206262 12.42516057  9.53333434
   5.91252809  3.11496359  0.20401339
  11.68977112  3.11596548  0.29065149
   5.40195022  9.34377657  0.22117889
  12.20154462  9.34469059  0.27273958
   5.47105776  3.11505205  6.59526241
  12.27065215  3.11596607  6.64682310
   5.98283125  9.34377715  6.57735050
  11.76007429  9.34477905  6.66398860
   2.78362051  6.51974152  5.90941021
   9.07210341  5.93960112  5.97792501
   2.78428251 12.16741221  5.90845241
   9.07144141  0.29193043  5.97888282
   2.85339005  5.93868769 12.28253593
   9.14174458  6.52074400 12.35221992
   2.85272805  0.29101700 12.28349373
   9.14240658 12.16841468 12.35126212
 
 Euler angles ALPHA=     0.0000000  BETA=     0.0000000

 transformation matrix from SAXIS to cartesian coordinates
 ---------------------------------------------------------
     1.0000000 m_x     0.0000000 m_y     0.0000000 m_z
     0.0000000 m_x     1.0000000 m_y     0.0000000 m_z
     0.0000000 m_x     0.0000000 m_y     1.0000000 m_z

 transformation matrix from cartesian coordinates to SAXIS
 ---------------------------------------------------------
     1.0000000 m_x     0.0000000 m_y     0.0000000 m_z
     0.0000000 m_x     1.0000000 m_y     0.0000000 m_z
     0.0000000 m_x     0.0000000 m_y     1.0000000 m_z




--------------------------------------------------------------------------------------------------------


 k-point  1 :   0.0000 0.0000 0.0000  plane waves:  168014
 k-point  2 :   0.3333-0.0000-0.0000  plane waves:  168006
 k-point  3 :  -0.3333 0.0000 0.0000  plane waves:  168006
 k-point  4 :   0.0000 0.3333-0.0000  plane waves:  167990
 k-point  5 :   0.3333 0.3333 0.0000  plane waves:  168036
 k-point  6 :  -0.3333 0.3333 0.0000  plane waves:  168038
 k-point  7 :  -0.0000-0.3333 0.0000  plane waves:  167990
 k-point  8 :   0.3333-0.3333-0.0000  plane waves:  168038
 k-point  9 :  -0.3333-0.3333-0.0000  plane waves:  168036
 k-point 10 :   0.0000 0.0000 0.3333  plane waves:  167920
 k-point 11 :   0.3333 0.0000 0.3333  plane waves:  167874
 k-point 12 :  -0.3333 0.0000 0.3333  plane waves:  167964
 k-point 13 :   0.0000 0.3333 0.3333  plane waves:  167968
 k-point 14 :   0.3333 0.3333 0.3333  plane waves:  168024
 k-point 15 :  -0.3333 0.3333 0.3333  plane waves:  167940
 k-point 16 :   0.0000-0.3333 0.3333  plane waves:  167954
 k-point 17 :   0.3333-0.3333 0.3333  plane waves:  168026
 k-point 18 :  -0.3333-0.3333 0.3333  plane waves:  167946
 k-point 19 :   0.0000 0.0000-0.3333  plane waves:  167920
 k-point 20 :   0.3333-0.0000-0.3333  plane waves:  167964
 k-point 21 :  -0.3333-0.0000-0.3333  plane waves:  167874
 k-point 22 :  -0.0000 0.3333-0.3333  plane waves:  167954
 k-point 23 :   0.3333 0.3333-0.3333  plane waves:  167946
 k-point 24 :  -0.3333 0.3333-0.3333  plane waves:  168026
 k-point 25 :  -0.0000-0.3333-0.3333  plane waves:  167968
 k-point 26 :   0.3333-0.3333-0.3333  plane waves:  167940
 k-point 27 :  -0.3333-0.3333-0.3333  plane waves:  168024

 maximum and minimum number of plane-waves per node :     14178    13802

 maximum number of plane-waves:    168038
 maximum index in each direction: 
   IXMAX=   27   IYMAX=   27   IZMAX=   27
   IXMIN=  -27   IYMIN=  -27   IZMIN=  -27

 NGX is ok and might be reduce to 110
 WARNING: aliasing errors must be expected set NGY to 110 to avoid them
 NGZ is ok and might be reduce to 110
 aliasing errors are usually negligible using standard VASP settings
 and one can safely disregard these warnings

 parallel 3D FFT for wavefunctions:
    minimum data exchange during FFTs selected (reduces bandwidth)
 parallel 3D FFT for charge:
    minimum data exchange during FFTs selected (reduces bandwidth)


 total amount of memory used by VASP on root node   735166. kBytes
========================================================================

   base      :      30000. kBytes
   nonl-proj :     147503. kBytes
   fftplans  :      39541. kBytes
   grid      :      57286. kBytes
   one-center:        497. kBytes
   wavefun   :     460339. kBytes
 
     INWAV:  cpu time    0.0000: real time    0.0000
 Broyden mixing: mesh for mixing (old mesh)
   NGX = 55   NGY = 53   NGZ = 55
  (NGX  =224   NGY  =216   NGZ  =224)
  gives a total of 160325 points

 initial charge density was supplied:
 charge density of overlapping atoms calculated
 number of electron     400.0000000 magnetization      96.0000000     96.0000000     96.0000000
 keeping initial charge density in first step


--------------------------------------------------------------------------------------------------------


 Maximum index for augmentation-charges         5401 (set IRDMAX)


--------------------------------------------------------------------------------------------------------


 First call to EWALD:  gamma=   0.141
 Maximum number of real-space cells 3x 3x 3
 Maximum number of reciprocal cells 3x 3x 3

 FEWALD executed in parallel
    FEWALD:  cpu time    0.2000: real time    0.2011


----------------------------------------- Iteration    1(   1)  ---------------------------------------


    POTLOK:  cpu time    0.9121: real time    0.9127
    SETDIJ:  cpu time    2.4162: real time    2.4195
     EDDAV:  cpu time   51.9352: real time   51.9706
       DOS:  cpu time    0.0040: real time    0.0066
    --------------------------------------------
      LOOP:  cpu time   55.2675: real time   55.3594

 eigenvalue-minimisations  : 32544
 total energy-change (2. order) : 0.4227297E+04  (-0.1929756E+05)
 number of electron     400.0000000 magnetization      96.0000000     96.0000000     96.0000000
 augmentation part      400.0000000 magnetization      96.0000000     96.0000000     96.0000000

 Free energy of the ion-electron system (eV)
  ---------------------------------------------------
  alpha Z        PSCENC =       370.05370877
  Ewald energy   TEWEN  =    -15534.46532026
  -Hartree energ DENC   =     -8117.06397647
  -exchange      EXHF   =         0.00000000
  -V(xc)+E(xc)   XCENC  =       673.21013020
  PAW double counting   =     20172.90621935   -19413.33347658
  entropy T*S    EENTRO =        -0.00002221
  eigenvalues    EBANDS =      1326.98353860
  atomic energy  EATOM  =     24749.00668030
  Solvation  Ediel_sol  =         0.00000000
  ---------------------------------------------------
  free energy    TOTEN  =      4227.29748170 eV

  energy without entropy =     4227.29750391  energy(sigma->0) =     4227.29749280


--------------------------------------------------------------------------------------------------------




----------------------------------------- Iteration    1(   2)  ---------------------------------------


     EDDAV:  cpu time   55.7995: real time   55.8397
       DOS:  cpu time    0.0120: real time    0.0095
    --------------------------------------------
      LOOP:  cpu time   55.8155: real time   55.8631

 eigenvalue-minimisations  : 35584
 total energy-change (2. order) :-0.3383158E+04  (-0.3133645E+04)
 number of electron     400.0000000 magnetization      96.0000000     96.0000000     96.0000000
 augmentation part      400.0000000 magnetization      96.0000000     96.0000000     96.0000000

 Free energy of the ion-electron system (eV)
  ---------------------------------------------------
  alpha Z        PSCENC =       370.05370877
  Ewald energy   TEWEN  =    -15534.46532026
  -Hartree energ DENC   =     -8117.06397647
  -exchange      EXHF   =         0.00000000
  -V(xc)+E(xc)   XCENC  =       673.21013020
  PAW double counting   =     20172.90621935   -19413.33347658
  entropy T*S    EENTRO =        -0.00001240
  eigenvalues    EBANDS =     -2056.17423718
  atomic energy  EATOM  =     24749.00668030
  Solvation  Ediel_sol  =         0.00000000
  ---------------------------------------------------
  free energy    TOTEN  =       844.13971573 eV

  energy without entropy =      844.13972812  energy(sigma->0) =      844.13972193


--------------------------------------------------------------------------------------------------------




----------------------------------------- Iteration    1(   3)  ---------------------------------------


     EDDAV:  cpu time   65.6921: real time   65.7379
       DOS:  cpu time    0.0080: real time    0.0067
    --------------------------------------------
      LOOP:  cpu time   65.7041: real time   65.7916

 eigenvalue-minimisations  : 44000
 total energy-change (2. order) :-0.6100071E+03  (-0.5897376E+03)
 number of electron     400.0000000 magnetization      96.0000000     96.0000000     96.0000000
 augmentation part      400.0000000 magnetization      96.0000000     96.0000000     96.0000000

 Free energy of the ion-electron system (eV)
  ---------------------------------------------------
  alpha Z        PSCENC =       370.05370877
  Ewald energy   TEWEN  =    -15534.46532026
  -Hartree energ DENC   =     -8117.06397647
  -exchange      EXHF   =         0.00000000
  -V(xc)+E(xc)   XCENC  =       673.21013020
  PAW double counting   =     20172.90621935   -19413.33347658
  entropy T*S    EENTRO =        -0.00002115
  eigenvalues    EBANDS =     -2666.18131893
  atomic energy  EATOM  =     24749.00668030
  Solvation  Ediel_sol  =         0.00000000
  ---------------------------------------------------
  free energy    TOTEN  =       234.13262523 eV

  energy without entropy =      234.13264638  energy(sigma->0) =      234.13263580


--------------------------------------------------------------------------------------------------------




----------------------------------------- Iteration    1(   4)  ---------------------------------------


     EDDAV:  cpu time   66.0721: real time   66.1165
       DOS:  cpu time    0.0040: real time    0.0064
    --------------------------------------------
      LOOP:  cpu time   66.0801: real time   66.1601

 eigenvalue-minimisations  : 44056
 total energy-change (2. order) :-0.4578126E+02  (-0.4469483E+02)
 number of electron     400.0000000 magnetization      96.0000000     96.0000000     96.0000000
 augmentation part      400.0000000 magnetization      96.0000000     96.0000000     96.0000000

 Free energy of the ion-electron system (eV)
  ---------------------------------------------------
  alpha Z        PSCENC =       370.05370877
  Ewald energy   TEWEN  =    -15534.46532026
  -Hartree energ DENC   =     -8117.06397647
  -exchange      EXHF   =         0.00000000
  -V(xc)+E(xc)   XCENC  =       673.21013020
  PAW double counting   =     20172.90621935   -19413.33347658
  entropy T*S    EENTRO =        -0.00004324
  eigenvalues    EBANDS =     -2711.96255902
  atomic energy  EATOM  =     24749.00668030
  Solvation  Ediel_sol  =         0.00000000
  ---------------------------------------------------
  free energy    TOTEN  =       188.35136305 eV

  energy without entropy =      188.35140629  energy(sigma->0) =      188.35138467


--------------------------------------------------------------------------------------------------------




----------------------------------------- Iteration    1(   5)  ---------------------------------------


     EDDAV:  cpu time   73.5726: real time   73.6207
       DOS:  cpu time    0.0080: real time    0.0077
    CHARGE:  cpu time    5.2243: real time    5.2276
    MIXING:  cpu time    0.0280: real time    0.0311
    --------------------------------------------
      LOOP:  cpu time   78.8369: real time   78.9016

 eigenvalue-minimisations  : 50248
 total energy-change (2. order) :-0.2256282E+01  (-0.2247424E+01)
 number of electron     400.0000000 magnetization      67.1455277     67.1522720     67.1497144
 augmentation part        6.9631172 magnetization      63.3651723     63.3472022     63.3542993

 Broyden mixing:
  rms(total) = 0.97992E+01    rms(broyden)= 0.97990E+01
  rms(prec ) = 0.10298E+02
  weight for this iteration     100.00

 Free energy of the ion-electron system (eV)
  ---------------------------------------------------
  alpha Z        PSCENC =       370.05370877
  Ewald energy   TEWEN  =    -15534.46532026
  -Hartree energ DENC   =     -8117.06397647
  -exchange      EXHF   =         0.00000000
  -V(xc)+E(xc)   XCENC  =       673.21013020
  PAW double counting   =     20172.90621935   -19413.33347658
  entropy T*S    EENTRO =        -0.00016184
  eigenvalues    EBANDS =     -2714.21872234
  atomic energy  EATOM  =     24749.00668030
  Solvation  Ediel_sol  =         0.00000000
  ---------------------------------------------------
  free energy    TOTEN  =       186.09508113 eV

  energy without entropy =      186.09524297  energy(sigma->0) =      186.09516205


--------------------------------------------------------------------------------------------------------




----------------------------------------- Iteration    1(   6)  ---------------------------------------


    POTLOK:  cpu time    0.8961: real time    0.8988
    SETDIJ:  cpu time    2.4162: real time    2.4172
     EDDAV:  cpu time   57.6596: real time   57.6989
       DOS:  cpu time    0.0080: real time    0.0097
    CHARGE:  cpu time    5.1923: real time    5.1991
    MIXING:  cpu time    0.0280: real time    0.0271
    --------------------------------------------
      LOOP:  cpu time   66.2081: real time   66.2946

 eigenvalue-minimisations  : 37104
 total energy-change (2. order) :-0.1305932E+03  (-0.1519457E+03)
 number of electron     400.0000000 magnetization      50.3211581     50.3239692     50.3243315
 augmentation part        5.9564781 magnetization      51.1399902     51.1515930     51.1421292

 Broyden mixing:
  rms(total) = 0.48756E+01    rms(broyden)= 0.48754E+01
  rms(prec ) = 0.50596E+01
  weight for this iteration     100.00

 eigenvalues of (default mixing * dielectric matrix)
  average eigenvalue GAMMA=   0.7573
  0.7573

 Free energy of the ion-electron system (eV)
  ---------------------------------------------------
  alpha Z        PSCENC =       370.05370877
  Ewald energy   TEWEN  =    -15534.46532026
  -Hartree energ DENC   =     -8473.64022952
  -exchange      EXHF   =         0.00000000
  -V(xc)+E(xc)   XCENC  =       690.23451660
  PAW double counting   =     24187.32963537   -23450.44697845
  entropy T*S    EENTRO =        -0.00000707
  eigenvalues    EBANDS =     -2482.57010162
  atomic energy  EATOM  =     24749.00668030
  Solvation  Ediel_sol  =         0.00000000
  ---------------------------------------------------
  free energy    TOTEN  =        55.50190411 eV

  energy without entropy =       55.50191117  energy(sigma->0) =       55.50190764


--------------------------------------------------------------------------------------------------------




----------------------------------------- Iteration    1(   7)  ---------------------------------------


    POTLOK:  cpu time    0.9001: real time    0.9022
    SETDIJ:  cpu time    2.4442: real time    2.4460
     EDDAV:  cpu time   60.1438: real time   60.1841
       DOS:  cpu time    0.0080: real time    0.0062
    CHARGE:  cpu time    5.1883: real time    5.1928
    MIXING:  cpu time    0.0280: real time    0.0279
    --------------------------------------------
      LOOP:  cpu time   68.7163: real time   68.7867

 eigenvalue-minimisations  : 39120
 total energy-change (2. order) :-0.1493706E+03  (-0.1593330E+02)
 number of electron     400.0000000 magnetization      34.3296254     34.3279517     34.3344617
 augmentation part        5.6084575 magnetization      35.3832778     35.3955594     35.3777618

 Broyden mixing:
  rms(total) = 0.28353E+01    rms(broyden)= 0.28352E+01
  rms(prec ) = 0.29902E+01
  weight for this iteration     100.00

 eigenvalues of (default mixing * dielectric matrix)
  average eigenvalue GAMMA=   0.8411
  0.8411  0.8411

 Free energy of the ion-electron system (eV)
  ---------------------------------------------------
  alpha Z        PSCENC =       370.05370877
  Ewald energy   TEWEN  =    -15534.46532026
  -Hartree energ DENC   =     -8522.22910207
  -exchange      EXHF   =         0.00000000
  -V(xc)+E(xc)   XCENC  =       592.16578670
  PAW double counting   =     26627.03206849   -25890.21442926
  entropy T*S    EENTRO =        -0.00000153
  eigenvalues    EBANDS =     -2485.21806249
  atomic energy  EATOM  =     24749.00668030
  Solvation  Ediel_sol  =         0.00000000
  ---------------------------------------------------
  free energy    TOTEN  =       -93.86867137 eV

  energy without entropy =      -93.86866983  energy(sigma->0) =      -93.86867060


--------------------------------------------------------------------------------------------------------




----------------------------------------- Iteration    1(   8)  ---------------------------------------


    POTLOK:  cpu time    0.9041: real time    0.9043
    SETDIJ:  cpu time    2.3921: real time    2.3959
     EDDAV:  cpu time   58.6877: real time   58.7255
       DOS:  cpu time    0.0080: real time    0.0072
    CHARGE:  cpu time    5.2003: real time    5.2024
    MIXING:  cpu time    0.0280: real time    0.0286
    --------------------------------------------
      LOOP:  cpu time   67.2242: real time   69.1937

 eigenvalue-minimisations  : 37528
 total energy-change (2. order) :-0.1081563E+03  (-0.6468905E+01)
 number of electron     400.0000000 magnetization      15.8277787     15.8192973     15.8297400
 augmentation part        6.6640473 magnetization      17.0045198     17.0122091     17.0102229

 Broyden mixing:
  rms(total) = 0.18356E+01    rms(broyden)= 0.18356E+01
  rms(prec ) = 0.18909E+01
  weight for this iteration     100.00

 eigenvalues of (default mixing * dielectric matrix)
  average eigenvalue GAMMA=   1.0083
  1.4184  0.9747  0.6319

 Free energy of the ion-electron system (eV)
  ---------------------------------------------------
  alpha Z        PSCENC =       370.05370877
  Ewald energy   TEWEN  =    -15534.46532026
  -Hartree energ DENC   =     -8556.14126431
  -exchange      EXHF   =         0.00000000
  -V(xc)+E(xc)   XCENC  =       529.25416496
  PAW double counting   =     28619.10365401   -27884.24445388
  entropy T*S    EENTRO =        -0.00000000
  eigenvalues    EBANDS =     -2494.59218460
  atomic energy  EATOM  =     24749.00668030
  Solvation  Ediel_sol  =         0.00000000
  ---------------------------------------------------
  free energy    TOTEN  =      -202.02501501 eV

  energy without entropy =     -202.02501501  energy(sigma->0) =     -202.02501501


--------------------------------------------------------------------------------------------------------




----------------------------------------- Iteration    1(   9)  ---------------------------------------


    POTLOK:  cpu time    0.9041: real time    0.9057
    SETDIJ:  cpu time    2.4081: real time    2.4096
     EDDAV:  cpu time   58.1436: real time   58.1824
       DOS:  cpu time    0.0160: real time    0.0171
    CHARGE:  cpu time    5.2003: real time    5.2035
    MIXING:  cpu time    0.0280: real time    0.0284
    --------------------------------------------
      LOOP:  cpu time   66.7042: real time   66.7987

 eigenvalue-minimisations  : 36704
 total energy-change (2. order) :-0.1323214E+03  (-0.1247696E+02)
 number of electron     400.0000000 magnetization      10.3619438     10.3511527     10.3603243
 augmentation part        7.9364947 magnetization      11.1720014     11.1809878     11.1849255

 Broyden mixing:
  rms(total) = 0.91742E+00    rms(broyden)= 0.91741E+00
  rms(prec ) = 0.97067E+00
  weight for this iteration     100.00

 eigenvalues of (default mixing * dielectric matrix)
  average eigenvalue GAMMA=   1.0794
  1.8150  1.1110  0.6957  0.6957

 Free energy of the ion-electron system (eV)
  ---------------------------------------------------
  alpha Z        PSCENC =       370.05370877
  Ewald energy   TEWEN  =    -15534.46532026
  -Hartree energ DENC   =     -8587.35061431
  -exchange      EXHF   =         0.00000000
  -V(xc)+E(xc)   XCENC  =       463.63550048
  PAW double counting   =     30678.30098106   -29944.45406433
  entropy T*S    EENTRO =         0.00000000
  eigenvalues    EBANDS =     -2529.07323981
  atomic energy  EATOM  =     24749.00668030
  Solvation  Ediel_sol  =         0.00000000
  ---------------------------------------------------
  free energy    TOTEN  =      -334.34636811 eV

  energy without entropy =     -334.34636811  energy(sigma->0) =     -334.34636811


--------------------------------------------------------------------------------------------------------




----------------------------------------- Iteration    1(  10)  ---------------------------------------


    POTLOK:  cpu time    0.9001: real time    0.9010
    SETDIJ:  cpu time    2.4202: real time    2.4226
     EDDAV:  cpu time   57.8796: real time   57.9214
       DOS:  cpu time    0.0120: real time    0.0117
    CHARGE:  cpu time    5.1963: real time    5.2002
    MIXING:  cpu time    0.0280: real time    0.0292
    --------------------------------------------
      LOOP:  cpu time   66.4442: real time   66.5163

 eigenvalue-minimisations  : 37040
 total energy-change (2. order) :-0.4715339E+02  (-0.4690619E+01)
 number of electron     400.0000000 magnetization       6.1584436      6.1499787      6.1554116
 augmentation part        8.2203396 magnetization       6.6879880      6.6869538      6.6911774

 Broyden mixing:
  rms(total) = 0.66180E+00    rms(broyden)= 0.66179E+00
  rms(prec ) = 0.73473E+00
  weight for this iteration     100.00

 eigenvalues of (default mixing * dielectric matrix)
  average eigenvalue GAMMA=   1.1355
  1.6979  1.6979  0.8329  0.8329  0.6158

 Free energy of the ion-electron system (eV)
  ---------------------------------------------------
  alpha Z        PSCENC =       370.05370877
  Ewald energy   TEWEN  =    -15534.46532026
  -Hartree energ DENC   =     -8573.26608780
  -exchange      EXHF   =         0.00000000
  -V(xc)+E(xc)   XCENC  =       442.84891628
  PAW double counting   =     31020.96343855   -30285.53931426
  entropy T*S    EENTRO =         0.00000000
  eigenvalues    EBANDS =     -2571.10178432
  atomic energy  EATOM  =     24749.00668030
  Solvation  Ediel_sol  =         0.00000000
  ---------------------------------------------------
  free energy    TOTEN  =      -381.49976274 eV

  energy without entropy =     -381.49976274  energy(sigma->0) =     -381.49976274


--------------------------------------------------------------------------------------------------------




----------------------------------------- Iteration    1(  11)  ---------------------------------------


    POTLOK:  cpu time    0.9041: real time    0.9037
    SETDIJ:  cpu time    2.4402: real time    2.4418
     EDDAV:  cpu time   59.2157: real time   59.2549
       DOS:  cpu time    0.0080: real time    0.0070
    CHARGE:  cpu time    5.1843: real time    5.1867
    MIXING:  cpu time    0.0360: real time    0.0348
    --------------------------------------------
      LOOP:  cpu time   67.7882: real time   67.8551

 eigenvalue-minimisations  : 38112
 total energy-change (2. order) :-0.2891214E+02  (-0.3967071E+01)
 number of electron     400.0000000 magnetization       3.1347463      3.1292978      3.1323159
 augmentation part        8.0934385 magnetization       3.3562452      3.3526043      3.3543814

 Broyden mixing:
  rms(total) = 0.38158E+00    rms(broyden)= 0.38158E+00
  rms(prec ) = 0.43522E+00
  weight for this iteration     100.00

 eigenvalues of (default mixing * dielectric matrix)
  average eigenvalue GAMMA=   1.2109
  2.0763  2.0763  0.9387  0.9387  0.6592  0.5763

 Free energy of the ion-electron system (eV)
  ---------------------------------------------------
  alpha Z        PSCENC =       370.05370877
  Ewald energy   TEWEN  =    -15534.46532026
  -Hartree energ DENC   =     -8521.04683729
  -exchange      EXHF   =         0.00000000
  -V(xc)+E(xc)   XCENC  =       428.39435867
  PAW double counting   =     30986.15527339   -30247.37088110
  entropy T*S    EENTRO =         0.00000000
  eigenvalues    EBANDS =     -2641.13888224
  atomic energy  EATOM  =     24749.00668030
  Solvation  Ediel_sol  =         0.00000000
  ---------------------------------------------------
  free energy    TOTEN  =      -410.41189976 eV

  energy without entropy =     -410.41189976  energy(sigma->0) =     -410.41189976


--------------------------------------------------------------------------------------------------------




----------------------------------------- Iteration    1(  12)  ---------------------------------------


    POTLOK:  cpu time    0.9041: real time    0.9027
    SETDIJ:  cpu time    2.4162: real time    2.4200
     EDDAV:  cpu time   63.3840: real time   63.4242
       DOS:  cpu time    0.0040: real time    0.0039
    CHARGE:  cpu time    5.1843: real time    5.1872
    MIXING:  cpu time    0.0360: real time    0.0369
    --------------------------------------------
      LOOP:  cpu time   71.9285: real time   72.0144

 eigenvalue-minimisations  : 41032
 total energy-change (2. order) :-0.1077793E+02  (-0.1681771E+01)
 number of electron     400.0000000 magnetization       2.5266906      2.5223327      2.5249499
 augmentation part        7.8989714 magnetization       2.5900362      2.5855711      2.5875290

 Broyden mixing:
  rms(total) = 0.25333E+00    rms(broyden)= 0.25333E+00
  rms(prec ) = 0.29377E+00
  weight for this iteration     100.00

 eigenvalues of (default mixing * dielectric matrix)
  average eigenvalue GAMMA=   1.1605
  2.0826  2.0826  0.9926  0.9926  0.6865  0.6865  0.5999

 Free energy of the ion-electron system (eV)
  ---------------------------------------------------
  alpha Z        PSCENC =       370.05370877
  Ewald energy   TEWEN  =    -15534.46532026
  -Hartree energ DENC   =     -8475.08104232
  -exchange      EXHF   =         0.00000000
  -V(xc)+E(xc)   XCENC  =       422.21514464
  PAW double counting   =     30818.87427027   -30077.45144078
  entropy T*S    EENTRO =         0.00000000
  eigenvalues    EBANDS =     -2694.34183253
  atomic energy  EATOM  =     24749.00668030
  Solvation  Ediel_sol  =         0.00000000
  ---------------------------------------------------
  free energy    TOTEN  =      -421.18983192 eV

  energy without entropy =     -421.18983192  energy(sigma->0) =     -421.18983192


--------------------------------------------------------------------------------------------------------




----------------------------------------- Iteration    1(  13)  ---------------------------------------


    POTLOK:  cpu time    0.9041: real time    0.9062
    SETDIJ:  cpu time    2.4162: real time    2.4193
     EDDAV:  cpu time   61.2238: real time   61.2644
       DOS:  cpu time    0.0080: real time    0.0060
    CHARGE:  cpu time    5.2083: real time    5.2134
    MIXING:  cpu time    0.0400: real time    0.0362
    --------------------------------------------
      LOOP:  cpu time   69.8044: real time   69.8719

 eigenvalue-minimisations  : 39848
 total energy-change (2. order) :-0.1685076E+01  (-0.2571357E+00)
 number of electron     400.0000000 magnetization       1.6633734      1.6609865      1.6625421
 augmentation part        7.9094083 magnetization       1.7131733      1.7118294      1.7125714

 Broyden mixing:
  rms(total) = 0.20794E+00    rms(broyden)= 0.20794E+00
  rms(prec ) = 0.24592E+00
  weight for this iteration     100.00

 eigenvalues of (default mixing * dielectric matrix)
  average eigenvalue GAMMA=   1.1895
  2.2089  2.2089  1.0900  1.0900  0.8618  0.8618  0.6223  0.5719

 Free energy of the ion-electron system (eV)
  ---------------------------------------------------
  alpha Z        PSCENC =       370.05370877
  Ewald energy   TEWEN  =    -15534.46532026
  -Hartree energ DENC   =     -8462.99267431
  -exchange      EXHF   =         0.00000000
  -V(xc)+E(xc)   XCENC  =       421.07069383
  PAW double counting   =     30649.19966895   -29907.34566988
  entropy T*S    EENTRO =         0.00000000
  eigenvalues    EBANDS =     -2707.40199503
[...]
     0.0000000     0.0000000     0.0000000     0.0000000     0.0000000     0.0000000     0.0000000
     0.0000000     0.0000000     0.0000000     0.0000000     0.0000000     0.0000000     0.0000000
     0.0000000     0.0000000     0.0000000     0.0000000     0.0000000     0.0000000     0.0000000
     0.0000000     0.0000000     0.0000000     0.0000000     0.0000000     0.0000000     0.0000000

 Ion:   82  E_soc:     -0.2790460
 l=   1
     0.0000000    -0.0479709    -0.0484523
    -0.0479709     0.0000000    -0.0431187
    -0.0484523    -0.0431187     0.0000000
 l=   2
     0.0000000    -0.0000091     0.0000000    -0.0000029     0.0000222
    -0.0000091     0.0000000     0.0000048    -0.0000025     0.0000114
     0.0000000     0.0000048     0.0000000    -0.0000034     0.0000000
    -0.0000029    -0.0000025    -0.0000034     0.0000000    -0.0000017
     0.0000222     0.0000114     0.0000000    -0.0000017     0.0000000
 l=   3
     0.0000000     0.0000000     0.0000000     0.0000000     0.0000000     0.0000000     0.0000000
     0.0000000     0.0000000     0.0000000     0.0000000     0.0000000     0.0000000     0.0000000
     0.0000000     0.0000000     0.0000000     0.0000000     0.0000000     0.0000000     0.0000000
     0.0000000     0.0000000     0.0000000     0.0000000     0.0000000     0.0000000     0.0000000
     0.0000000     0.0000000     0.0000000     0.0000000     0.0000000     0.0000000     0.0000000
     0.0000000     0.0000000     0.0000000     0.0000000     0.0000000     0.0000000     0.0000000
     0.0000000     0.0000000     0.0000000     0.0000000     0.0000000     0.0000000     0.0000000

 Ion:   83  E_soc:     -0.2790460
 l=   1
     0.0000000    -0.0479709    -0.0484523
    -0.0479709     0.0000000    -0.0431187
    -0.0484523    -0.0431187     0.0000000
 l=   2
     0.0000000    -0.0000091     0.0000000    -0.0000029     0.0000222
    -0.0000091     0.0000000     0.0000048    -0.0000025     0.0000114
     0.0000000     0.0000048     0.0000000    -0.0000034     0.0000000
    -0.0000029    -0.0000025    -0.0000034     0.0000000    -0.0000017
     0.0000222     0.0000114     0.0000000    -0.0000017     0.0000000
 l=   3
     0.0000000     0.0000000     0.0000000     0.0000000     0.0000000     0.0000000     0.0000000
     0.0000000     0.0000000     0.0000000     0.0000000     0.0000000     0.0000000     0.0000000
     0.0000000     0.0000000     0.0000000     0.0000000     0.0000000     0.0000000     0.0000000
     0.0000000     0.0000000     0.0000000     0.0000000     0.0000000     0.0000000     0.0000000
     0.0000000     0.0000000     0.0000000     0.0000000     0.0000000     0.0000000     0.0000000
     0.0000000     0.0000000     0.0000000     0.0000000     0.0000000     0.0000000     0.0000000
     0.0000000     0.0000000     0.0000000     0.0000000     0.0000000     0.0000000     0.0000000

 Ion:   84  E_soc:     -0.2807980
 l=   1
     0.0000000    -0.0487173    -0.0487919
    -0.0487173     0.0000000    -0.0429139
    -0.0487919    -0.0429139     0.0000000
 l=   2
     0.0000000    -0.0000104     0.0000000    -0.0000029     0.0000238
    -0.0000104     0.0000000     0.0000057    -0.0000023     0.0000142
     0.0000000     0.0000057     0.0000000    -0.0000031     0.0000000
    -0.0000029    -0.0000023    -0.0000031     0.0000000    -0.0000009
     0.0000238     0.0000142     0.0000000    -0.0000009     0.0000000
 l=   3
     0.0000000     0.0000000     0.0000000     0.0000000     0.0000000     0.0000000     0.0000000
     0.0000000     0.0000000     0.0000000     0.0000000     0.0000000     0.0000000     0.0000000
     0.0000000     0.0000000     0.0000000     0.0000000     0.0000000     0.0000000     0.0000000
     0.0000000     0.0000000     0.0000000     0.0000000     0.0000000     0.0000000     0.0000000
     0.0000000     0.0000000     0.0000000     0.0000000     0.0000000     0.0000000     0.0000000
     0.0000000     0.0000000     0.0000000     0.0000000     0.0000000     0.0000000     0.0000000
     0.0000000     0.0000000     0.0000000     0.0000000     0.0000000     0.0000000     0.0000000

 Ion:   85  E_soc:     -0.2790460
 l=   1
     0.0000000    -0.0479709    -0.0484523
    -0.0479709     0.0000000    -0.0431187
    -0.0484523    -0.0431187     0.0000000
 l=   2
     0.0000000    -0.0000091     0.0000000    -0.0000029     0.0000222
    -0.0000091     0.0000000     0.0000048    -0.0000025     0.0000114
     0.0000000     0.0000048     0.0000000    -0.0000034     0.0000000
    -0.0000029    -0.0000025    -0.0000034     0.0000000    -0.0000017
     0.0000222     0.0000114     0.0000000    -0.0000017     0.0000000
 l=   3
     0.0000000     0.0000000     0.0000000     0.0000000     0.0000000     0.0000000     0.0000000
     0.0000000     0.0000000     0.0000000     0.0000000     0.0000000     0.0000000     0.0000000
     0.0000000     0.0000000     0.0000000     0.0000000     0.0000000     0.0000000     0.0000000
     0.0000000     0.0000000     0.0000000     0.0000000     0.0000000     0.0000000     0.0000000
     0.0000000     0.0000000     0.0000000     0.0000000     0.0000000     0.0000000     0.0000000
     0.0000000     0.0000000     0.0000000     0.0000000     0.0000000     0.0000000     0.0000000
     0.0000000     0.0000000     0.0000000     0.0000000     0.0000000     0.0000000     0.0000000

 Ion:   86  E_soc:     -0.2807980
 l=   1
     0.0000000    -0.0487173    -0.0487919
    -0.0487173     0.0000000    -0.0429139
    -0.0487919    -0.0429139     0.0000000
 l=   2
     0.0000000    -0.0000104     0.0000000    -0.0000029     0.0000238
    -0.0000104     0.0000000     0.0000057    -0.0000023     0.0000142
     0.0000000     0.0000057     0.0000000    -0.0000031     0.0000000
    -0.0000029    -0.0000023    -0.0000031     0.0000000    -0.0000009
     0.0000238     0.0000142     0.0000000    -0.0000009     0.0000000
 l=   3
     0.0000000     0.0000000     0.0000000     0.0000000     0.0000000     0.0000000     0.0000000
     0.0000000     0.0000000     0.0000000     0.0000000     0.0000000     0.0000000     0.0000000
     0.0000000     0.0000000     0.0000000     0.0000000     0.0000000     0.0000000     0.0000000
     0.0000000     0.0000000     0.0000000     0.0000000     0.0000000     0.0000000     0.0000000
     0.0000000     0.0000000     0.0000000     0.0000000     0.0000000     0.0000000     0.0000000
     0.0000000     0.0000000     0.0000000     0.0000000     0.0000000     0.0000000     0.0000000
     0.0000000     0.0000000     0.0000000     0.0000000     0.0000000     0.0000000     0.0000000

 Ion:   87  E_soc:     -0.2807980
 l=   1
     0.0000000    -0.0487173    -0.0487919
    -0.0487173     0.0000000    -0.0429139
    -0.0487919    -0.0429139     0.0000000
 l=   2
     0.0000000    -0.0000104     0.0000000    -0.0000029     0.0000238
    -0.0000104     0.0000000     0.0000057    -0.0000023     0.0000142
     0.0000000     0.0000057     0.0000000    -0.0000031     0.0000000
    -0.0000029    -0.0000023    -0.0000031     0.0000000    -0.0000009
     0.0000238     0.0000142     0.0000000    -0.0000009     0.0000000
 l=   3
     0.0000000     0.0000000     0.0000000     0.0000000     0.0000000     0.0000000     0.0000000
     0.0000000     0.0000000     0.0000000     0.0000000     0.0000000     0.0000000     0.0000000
     0.0000000     0.0000000     0.0000000     0.0000000     0.0000000     0.0000000     0.0000000
     0.0000000     0.0000000     0.0000000     0.0000000     0.0000000     0.0000000     0.0000000
     0.0000000     0.0000000     0.0000000     0.0000000     0.0000000     0.0000000     0.0000000
     0.0000000     0.0000000     0.0000000     0.0000000     0.0000000     0.0000000     0.0000000
     0.0000000     0.0000000     0.0000000     0.0000000     0.0000000     0.0000000     0.0000000

 Ion:   88  E_soc:     -0.2790460
 l=   1
     0.0000000    -0.0479709    -0.0484523
    -0.0479709     0.0000000    -0.0431187
    -0.0484523    -0.0431187     0.0000000
 l=   2
     0.0000000    -0.0000091     0.0000000    -0.0000029     0.0000222
    -0.0000091     0.0000000     0.0000048    -0.0000025     0.0000114
     0.0000000     0.0000048     0.0000000    -0.0000034     0.0000000
    -0.0000029    -0.0000025    -0.0000034     0.0000000    -0.0000017
     0.0000222     0.0000114     0.0000000    -0.0000017     0.0000000
 l=   3
     0.0000000     0.0000000     0.0000000     0.0000000     0.0000000     0.0000000     0.0000000
     0.0000000     0.0000000     0.0000000     0.0000000     0.0000000     0.0000000     0.0000000
     0.0000000     0.0000000     0.0000000     0.0000000     0.0000000     0.0000000     0.0000000
     0.0000000     0.0000000     0.0000000     0.0000000     0.0000000     0.0000000     0.0000000
     0.0000000     0.0000000     0.0000000     0.0000000     0.0000000     0.0000000     0.0000000
     0.0000000     0.0000000     0.0000000     0.0000000     0.0000000     0.0000000     0.0000000
     0.0000000     0.0000000     0.0000000     0.0000000     0.0000000     0.0000000     0.0000000

 Ion:   89  E_soc:     -0.2855358
 l=   1
     0.0000000    -0.0430129    -0.0494389
    -0.0430129     0.0000000    -0.0503368
    -0.0494389    -0.0503368     0.0000000
 l=   2
     0.0000000    -0.0000021     0.0000000    -0.0000079     0.0000193
    -0.0000021     0.0000000    -0.0000023    -0.0000024    -0.0000015
     0.0000000    -0.0000023     0.0000000     0.0000050     0.0000000
    -0.0000079    -0.0000024     0.0000050     0.0000000     0.0000126
     0.0000193    -0.0000015     0.0000000     0.0000126     0.0000000
 l=   3
     0.0000000     0.0000000     0.0000000     0.0000000     0.0000000     0.0000000     0.0000000
     0.0000000     0.0000000     0.0000000     0.0000000     0.0000000     0.0000000     0.0000000
     0.0000000     0.0000000     0.0000000     0.0000000     0.0000000     0.0000000     0.0000000
     0.0000000     0.0000000     0.0000000     0.0000000     0.0000000     0.0000000     0.0000000
     0.0000000     0.0000000     0.0000000     0.0000000     0.0000000     0.0000000     0.0000000
     0.0000000     0.0000000     0.0000000     0.0000000     0.0000000     0.0000000     0.0000000
     0.0000000     0.0000000     0.0000000     0.0000000     0.0000000     0.0000000     0.0000000

 Ion:   90  E_soc:     -0.2855223
 l=   1
     0.0000000    -0.0430129    -0.0494347
    -0.0430129     0.0000000    -0.0503343
    -0.0494347    -0.0503343     0.0000000
 l=   2
     0.0000000    -0.0000021     0.0000000    -0.0000079     0.0000193
    -0.0000021     0.0000000    -0.0000023    -0.0000024    -0.0000015
     0.0000000    -0.0000023     0.0000000     0.0000050     0.0000000
    -0.0000079    -0.0000024     0.0000050     0.0000000     0.0000126
     0.0000193    -0.0000015     0.0000000     0.0000126     0.0000000
 l=   3
     0.0000000     0.0000000     0.0000000     0.0000000     0.0000000     0.0000000     0.0000000
     0.0000000     0.0000000     0.0000000     0.0000000     0.0000000     0.0000000     0.0000000
     0.0000000     0.0000000     0.0000000     0.0000000     0.0000000     0.0000000     0.0000000
     0.0000000     0.0000000     0.0000000     0.0000000     0.0000000     0.0000000     0.0000000
     0.0000000     0.0000000     0.0000000     0.0000000     0.0000000     0.0000000     0.0000000
     0.0000000     0.0000000     0.0000000     0.0000000     0.0000000     0.0000000     0.0000000
     0.0000000     0.0000000     0.0000000     0.0000000     0.0000000     0.0000000     0.0000000

 Ion:   91  E_soc:     -0.2855223
 l=   1
     0.0000000    -0.0430129    -0.0494347
    -0.0430129     0.0000000    -0.0503343
    -0.0494347    -0.0503343     0.0000000
 l=   2
     0.0000000    -0.0000021     0.0000000    -0.0000079     0.0000193
    -0.0000021     0.0000000    -0.0000023    -0.0000024    -0.0000015
     0.0000000    -0.0000023     0.0000000     0.0000050     0.0000000
    -0.0000079    -0.0000024     0.0000050     0.0000000     0.0000126
     0.0000193    -0.0000015     0.0000000     0.0000126     0.0000000
 l=   3
     0.0000000     0.0000000     0.0000000     0.0000000     0.0000000     0.0000000     0.0000000
     0.0000000     0.0000000     0.0000000     0.0000000     0.0000000     0.0000000     0.0000000
     0.0000000     0.0000000     0.0000000     0.0000000     0.0000000     0.0000000     0.0000000
     0.0000000     0.0000000     0.0000000     0.0000000     0.0000000     0.0000000     0.0000000
     0.0000000     0.0000000     0.0000000     0.0000000     0.0000000     0.0000000     0.0000000
     0.0000000     0.0000000     0.0000000     0.0000000     0.0000000     0.0000000     0.0000000
     0.0000000     0.0000000     0.0000000     0.0000000     0.0000000     0.0000000     0.0000000

 Ion:   92  E_soc:     -0.2855358
 l=   1
     0.0000000    -0.0430129    -0.0494389
    -0.0430129     0.0000000    -0.0503368
    -0.0494389    -0.0503368     0.0000000
 l=   2
     0.0000000    -0.0000021     0.0000000    -0.0000079     0.0000193
    -0.0000021     0.0000000    -0.0000023    -0.0000024    -0.0000015
     0.0000000    -0.0000023     0.0000000     0.0000050     0.0000000
    -0.0000079    -0.0000024     0.0000050     0.0000000     0.0000126
     0.0000193    -0.0000015     0.0000000     0.0000126     0.0000000
 l=   3
     0.0000000     0.0000000     0.0000000     0.0000000     0.0000000     0.0000000     0.0000000
     0.0000000     0.0000000     0.0000000     0.0000000     0.0000000     0.0000000     0.0000000
     0.0000000     0.0000000     0.0000000     0.0000000     0.0000000     0.0000000     0.0000000
     0.0000000     0.0000000     0.0000000     0.0000000     0.0000000     0.0000000     0.0000000
     0.0000000     0.0000000     0.0000000     0.0000000     0.0000000     0.0000000     0.0000000
     0.0000000     0.0000000     0.0000000     0.0000000     0.0000000     0.0000000     0.0000000
     0.0000000     0.0000000     0.0000000     0.0000000     0.0000000     0.0000000     0.0000000

 Ion:   93  E_soc:     -0.2855223
 l=   1
     0.0000000    -0.0430129    -0.0494347
    -0.0430129     0.0000000    -0.0503343
    -0.0494347    -0.0503343     0.0000000
 l=   2
     0.0000000    -0.0000021     0.0000000    -0.0000079     0.0000193
    -0.0000021     0.0000000    -0.0000023    -0.0000024    -0.0000015
     0.0000000    -0.0000023     0.0000000     0.0000050     0.0000000
    -0.0000079    -0.0000024     0.0000050     0.0000000     0.0000126
     0.0000193    -0.0000015     0.0000000     0.0000126     0.0000000
 l=   3
     0.0000000     0.0000000     0.0000000     0.0000000     0.0000000     0.0000000     0.0000000
     0.0000000     0.0000000     0.0000000     0.0000000     0.0000000     0.0000000     0.0000000
     0.0000000     0.0000000     0.0000000     0.0000000     0.0000000     0.0000000     0.0000000
     0.0000000     0.0000000     0.0000000     0.0000000     0.0000000     0.0000000     0.0000000
     0.0000000     0.0000000     0.0000000     0.0000000     0.0000000     0.0000000     0.0000000
     0.0000000     0.0000000     0.0000000     0.0000000     0.0000000     0.0000000     0.0000000
     0.0000000     0.0000000     0.0000000     0.0000000     0.0000000     0.0000000     0.0000000

 Ion:   94  E_soc:     -0.2855358
 l=   1
     0.0000000    -0.0430129    -0.0494389
    -0.0430129     0.0000000    -0.0503368
    -0.0494389    -0.0503368     0.0000000
 l=   2
     0.0000000    -0.0000021     0.0000000    -0.0000079     0.0000193
    -0.0000021     0.0000000    -0.0000023    -0.0000024    -0.0000015
     0.0000000    -0.0000023     0.0000000     0.0000050     0.0000000
    -0.0000079    -0.0000024     0.0000050     0.0000000     0.0000126
     0.0000193    -0.0000015     0.0000000     0.0000126     0.0000000
 l=   3
     0.0000000     0.0000000     0.0000000     0.0000000     0.0000000     0.0000000     0.0000000
     0.0000000     0.0000000     0.0000000     0.0000000     0.0000000     0.0000000     0.0000000
     0.0000000     0.0000000     0.0000000     0.0000000     0.0000000     0.0000000     0.0000000
     0.0000000     0.0000000     0.0000000     0.0000000     0.0000000     0.0000000     0.0000000
     0.0000000     0.0000000     0.0000000     0.0000000     0.0000000     0.0000000     0.0000000
     0.0000000     0.0000000     0.0000000     0.0000000     0.0000000     0.0000000     0.0000000
     0.0000000     0.0000000     0.0000000     0.0000000     0.0000000     0.0000000     0.0000000

 Ion:   95  E_soc:     -0.2855358
 l=   1
     0.0000000    -0.0430129    -0.0494389
    -0.0430129     0.0000000    -0.0503368
    -0.0494389    -0.0503368     0.0000000
 l=   2
     0.0000000    -0.0000021     0.0000000    -0.0000079     0.0000193
    -0.0000021     0.0000000    -0.0000023    -0.0000024    -0.0000015
     0.0000000    -0.0000023     0.0000000     0.0000050     0.0000000
    -0.0000079    -0.0000024     0.0000050     0.0000000     0.0000126
     0.0000193    -0.0000015     0.0000000     0.0000126     0.0000000
 l=   3
     0.0000000     0.0000000     0.0000000     0.0000000     0.0000000     0.0000000     0.0000000
     0.0000000     0.0000000     0.0000000     0.0000000     0.0000000     0.0000000     0.0000000
     0.0000000     0.0000000     0.0000000     0.0000000     0.0000000     0.0000000     0.0000000
     0.0000000     0.0000000     0.0000000     0.0000000     0.0000000     0.0000000     0.0000000
     0.0000000     0.0000000     0.0000000     0.0000000     0.0000000     0.0000000     0.0000000
     0.0000000     0.0000000     0.0000000     0.0000000     0.0000000     0.0000000     0.0000000
     0.0000000     0.0000000     0.0000000     0.0000000     0.0000000     0.0000000     0.0000000

 Ion:   96  E_soc:     -0.2855223
 l=   1
     0.0000000    -0.0430129    -0.0494347
    -0.0430129     0.0000000    -0.0503343
    -0.0494347    -0.0503343     0.0000000
 l=   2
     0.0000000    -0.0000021     0.0000000    -0.0000079     0.0000193
    -0.0000021     0.0000000    -0.0000023    -0.0000024    -0.0000015
     0.0000000    -0.0000023     0.0000000     0.0000050     0.0000000
    -0.0000079    -0.0000024     0.0000050     0.0000000     0.0000126
     0.0000193    -0.0000015     0.0000000     0.0000126     0.0000000
 l=   3
     0.0000000     0.0000000     0.0000000     0.0000000     0.0000000     0.0000000     0.0000000
     0.0000000     0.0000000     0.0000000     0.0000000     0.0000000     0.0000000     0.0000000
     0.0000000     0.0000000     0.0000000     0.0000000     0.0000000     0.0000000     0.0000000
     0.0000000     0.0000000     0.0000000     0.0000000     0.0000000     0.0000000     0.0000000
     0.0000000     0.0000000     0.0000000     0.0000000     0.0000000     0.0000000     0.0000000
     0.0000000     0.0000000     0.0000000     0.0000000     0.0000000     0.0000000     0.0000000
     0.0000000     0.0000000     0.0000000     0.0000000     0.0000000     0.0000000     0.0000000

 total amount of memory used by VASP on root node   735166. kBytes
========================================================================

   base      :      30000. kBytes
   nonl-proj :     147503. kBytes
   fftplans  :      39541. kBytes
   grid      :      57286. kBytes
   one-center:        497. kBytes
   wavefun   :     460339. kBytes
 
  
  
 General timing and accounting informations for this job:
 ========================================================
  
                  Total CPU time used (sec):     2248.457
                            User time (sec):     2242.568
                          System time (sec):        5.888
                         Elapsed time (sec):     2254.783
  
                   Maximum memory used (kb):      730412.
                   Average memory used (kb):           0.
  
                          Minor page faults:       854625
                          Major page faults:            0
                 Voluntary context switches:         3814
