 running on  864 total cores
 distrk:  each k-point on   96 cores,    9 groups
 distr:  one band on   12 cores,    8 groups
 using from now: INCAR     
 vasp.5.4.1 24Jun15 (build Nov 25 2015 16:39:35) complex                        
  
 POSCAR found type information on POSCAR  C  N  H  Pb I 
 POSCAR found :  5 types and      96 ions
 scaLAPACK will be used

 ----------------------------------------------------------------------------- 
|                                                                             |
|           W    W    AA    RRRRR   N    N  II  N    N   GGGG   !!!           |
|           W    W   A  A   R    R  NN   N  II  NN   N  G    G  !!!           |
|           W    W  A    A  R    R  N N  N  II  N N  N  G       !!!           |
|           W WW W  AAAAAA  RRRRR   N  N N  II  N  N N  G  GGG   !            |
|           WW  WW  A    A  R   R   N   NN  II  N   NN  G    G                |
|           W    W  A    A  R    R  N    N  II  N    N   GGGG   !!!           |
|                                                                             |
|      For optimal performance we recommend to set                            |
|        NCORE= 4 - approx SQRT( number of cores)                             |
|      NCORE specifies how many cores store one orbital (NPAR=cpu/NCORE).     |
|      This setting can  greatly improve the performance of VASP for DFT.     |
|      The default, NPAR=number of cores might be grossly inefficient         |
|      on modern multi-core architectures or massively parallel machines.     |
|      Do your own testing !!!!                                               |
|      Unfortunately you need to use the default for GW and RPA calculations. |
|      (for HF NCORE is supported but not extensively tested yet)             |
|                                                                             |
 ----------------------------------------------------------------------------- 


 ----------------------------------------------------------------------------- 
|                                                                             |
|           W    W    AA    RRRRR   N    N  II  N    N   GGGG   !!!           |
|           W    W   A  A   R    R  NN   N  II  NN   N  G    G  !!!           |
|           W    W  A    A  R    R  N N  N  II  N N  N  G       !!!           |
|           W WW W  AAAAAA  RRRRR   N  N N  II  N  N N  G  GGG   !            |
|           WW  WW  A    A  R   R   N   NN  II  N   NN  G    G                |
|           W    W  A    A  R    R  N    N  II  N    N   GGGG   !!!           |
|                                                                             |
|      You have enabled k-point parallelism (KPAR>1).                         |
|      This developmental code was originally  written by Paul Kent at ORNL,  |
|      and carefully double checked in Vienna.                                |
|      GW as well as linear response parallelism added by Martijn Marsman     |
|      and Georg Kresse.                                                      |
|      Carefully verify results versus KPAR=1.                                |
|      Report problems to Paul Kent and Vienna.                               |
|                                                                             |
 ----------------------------------------------------------------------------- 


 ----------------------------------------------------------------------------- 
|                                                                             |
|  ADVICE TO THIS USER RUNNING 'VASP/VAMP'   (HEAR YOUR MASTER'S VOICE ...):  |
|                                                                             |
|      You have a (more or less) 'large supercell' and for larger cells       |
|      it might be more efficient to use real space projection opertators     |
|      So try LREAL= Auto  in the INCAR   file.                               |
|      Mind: At the moment your POTCAR file does not contain real space       |
|       projectors, and has to be modified,  BUT if you                       |
|      want to do an extremely  accurate calculation you might also keep the  |
|      reciprocal projection scheme          (i.e. LREAL=.FALSE.)             |
|                                                                             |
 ----------------------------------------------------------------------------- 


 ----------------------------------------------------------------------------- 
|                                                                             |
|  ADVICE TO THIS USER RUNNING 'VASP/VAMP'   (HEAR YOUR MASTER'S VOICE ...):  |
|                                                                             |
|      You enforced a specific xc-type in the INCAR file,                     |
|      a different type was found on the POTCAR file                          |
|          I HOPE YOU KNOW, WHAT YOU ARE  DOING                               |
|                                                                             |
 ----------------------------------------------------------------------------- 

 LDA part: xc-table for Pade appr. of Perdew
 POSCAR, INCAR and KPOINTS ok, starting setup
 WARNING: small aliasing (wrap around) errors must be expected
 FFT: planning ...
 WAVECAR not read
 entering main loop
       N       E                     dE             d eps       ncg     rms          rms(c)
DAV:   1     0.422729748170E+04    0.42273E+04   -0.19298E+05 32544   0.146E+03
DAV:   2     0.844139715728E+03   -0.33832E+04   -0.31336E+04 35584   0.322E+02
DAV:   3     0.234132625225E+03   -0.61001E+03   -0.58974E+03 44000   0.157E+02
DAV:   4     0.188351363046E+03   -0.45781E+02   -0.44695E+02 44056   0.438E+01
DAV:   5     0.186095081127E+03   -0.22563E+01   -0.22474E+01 50248   0.997E+00    0.980E+01
DAV:   6     0.555019041068E+02   -0.13059E+03   -0.15195E+03 37104   0.505E+01    0.488E+01
DAV:   7    -0.938686713652E+02   -0.14937E+03   -0.15933E+02 39120   0.218E+01    0.284E+01
DAV:   8    -0.202025015015E+03   -0.10816E+03   -0.64689E+01 37528   0.130E+01    0.184E+01
DAV:   9    -0.334346368115E+03   -0.13232E+03   -0.12477E+02 36704   0.162E+01    0.917E+00
DAV:  10    -0.381499762741E+03   -0.47153E+02   -0.46906E+01 37040   0.103E+01    0.662E+00
DAV:  11    -0.410411899764E+03   -0.28912E+02   -0.39671E+01 38112   0.826E+00    0.382E+00
DAV:  12    -0.421189831918E+03   -0.10778E+02   -0.16818E+01 41032   0.542E+00    0.253E+00
DAV:  13    -0.422874907627E+03   -0.16851E+01   -0.25714E+00 39848   0.258E+00    0.208E+00
DAV:  14    -0.423490390025E+03   -0.61548E+00   -0.93125E-01 38872   0.135E+00    0.113E+00
DAV:  15    -0.423547192267E+03   -0.56802E-01   -0.18036E-01 42192   0.714E-01    0.639E-01
DAV:  16    -0.423554122812E+03   -0.69305E-02   -0.27803E-02 41744   0.312E-01    0.408E-01
DAV:  17    -0.423557432182E+03   -0.33094E-02   -0.96829E-03 39024   0.169E-01    0.225E-01
DAV:  18    -0.423559064214E+03   -0.16320E-02   -0.28561E-03 40176   0.936E-02    0.821E-02
DAV:  19    -0.423559481321E+03   -0.41711E-03   -0.70583E-04 40048   0.511E-02    0.453E-02
DAV:  20    -0.423559739490E+03   -0.25817E-03   -0.20885E-04 37704   0.284E-02    0.240E-02
DAV:  21    -0.423559867729E+03   -0.12824E-03   -0.12831E-04 38008   0.192E-02    0.143E-02
DAV:  22    -0.423559876515E+03   -0.87865E-05   -0.18914E-05 44272   0.852E-03    0.998E-03
DAV:  23    -0.423559878224E+03   -0.17088E-05   -0.62664E-06 39208   0.390E-03    0.413E-03
DAV:  24    -0.423559880670E+03   -0.24461E-05   -0.27127E-06 36320   0.296E-03    0.167E-03
DAV:  25    -0.423559880781E+03   -0.11073E-06   -0.67691E-07 39600   0.142E-03    0.143E-03
DAV:  26    -0.423559880782E+03   -0.70941E-09   -0.12146E-07 43952   0.643E-04    0.106E-03
DAV:  27    -0.423559880734E+03    0.47417E-07   -0.34150E-08 34408   0.338E-04    0.372E-04
DAV:  28    -0.423559880630E+03    0.10464E-06   -0.27352E-08 31368   0.287E-04    0.272E-04
DAV:  29    -0.423559880626E+03    0.39363E-08   -0.39172E-09 30296   0.144E-04
   1 F= -.42355988E+03 E0= -.42355988E+03  d E =0.000000E+00  mag=     0.0000     0.0000     0.0000
Application 22301092 resources: utime ~1942275s, stime ~4094s, Rss ~731452, inblocks ~18341639, outblocks ~7840998
