   2   2   1   0
  0.3405476E+02  0.4583961E-09  0.4583961E-09  0.4583961E-09  0.5000000E-15
  1.000000000000000E-004
  CAR 
 Name                                    
     15.71544657    -10.13359938  301      2.37087660      1.00000000
    -10.134  0.0000E+00  0.0000E+00
    -10.047  0.0000E+00  0.0000E+00
     -9.961  0.0000E+00  0.0000E+00
     -9.875  0.0000E+00  0.0000E+00
     -9.789  0.0000E+00  0.0000E+00
     -9.703  0.0000E+00  0.0000E+00
     -9.617  0.0000E+00  0.0000E+00
     -9.530  0.0000E+00  0.0000E+00
     -9.444  0.0000E+00  0.0000E+00
     -9.358  0.0000E+00  0.0000E+00
     -9.272  0.0000E+00  0.0000E+00
     -9.186  0.0000E+00  0.0000E+00
     -9.100  0.0000E+00  0.0000E+00
     -9.013  0.4772E-15  0.4112E-16
     -8.927  0.1075E+00  0.9259E-02
     -8.841  0.8237E+00  0.8023E-01
     -8.755  0.6443E+00  0.1389E+00
     -8.669  0.1290E+01  0.2500E+00
     -8.583  0.3439E+01  0.5463E+00
     -8.496  0.7471E+01  0.1190E+01
     -8.410  0.6586E+01  0.1873E+01
     -8.324  0.1471E+01  0.2000E+01
     -8.238  0.0000E+00  0.2000E+01
     -8.152  0.0000E+00  0.2000E+01
     -8.066  0.0000E+00  0.2000E+01
     -7.980  0.0000E+00  0.2000E+01
     -7.893  0.0000E+00  0.2000E+01
     -7.807  0.0000E+00  0.2000E+01
     -7.721  0.0000E+00  0.2000E+01
     -7.635  0.0000E+00  0.2000E+01
     -7.549  0.0000E+00  0.2000E+01
     -7.463  0.0000E+00  0.2000E+01
     -7.376  0.0000E+00  0.2000E+01
     -7.290  0.0000E+00  0.2000E+01
     -7.204  0.0000E+00  0.2000E+01
     -7.118  0.0000E+00  0.2000E+01
     -7.032  0.0000E+00  0.2000E+01
     -6.946  0.0000E+00  0.2000E+01
     -6.859  0.0000E+00  0.2000E+01
     -6.773  0.0000E+00  0.2000E+01
     -6.687  0.0000E+00  0.2000E+01
     -6.601  0.0000E+00  0.2000E+01
     -6.515  0.0000E+00  0.2000E+01
     -6.429  0.0000E+00  0.2000E+01
     -6.342  0.0000E+00  0.2000E+01
     -6.256  0.0000E+00  0.2000E+01
     -6.170  0.0000E+00  0.2000E+01
     -6.084  0.0000E+00  0.2000E+01
     -5.998  0.0000E+00  0.2000E+01
     -5.912  0.0000E+00  0.2000E+01
     -5.825  0.2723E+00  0.2023E+01
     -5.739  0.2276E+02  0.3991E+01
     -5.653  0.2289E+02  0.6187E+01
     -5.567  0.1690E+02  0.7679E+01
     -5.481  0.3049E+02  0.1050E+02
     -5.395  0.1727E+00  0.1056E+02
     -5.308  0.4248E-02  0.1060E+02
     -5.222  0.5401E+01  0.1107E+02
     -5.136  0.4511E+01  0.1147E+02
     -5.050  0.4192E+01  0.1189E+02
     -4.964  0.1288E+01  0.1200E+02
     -4.878  0.0000E+00  0.1200E+02
     -4.791  0.0000E+00  0.1200E+02
     -4.705  0.0000E+00  0.1200E+02
     -4.619  0.0000E+00  0.1200E+02
     -4.533  0.0000E+00  0.1200E+02
     -4.447  0.0000E+00  0.1200E+02
     -4.361  0.0000E+00  0.1200E+02
     -4.274  0.0000E+00  0.1200E+02
     -4.188  0.0000E+00  0.1200E+02
     -4.102  0.0000E+00  0.1200E+02
     -4.016  0.0000E+00  0.1200E+02
     -3.930  0.0000E+00  0.1200E+02
     -3.844  0.0000E+00  0.1200E+02
     -3.758  0.0000E+00  0.1200E+02
     -3.671  0.0000E+00  0.1200E+02
     -3.585  0.0000E+00  0.1200E+02
     -3.499  0.0000E+00  0.1200E+02
     -3.413  0.0000E+00  0.1200E+02
     -3.327  0.0000E+00  0.1200E+02
     -3.241  0.0000E+00  0.1200E+02
     -3.154  0.0000E+00  0.1200E+02
     -3.068  0.0000E+00  0.1200E+02
     -2.982  0.0000E+00  0.1200E+02
     -2.896  0.0000E+00  0.1200E+02
     -2.810  0.0000E+00  0.1200E+02
     -2.724  0.0000E+00  0.1200E+02
     -2.637  0.0000E+00  0.1200E+02
     -2.551  0.0000E+00  0.1200E+02
     -2.465  0.0000E+00  0.1200E+02
     -2.379  0.0000E+00  0.1200E+02
     -2.293  0.8717E-12  0.1200E+02
     -2.207  0.4298E+00  0.1204E+02
     -2.120  0.1439E-01  0.1204E+02
     -2.034  0.6595E+00  0.1210E+02
     -1.948  0.6433E+01  0.1265E+02
     -1.862  0.2579E+01  0.1295E+02
     -1.776  0.3086E-02  0.1295E+02
     -1.690  0.2576E+01  0.1318E+02
     -1.603  0.2431E-02  0.1318E+02
     -1.517  0.2577E+01  0.1340E+02
     -1.431  0.2032E-11  0.1340E+02
     -1.345  0.8597E+00  0.1347E+02
     -1.259  0.5226E+00  0.1352E+02
     -1.173  0.0000E+00  0.1353E+02
     -1.086  0.0000E+00  0.1353E+02
     -1.000  0.0000E+00  0.1353E+02
     -0.914  0.1754E+01  0.1368E+02
     -0.828  0.0000E+00  0.1375E+02
     -0.742  0.0000E+00  0.1375E+02
     -0.656  0.0000E+00  0.1375E+02
     -0.569  0.0000E+00  0.1375E+02
     -0.483  0.1289E+01  0.1386E+02
     -0.397  0.1279E+01  0.1397E+02
     -0.311  0.0000E+00  0.1397E+02
     -0.225  0.4939E-08  0.1397E+02
     -0.139  0.2579E+01  0.1419E+02
     -0.052  0.6921E-12  0.1419E+02
      0.034  0.1314E+01  0.1431E+02
      0.120  0.3868E+01  0.1464E+02
      0.206  0.2555E+01  0.1486E+02
      0.292  0.0000E+00  0.1486E+02
      0.378  0.6447E+00  0.1492E+02
      0.465  0.2672E+01  0.1515E+02
      0.551  0.1434E+01  0.1527E+02
      0.637  0.7695E+01  0.1593E+02
      0.723  0.3796E+00  0.1597E+02
      0.809  0.0000E+00  0.1605E+02
      0.895  0.1283E+00  0.1606E+02
      0.981  0.4874E+01  0.1648E+02
      1.068  0.4355E-06  0.1649E+02
      1.154  0.5123E+01  0.1693E+02
      1.240  0.2568E+01  0.1716E+02
      1.326  0.0000E+00  0.1716E+02
      1.412  0.2509E-04  0.1716E+02
      1.498  0.3439E+01  0.1745E+02
      1.585  0.3007E-12  0.1745E+02
      1.671  0.3009E+01  0.1771E+02
      1.757  0.0000E+00  0.1771E+02
      1.843  0.0000E+00  0.1771E+02
      1.929  0.1289E+01  0.1782E+02
      2.015  0.1072E+00  0.1783E+02
      2.102  0.1612E+01  0.1797E+02
      2.188  0.0000E+00  0.1797E+02
      2.274  0.3125E+00  0.1800E+02
      2.360  0.0000E+00  0.1800E+02
      2.446  0.0000E+00  0.1800E+02
      2.532  0.0000E+00  0.1800E+02
      2.619  0.0000E+00  0.1800E+02
      2.705  0.0000E+00  0.1800E+02
      2.791  0.0000E+00  0.1800E+02
      2.877  0.8191E-03  0.1800E+02
      2.963  0.1066E+00  0.1801E+02
      3.049  0.0000E+00  0.1801E+02
      3.136  0.0000E+00  0.1801E+02
      3.222  0.0000E+00  0.1801E+02
      3.308  0.0000E+00  0.1801E+02
      3.394  0.0000E+00  0.1801E+02
      3.480  0.0000E+00  0.1801E+02
      3.566  0.0000E+00  0.1801E+02
      3.653  0.0000E+00  0.1801E+02
      3.739  0.0000E+00  0.1801E+02
      3.825  0.0000E+00  0.1801E+02
      3.911  0.4381E-12  0.1801E+02
      3.997  0.4359E+00  0.1805E+02
      4.083  0.1662E+01  0.1819E+02
      4.170  0.0000E+00  0.1819E+02
      4.256  0.0000E+00  0.1819E+02
      4.342  0.0000E+00  0.1819E+02
      4.428  0.0000E+00  0.1819E+02
      4.514  0.0000E+00  0.1819E+02
      4.600  0.0000E+00  0.1819E+02
      4.687  0.5964E+00  0.1825E+02
      4.773  0.3220E+00  0.1828E+02
      4.859  0.1646E+01  0.1842E+02
      4.945  0.2467E+01  0.1863E+02
      5.031  0.5577E+01  0.1918E+02
      5.117  0.2139E+01  0.1936E+02
      5.204  0.1153E+01  0.1946E+02
      5.290  0.1684E+00  0.1949E+02
      5.376  0.0000E+00  0.1953E+02
      5.462  0.0000E+00  0.1953E+02
      5.548  0.0000E+00  0.1953E+02
      5.634  0.0000E+00  0.1953E+02
      5.720  0.4893E-06  0.1953E+02
      5.807  0.2579E+01  0.1975E+02
      5.893  0.5926E+01  0.2026E+02
      5.979  0.1283E+01  0.2047E+02
      6.065  0.0000E+00  0.2047E+02
      6.151  0.8943E-07  0.2047E+02
      6.237  0.2579E+01  0.2069E+02
      6.324  0.2579E+01  0.2092E+02
      6.410  0.0000E+00  0.2092E+02
      6.496  0.0000E+00  0.2092E+02
      6.582  0.0000E+00  0.2092E+02
      6.668  0.0000E+00  0.2092E+02
      6.754  0.7428E+00  0.2098E+02
      6.841  0.1672E+01  0.2128E+02
      6.927  0.8597E+00  0.2157E+02
      7.013  0.0000E+00  0.2157E+02
      7.099  0.2621E+01  0.2180E+02
      7.185  0.1566E+01  0.2194E+02
      7.271  0.4361E-01  0.2195E+02
      7.358  0.3175E+01  0.2222E+02
      7.444  0.3893E+01  0.2258E+02
      7.530  0.0000E+00  0.2261E+02
      7.616  0.1213E-04  0.2261E+02
      7.702  0.1290E+01  0.2272E+02
      7.788  0.1325E+01  0.2284E+02
      7.875  0.5102E+01  0.2328E+02
      7.961  0.2579E+01  0.2350E+02
      8.047  0.0000E+00  0.2350E+02
      8.133  0.2578E+01  0.2372E+02
      8.219  0.0000E+00  0.2372E+02
      8.305  0.2451E+01  0.2393E+02
      8.392  0.6507E+00  0.2400E+02
      8.478  0.2621E-01  0.2402E+02
      8.564  0.2553E+01  0.2424E+02
      8.650  0.0000E+00  0.2424E+02
      8.736  0.2499E+01  0.2446E+02
      8.822  0.6054E-01  0.2447E+02
      8.909  0.1229E+01  0.2457E+02
      8.995  0.3718E-03  0.2457E+02
      9.081  0.1289E+01  0.2469E+02
      9.167  0.5588E+01  0.2517E+02
      9.253  0.2040E-14  0.2517E+02
      9.339  0.6448E+00  0.2522E+02
      9.426  0.1903E+01  0.2539E+02
      9.512  0.7164E+00  0.2551E+02
      9.598  0.2574E+01  0.2573E+02
      9.684  0.1989E+01  0.2590E+02
      9.770  0.0000E+00  0.2595E+02
      9.856  0.2206E-01  0.2596E+02
      9.942  0.3847E+01  0.2629E+02
     10.029  0.1415E+00  0.2630E+02
     10.115  0.2734E+01  0.2653E+02
     10.201  0.3143E+01  0.2681E+02
     10.287  0.0000E+00  0.2681E+02
     10.373  0.2579E+01  0.2703E+02
     10.459  0.6232E-12  0.2703E+02
     10.546  0.8597E+00  0.2710E+02
     10.632  0.2327E+00  0.2712E+02
     10.718  0.4066E+01  0.2747E+02
     10.804  0.4294E+00  0.2751E+02
     10.890  0.5720E-08  0.2751E+02
     10.976  0.2901E+01  0.2776E+02
     11.063  0.1607E+01  0.2790E+02
     11.149  0.1290E+01  0.2802E+02
     11.235  0.2738E+01  0.2825E+02
     11.321  0.3868E+01  0.2869E+02
     11.407  0.0000E+00  0.2869E+02
     11.493  0.0000E+00  0.2869E+02
     11.580  0.1538E+00  0.2870E+02
     11.666  0.0000E+00  0.2870E+02
     11.752  0.9723E+00  0.2879E+02
     11.838  0.6444E+00  0.2887E+02
     11.924  0.3871E+01  0.2920E+02
     12.010  0.2576E+01  0.2943E+02
     12.097  0.3783E-04  0.2943E+02
     12.183  0.2579E+01  0.2965E+02
     12.269  0.0000E+00  0.2965E+02
     12.355  0.0000E+00  0.2965E+02
     12.441  0.2299E+01  0.2985E+02
     12.527  0.4084E+01  0.3022E+02
     12.614  0.2808E+01  0.3046E+02
     12.700  0.2350E+01  0.3067E+02
     12.786  0.0000E+00  0.3067E+02
     12.872  0.1439E+00  0.3068E+02
     12.958  0.2435E+01  0.3089E+02
     13.044  0.2822E+00  0.3091E+02
     13.131  0.0000E+00  0.3092E+02
     13.217  0.0000E+00  0.3092E+02
     13.303  0.1289E+01  0.3103E+02
     13.389  0.3902E-01  0.3103E+02
     13.475  0.2540E+01  0.3125E+02
     13.561  0.1289E+01  0.3136E+02
     13.648  0.3032E+01  0.3162E+02
     13.734  0.2138E+01  0.3181E+02
     13.820  0.3101E+00  0.3183E+02
     13.906  0.0000E+00  0.3183E+02
     13.992  0.0000E+00  0.3183E+02
     14.078  0.1222E+00  0.3184E+02
     14.165  0.5226E+00  0.3189E+02
     14.251  0.0000E+00  0.3189E+02
     14.337  0.1289E+01  0.3200E+02
     14.423  0.0000E+00  0.3200E+02
     14.509  0.0000E+00  0.3200E+02
     14.595  0.0000E+00  0.3200E+02
     14.681  0.0000E+00  0.3200E+02
     14.768  0.0000E+00  0.3200E+02
     14.854  0.0000E+00  0.3200E+02
     14.940  0.0000E+00  0.3200E+02
     15.026  0.0000E+00  0.3200E+02
     15.112  0.0000E+00  0.3200E+02
     15.198  0.0000E+00  0.3200E+02
     15.285  0.0000E+00  0.3200E+02
     15.371  0.0000E+00  0.3200E+02
     15.457  0.0000E+00  0.3200E+02
     15.543  0.0000E+00  0.3200E+02
     15.629  0.0000E+00  0.3200E+02
     15.715  0.0000E+00  0.3200E+02
     15.71544657    -10.13359938  301      2.37087660      1.00000000
    -10.134  0.0000E+00  0.0000E+00  0.0000E+00
    -10.047  0.0000E+00  0.0000E+00  0.0000E+00
     -9.961  0.0000E+00  0.0000E+00  0.0000E+00
     -9.875  0.0000E+00  0.0000E+00  0.0000E+00
     -9.789  0.0000E+00  0.0000E+00  0.0000E+00
     -9.703  0.0000E+00  0.0000E+00  0.0000E+00
     -9.617  0.0000E+00  0.0000E+00  0.0000E+00
     -9.530  0.0000E+00  0.0000E+00  0.0000E+00
     -9.444  0.0000E+00  0.0000E+00  0.0000E+00
     -9.358  0.0000E+00  0.0000E+00  0.0000E+00
     -9.272  0.0000E+00  0.0000E+00  0.0000E+00
     -9.186  0.0000E+00  0.0000E+00  0.0000E+00
     -9.100  0.0000E+00  0.0000E+00  0.0000E+00
     -9.013  0.3015E-16  0.2661E-27  0.1251E-26
     -8.927  0.6788E-02  0.5991E-13  0.2817E-12
     -8.841  0.4393E-01  0.2073E-02  0.1278E-01
     -8.755  0.3215E-01  0.2184E-02  0.1358E-01
     -8.669  0.4981E-01  0.7715E-02  0.5440E-01
     -8.583  0.1052E+00  0.2662E-01  0.2012E+00
     -8.496  0.1156E+00  0.8079E-01  0.6926E+00
     -8.410  0.2901E-01  0.8608E-01  0.7840E+00
     -8.324  0.1922E-12  0.2052E-01  0.1911E+00
     -8.238  0.0000E+00  0.0000E+00  0.0000E+00
     -8.152  0.0000E+00  0.0000E+00  0.0000E+00
     -8.066  0.0000E+00  0.0000E+00  0.0000E+00
     -7.980  0.0000E+00  0.0000E+00  0.0000E+00
     -7.893  0.0000E+00  0.0000E+00  0.0000E+00
     -7.807  0.0000E+00  0.0000E+00  0.0000E+00
     -7.721  0.0000E+00  0.0000E+00  0.0000E+00
     -7.635  0.0000E+00  0.0000E+00  0.0000E+00
     -7.549  0.0000E+00  0.0000E+00  0.0000E+00
     -7.463  0.0000E+00  0.0000E+00  0.0000E+00
     -7.376  0.0000E+00  0.0000E+00  0.0000E+00
     -7.290  0.0000E+00  0.0000E+00  0.0000E+00
     -7.204  0.0000E+00  0.0000E+00  0.0000E+00
     -7.118  0.0000E+00  0.0000E+00  0.0000E+00
     -7.032  0.0000E+00  0.0000E+00  0.0000E+00
     -6.946  0.0000E+00  0.0000E+00  0.0000E+00
     -6.859  0.0000E+00  0.0000E+00  0.0000E+00
     -6.773  0.0000E+00  0.0000E+00  0.0000E+00
     -6.687  0.0000E+00  0.0000E+00  0.0000E+00
     -6.601  0.0000E+00  0.0000E+00  0.0000E+00
     -6.515  0.0000E+00  0.0000E+00  0.0000E+00
     -6.429  0.0000E+00  0.0000E+00  0.0000E+00
     -6.342  0.0000E+00  0.0000E+00  0.0000E+00
     -6.256  0.0000E+00  0.0000E+00  0.0000E+00
     -6.170  0.0000E+00  0.0000E+00  0.0000E+00
     -6.084  0.0000E+00  0.0000E+00  0.0000E+00
     -5.998  0.0000E+00  0.0000E+00  0.0000E+00
     -5.912  0.0000E+00  0.0000E+00  0.0000E+00
     -5.825  0.3363E-15  0.1149E-03  0.2452E+00
     -5.739  0.1046E-01  0.1115E-01  0.2068E+02
     -5.653  0.5402E-02  0.1274E-01  0.2105E+02
     -5.567  0.2738E-01  0.8351E-03  0.1564E+02
     -5.481  0.2790E-01  0.1656E-02  0.2864E+02
     -5.395  0.1822E-02  0.2188E-03  0.1460E+00
     -5.308  0.4442E-04  0.5981E-05  0.3584E-02
     -5.222  0.5540E-01  0.8610E-02  0.4538E+01
     -5.136  0.2915E-01  0.1168E-01  0.3773E+01
     -5.050  0.1529E-01  0.1358E-01  0.3489E+01
     -4.964  0.5573E-15  0.5602E-02  0.1063E+01
     -4.878  0.0000E+00  0.0000E+00  0.0000E+00
     -4.791  0.0000E+00  0.0000E+00  0.0000E+00
     -4.705  0.0000E+00  0.0000E+00  0.0000E+00
     -4.619  0.0000E+00  0.0000E+00  0.0000E+00
     -4.533  0.0000E+00  0.0000E+00  0.0000E+00
     -4.447  0.0000E+00  0.0000E+00  0.0000E+00
     -4.361  0.0000E+00  0.0000E+00  0.0000E+00
     -4.274  0.0000E+00  0.0000E+00  0.0000E+00
     -4.188  0.0000E+00  0.0000E+00  0.0000E+00
     -4.102  0.0000E+00  0.0000E+00  0.0000E+00
     -4.016  0.0000E+00  0.0000E+00  0.0000E+00
     -3.930  0.0000E+00  0.0000E+00  0.0000E+00
     -3.844  0.0000E+00  0.0000E+00  0.0000E+00
     -3.758  0.0000E+00  0.0000E+00  0.0000E+00
     -3.671  0.0000E+00  0.0000E+00  0.0000E+00
     -3.585  0.0000E+00  0.0000E+00  0.0000E+00
     -3.499  0.0000E+00  0.0000E+00  0.0000E+00
     -3.413  0.0000E+00  0.0000E+00  0.0000E+00
     -3.327  0.0000E+00  0.0000E+00  0.0000E+00
     -3.241  0.0000E+00  0.0000E+00  0.0000E+00
     -3.154  0.0000E+00  0.0000E+00  0.0000E+00
     -3.068  0.0000E+00  0.0000E+00  0.0000E+00
     -2.982  0.0000E+00  0.0000E+00  0.0000E+00
     -2.896  0.0000E+00  0.0000E+00  0.0000E+00
     -2.810  0.0000E+00  0.0000E+00  0.0000E+00
     -2.724  0.0000E+00  0.0000E+00  0.0000E+00
     -2.637  0.0000E+00  0.0000E+00  0.0000E+00
     -2.551  0.0000E+00  0.0000E+00  0.0000E+00
     -2.465  0.0000E+00  0.0000E+00  0.0000E+00
     -2.379  0.0000E+00  0.0000E+00  0.0000E+00
     -2.293  0.1447E-12  0.2290E-13  0.8165E-16
     -2.207  0.7134E-01  0.1129E-01  0.4026E-04
     -2.120  0.3532E-02  0.1486E-14  0.4941E-03
     -2.034  0.1460E+00  0.5837E-02  0.1487E-01
     -1.948  0.1418E+01  0.7517E-01  0.6780E-01
     -1.862  0.6069E+00  0.1042E-01  0.8439E-01
     -1.776  0.5417E-03  0.6809E-04  0.8140E-04
     -1.690  0.4522E+00  0.5684E-01  0.6795E-01
     -1.603  0.5043E-03  0.2794E-04  0.9605E-04
     -1.517  0.5345E+00  0.2961E-01  0.1018E+00
     -1.431  0.2942E-12  0.5702E-13  0.8560E-13
     -1.345  0.1245E+00  0.2413E-01  0.3622E-01
     -1.259  0.1073E+00  0.3334E-02  0.3402E-01
     -1.173  0.0000E+00  0.0000E+00  0.0000E+00
     -1.086  0.0000E+00  0.0000E+00  0.0000E+00
     -1.000  0.0000E+00  0.0000E+00  0.0000E+00
     -0.914  0.2857E+00  0.3482E-01  0.1004E+00
     -0.828  0.0000E+00  0.0000E+00  0.0000E+00
     -0.742  0.0000E+00  0.0000E+00  0.0000E+00
     -0.656  0.0000E+00  0.0000E+00  0.0000E+00
     -0.569  0.0000E+00  0.0000E+00  0.0000E+00
     -0.483  0.1944E+00  0.2802E-01  0.7758E-01
     -0.397  0.6198E-02  0.9191E-01  0.3822E-01
     -0.311  0.0000E+00  0.0000E+00  0.0000E+00
     -0.225  0.8331E-10  0.3357E-09  0.1651E-09
     -0.139  0.4351E-01  0.1753E+00  0.8620E-01
     -0.052  0.1612E-14  0.4747E-13  0.2773E-13
      0.034  0.3156E-02  0.9027E-01  0.5232E-01
      0.120  0.1641E-01  0.3020E+00  0.8147E-01
      0.206  0.3518E-01  0.1794E+00  0.8244E-01
      0.292  0.0000E+00  0.0000E+00  0.0000E+00
      0.378  0.1565E-13  0.5196E-01  0.1202E-01
      0.465  0.8981E-01  0.1626E+00  0.1104E+00
      0.551  0.1884E+00  0.3021E-01  0.9214E-01
      0.637  0.9385E-01  0.5430E+00  0.2654E+00
      0.723  0.1900E-16  0.2847E-01  0.1242E-01
      0.809  0.0000E+00  0.0000E+00  0.0000E+00
      0.895  0.2503E-03  0.9187E-02  0.4909E-02
      0.981  0.2566E-01  0.3365E+00  0.2009E+00
      1.068  0.9874E-08  0.2535E-07  0.2181E-07
      1.154  0.5848E-01  0.3257E+00  0.2371E+00
      1.240  0.1132E-13  0.1691E+00  0.1222E+00
      1.326  0.0000E+00  0.0000E+00  0.0000E+00
      1.412  0.5692E-20  0.1563E-05  0.1278E-05
      1.498  0.1131E-14  0.2139E+00  0.1748E+00
      1.585  0.1269E-27  0.1685E-13  0.1732E-13
      1.671  0.9039E-15  0.1659E+00  0.1782E+00
      1.757  0.0000E+00  0.0000E+00  0.0000E+00
      1.843  0.0000E+00  0.0000E+00  0.0000E+00
      1.929  0.1651E-15  0.6007E-01  0.8542E-01
      2.015  0.2774E-16  0.4274E-02  0.7786E-02
      2.102  0.4170E-15  0.6425E-01  0.1170E+00
      2.188  0.0000E+00  0.0000E+00  0.0000E+00
      2.274  0.4087E-14  0.8524E-02  0.2562E-01
      2.360  0.0000E+00  0.0000E+00  0.0000E+00
      2.446  0.0000E+00  0.0000E+00  0.0000E+00
      2.532  0.0000E+00  0.0000E+00  0.0000E+00
      2.619  0.0000E+00  0.0000E+00  0.0000E+00
      2.705  0.0000E+00  0.0000E+00  0.0000E+00
      2.791  0.0000E+00  0.0000E+00  0.0000E+00
      2.877  0.2504E-03  0.4539E-17  0.6899E-17
      2.963  0.3260E-01  0.5909E-15  0.8982E-15
      3.049  0.0000E+00  0.0000E+00  0.0000E+00
      3.136  0.0000E+00  0.0000E+00  0.0000E+00
      3.222  0.0000E+00  0.0000E+00  0.0000E+00
      3.308  0.0000E+00  0.0000E+00  0.0000E+00
      3.394  0.0000E+00  0.0000E+00  0.0000E+00
      3.480  0.0000E+00  0.0000E+00  0.0000E+00
      3.566  0.0000E+00  0.0000E+00  0.0000E+00
      3.653  0.0000E+00  0.0000E+00  0.0000E+00
      3.739  0.0000E+00  0.0000E+00  0.0000E+00
      3.825  0.0000E+00  0.0000E+00  0.0000E+00
      3.911  0.1071E-12  0.1352E-13  0.4351E-14
      3.997  0.1063E+00  0.1346E-01  0.4302E-02
      4.083  0.3728E+00  0.5890E-01  0.9156E-02
      4.170  0.0000E+00  0.0000E+00  0.0000E+00
      4.256  0.0000E+00  0.0000E+00  0.0000E+00
      4.342  0.0000E+00  0.0000E+00  0.0000E+00
      4.428  0.0000E+00  0.0000E+00  0.0000E+00
      4.514  0.0000E+00  0.0000E+00  0.0000E+00
      4.600  0.0000E+00  0.0000E+00  0.0000E+00
      4.687  0.1198E+00  0.5115E-02  0.9606E-02
      4.773  0.1546E-13  0.3072E-01  0.1188E-01
      4.859  0.3470E+00  0.5576E-01  0.1916E-01
      4.945  0.4374E+00  0.1132E+00  0.4600E-01
      5.031  0.8977E+00  0.2675E+00  0.1197E+00
      5.117  0.4233E+00  0.6547E-01  0.3329E-01
      5.204  0.1569E+00  0.6390E-01  0.3141E-01
      5.290  0.1509E-01  0.8861E-02  0.4767E-02
      5.376  0.0000E+00  0.0000E+00  0.0000E+00
      5.462  0.0000E+00  0.0000E+00  0.0000E+00
      5.548  0.0000E+00  0.0000E+00  0.0000E+00
      5.634  0.0000E+00  0.0000E+00  0.0000E+00
      5.720  0.1163E-06  0.5224E-08  0.8213E-08
      5.807  0.6127E+00  0.2753E-01  0.4328E-01
      5.893  0.8425E+00  0.2901E+00  0.1349E+00
      5.979  0.5661E-11  0.1024E+00  0.5208E-01
      6.065  0.0000E+00  0.0000E+00  0.0000E+00
      6.151  0.4057E-08  0.1137E-07  0.1123E-08
      6.237  0.1170E+00  0.3278E+00  0.3239E-01
      6.324  0.8899E-03  0.2912E+00  0.7140E-01
      6.410  0.0000E+00  0.0000E+00  0.0000E+00
      6.496  0.0000E+00  0.0000E+00  0.0000E+00
      6.582  0.0000E+00  0.0000E+00  0.0000E+00
      6.668  0.0000E+00  0.0000E+00  0.0000E+00
      6.754  0.5243E-03  0.5446E-01  0.2644E-01
      6.841  0.4892E-01  0.2086E+00  0.3453E-01
      6.927  0.4216E-01  0.1045E+00  0.1134E-01
      7.013  0.0000E+00  0.0000E+00  0.0000E+00
      7.099  0.3611E-01  0.2520E+00  0.7607E-01
      7.185  0.1908E-13  0.3582E+00  0.1017E-01
      7.271  0.4748E-02  0.8684E-03  0.6198E-03
      7.358  0.1356E+00  0.4145E+00  0.4912E-01
      7.444  0.1994E-03  0.5110E+00  0.1051E+00
      7.530  0.0000E+00  0.0000E+00  0.0000E+00
      7.616  0.4010E-07  0.1383E-05  0.2462E-06
      7.702  0.4262E-02  0.1471E+00  0.2618E-01
      7.788  0.7511E-15  0.2770E+00  0.1595E-01
      7.875  0.1117E-02  0.6774E+00  0.1470E+00
      7.961  0.1228E+00  0.2591E+00  0.4254E-01
      8.047  0.0000E+00  0.0000E+00  0.0000E+00
      8.133  0.8842E-14  0.3770E+00  0.8221E-01
      8.219  0.0000E+00  0.0000E+00  0.0000E+00
      8.305  0.3592E-14  0.4333E+00  0.5444E-01
      8.392  0.2219E-01  0.3608E-01  0.1016E-01
      8.478  0.9097E-03  0.1670E-02  0.6273E-03
      8.564  0.8859E-01  0.1627E+00  0.6109E-01
      8.650  0.0000E+00  0.0000E+00  0.0000E+00
      8.736  0.5262E-01  0.2010E+00  0.7568E-01
      8.822  0.1660E-15  0.8233E-02  0.1509E-02
      8.909  0.3370E-14  0.1671E+00  0.3062E-01
      8.995  0.2268E-16  0.5797E-04  0.7609E-05
      9.081  0.9033E-06  0.2010E+00  0.2638E-01
      9.167  0.1540E+00  0.4250E+00  0.1612E+00
      9.253  0.9989E-18  0.1426E-16  0.1314E-15
      9.339  0.3157E-03  0.4506E-02  0.4153E-01
      9.426  0.4877E-03  0.1965E+00  0.7280E-01
      9.512  0.4601E-01  0.2872E-02  0.2219E-01
      9.598  0.4077E-02  0.4518E+00  0.6799E-01
      9.684  0.6781E-03  0.3486E+00  0.4685E-01
      9.770  0.0000E+00  0.0000E+00  0.0000E+00
      9.856  0.3252E-16  0.3314E-02  0.5410E-03
      9.942  0.6008E-14  0.3863E+00  0.1641E+00
     10.029  0.1670E-02  0.1009E-01  0.5972E-02
     10.115  0.2959E-01  0.2146E+00  0.1146E+00
     10.201  0.7290E-01  0.3375E+00  0.1046E+00
     10.287  0.0000E+00  0.0000E+00  0.0000E+00
     10.373  0.3240E-01  0.8920E-01  0.1070E+00
     10.459  0.7439E-13  0.3767E-13  0.2430E-14
     10.546  0.1026E+00  0.5197E-01  0.3352E-02
     10.632  0.5736E-10  0.5228E-02  0.1687E-01
     10.718  0.5263E-04  0.1148E+00  0.2883E+00
     10.804  0.4974E-01  0.3830E-03  0.8597E-04
     10.890  0.5307E-10  0.4300E-09  0.1626E-09
     10.976  0.4902E-01  0.1939E+00  0.7510E-01
     11.063  0.1103E-11  0.6552E-01  0.1011E+00
     11.149  0.8784E-03  0.1218E+00  0.5838E-01
     11.235  0.2995E-01  0.2020E+00  0.1272E+00
     11.321  0.1692E+00  0.5018E+00  0.5559E-01
     11.407  0.0000E+00  0.0000E+00  0.0000E+00
     11.493  0.0000E+00  0.0000E+00  0.0000E+00
     11.580  0.1118E-09  0.5491E-09  0.1542E-01
     11.666  0.0000E+00  0.0000E+00  0.0000E+00
     11.752  0.2069E-02  0.1400E+00  0.3339E-01
     11.838  0.7681E-07  0.6541E-07  0.5720E-01
     11.924  0.2829E+00  0.2363E+00  0.6822E-01
     12.010  0.2191E-09  0.7406E-01  0.1635E+00
     12.097  0.2163E-05  0.1231E-05  0.9721E-06
     12.183  0.1474E+00  0.8389E-01  0.6626E-01
     12.269  0.0000E+00  0.0000E+00  0.0000E+00
     12.355  0.0000E+00  0.0000E+00  0.0000E+00
     12.441  0.1989E-04  0.3053E+00  0.1189E+00
     12.527  0.8057E-01  0.2074E+00  0.1472E+00
     12.614  0.4974E-04  0.2405E+00  0.9123E-01
     12.700  0.5111E-03  0.8437E-01  0.1116E+00
     12.786  0.0000E+00  0.0000E+00  0.0000E+00
     12.872  0.2110E-10  0.1118E-01  0.4514E-02
     12.958  0.3571E-09  0.1892E+00  0.7639E-01
     13.044  0.2995E-10  0.2996E-07  0.1572E-07
     13.131  0.0000E+00  0.0000E+00  0.0000E+00
     13.217  0.0000E+00  0.0000E+00  0.0000E+00
     13.303  0.1805E-07  0.1930E+00  0.4904E-01
     13.389  0.6932E-05  0.4288E-02  0.1384E-02
     13.475  0.4535E-03  0.2791E+00  0.9013E-01
     13.561  0.7078E-02  0.9332E-02  0.8027E-01
     13.648  0.3917E-01  0.3625E+00  0.9596E-01
     13.734  0.5641E-02  0.3249E+00  0.7287E-01
     13.820  0.2340E-08  0.9025E-02  0.1879E-01
     13.906  0.0000E+00  0.0000E+00  0.0000E+00
     13.992  0.0000E+00  0.0000E+00  0.0000E+00
     14.078  0.7252E-02  0.2380E-01  0.7826E-03
     14.165  0.3102E-01  0.1018E+00  0.3348E-02
     14.251  0.0000E+00  0.0000E+00  0.0000E+00
     14.337  0.3265E-01  0.9785E-01  0.3291E-02
     14.423  0.0000E+00  0.0000E+00  0.0000E+00
     14.509  0.0000E+00  0.0000E+00  0.0000E+00
     14.595  0.0000E+00  0.0000E+00  0.0000E+00
     14.681  0.0000E+00  0.0000E+00  0.0000E+00
     14.768  0.0000E+00  0.0000E+00  0.0000E+00
     14.854  0.0000E+00  0.0000E+00  0.0000E+00
     14.940  0.0000E+00  0.0000E+00  0.0000E+00
     15.026  0.0000E+00  0.0000E+00  0.0000E+00
     15.112  0.0000E+00  0.0000E+00  0.0000E+00
     15.198  0.0000E+00  0.0000E+00  0.0000E+00
     15.285  0.0000E+00  0.0000E+00  0.0000E+00
     15.371  0.0000E+00  0.0000E+00  0.0000E+00
     15.457  0.0000E+00  0.0000E+00  0.0000E+00
     15.543  0.0000E+00  0.0000E+00  0.0000E+00
     15.629  0.0000E+00  0.0000E+00  0.0000E+00
     15.715  0.0000E+00  0.0000E+00  0.0000E+00
     15.71544657    -10.13359938  301      2.37087660      1.00000000
    -10.134  0.0000E+00  0.0000E+00  0.0000E+00
    -10.047  0.0000E+00  0.0000E+00  0.0000E+00
     -9.961  0.0000E+00  0.0000E+00  0.0000E+00
     -9.875  0.0000E+00  0.0000E+00  0.0000E+00
     -9.789  0.0000E+00  0.0000E+00  0.0000E+00
     -9.703  0.0000E+00  0.0000E+00  0.0000E+00
     -9.617  0.0000E+00  0.0000E+00  0.0000E+00
     -9.530  0.0000E+00  0.0000E+00  0.0000E+00
     -9.444  0.0000E+00  0.0000E+00  0.0000E+00
     -9.358  0.0000E+00  0.0000E+00  0.0000E+00
     -9.272  0.0000E+00  0.0000E+00  0.0000E+00
     -9.186  0.0000E+00  0.0000E+00  0.0000E+00
     -9.100  0.0000E+00  0.0000E+00  0.0000E+00
     -9.013  0.2712E-15  0.3810E-27  0.3924E-27
     -8.927  0.6107E-01  0.8580E-13  0.8836E-13
     -8.841  0.4730E+00  0.1583E-03  0.1133E-05
     -8.755  0.3712E+00  0.1629E-03  0.2124E-06
     -8.669  0.7490E+00  0.3770E-03  0.4705E-05
     -8.583  0.2005E+01  0.9432E-03  0.1611E-04
     -8.496  0.4367E+01  0.1026E-02  0.4582E-04
     -8.410  0.3847E+01  0.2981E-03  0.1418E-04
     -8.324  0.8582E+00  0.2293E-08  0.8577E-06
     -8.238  0.0000E+00  0.0000E+00  0.0000E+00
     -8.152  0.0000E+00  0.0000E+00  0.0000E+00
     -8.066  0.0000E+00  0.0000E+00  0.0000E+00
     -7.980  0.0000E+00  0.0000E+00  0.0000E+00
     -7.893  0.0000E+00  0.0000E+00  0.0000E+00
     -7.807  0.0000E+00  0.0000E+00  0.0000E+00
     -7.721  0.0000E+00  0.0000E+00  0.0000E+00
     -7.635  0.0000E+00  0.0000E+00  0.0000E+00
     -7.549  0.0000E+00  0.0000E+00  0.0000E+00
     -7.463  0.0000E+00  0.0000E+00  0.0000E+00
     -7.376  0.0000E+00  0.0000E+00  0.0000E+00
     -7.290  0.0000E+00  0.0000E+00  0.0000E+00
     -7.204  0.0000E+00  0.0000E+00  0.0000E+00
     -7.118  0.0000E+00  0.0000E+00  0.0000E+00
     -7.032  0.0000E+00  0.0000E+00  0.0000E+00
     -6.946  0.0000E+00  0.0000E+00  0.0000E+00
     -6.859  0.0000E+00  0.0000E+00  0.0000E+00
     -6.773  0.0000E+00  0.0000E+00  0.0000E+00
     -6.687  0.0000E+00  0.0000E+00  0.0000E+00
     -6.601  0.0000E+00  0.0000E+00  0.0000E+00
     -6.515  0.0000E+00  0.0000E+00  0.0000E+00
     -6.429  0.0000E+00  0.0000E+00  0.0000E+00
     -6.342  0.0000E+00  0.0000E+00  0.0000E+00
     -6.256  0.0000E+00  0.0000E+00  0.0000E+00
     -6.170  0.0000E+00  0.0000E+00  0.0000E+00
     -6.084  0.0000E+00  0.0000E+00  0.0000E+00
     -5.998  0.0000E+00  0.0000E+00  0.0000E+00
     -5.912  0.0000E+00  0.0000E+00  0.0000E+00
     -5.825  0.1789E-13  0.6023E-02  0.1982E-03
     -5.739  0.9189E-02  0.4057E+00  0.2106E-01
     -5.653  0.3082E-02  0.3020E+00  0.2409E-01
     -5.567  0.3217E-01  0.7552E-01  0.1638E-01
     -5.481  0.7148E-01  0.3460E-01  0.1887E-01
     -5.395  0.7425E-02  0.1394E-02  0.2225E-03
     -5.308  0.2248E-03  0.3612E-04  0.2905E-05
     -5.222  0.3009E+00  0.4448E-01  0.3776E-02
     -5.136  0.3281E+00  0.1623E-01  0.3275E-02
     -5.050  0.3696E+00  0.7487E-02  0.1647E-02
     -4.964  0.1287E+00  0.7866E-04  0.4230E-03
     -4.878  0.0000E+00  0.0000E+00  0.0000E+00
     -4.791  0.0000E+00  0.0000E+00  0.0000E+00
     -4.705  0.0000E+00  0.0000E+00  0.0000E+00
     -4.619  0.0000E+00  0.0000E+00  0.0000E+00
     -4.533  0.0000E+00  0.0000E+00  0.0000E+00
     -4.447  0.0000E+00  0.0000E+00  0.0000E+00
     -4.361  0.0000E+00  0.0000E+00  0.0000E+00
     -4.274  0.0000E+00  0.0000E+00  0.0000E+00
     -4.188  0.0000E+00  0.0000E+00  0.0000E+00
     -4.102  0.0000E+00  0.0000E+00  0.0000E+00
     -4.016  0.0000E+00  0.0000E+00  0.0000E+00
     -3.930  0.0000E+00  0.0000E+00  0.0000E+00
     -3.844  0.0000E+00  0.0000E+00  0.0000E+00
     -3.758  0.0000E+00  0.0000E+00  0.0000E+00
     -3.671  0.0000E+00  0.0000E+00  0.0000E+00
     -3.585  0.0000E+00  0.0000E+00  0.0000E+00
     -3.499  0.0000E+00  0.0000E+00  0.0000E+00
     -3.413  0.0000E+00  0.0000E+00  0.0000E+00
     -3.327  0.0000E+00  0.0000E+00  0.0000E+00
     -3.241  0.0000E+00  0.0000E+00  0.0000E+00
     -3.154  0.0000E+00  0.0000E+00  0.0000E+00
     -3.068  0.0000E+00  0.0000E+00  0.0000E+00
     -2.982  0.0000E+00  0.0000E+00  0.0000E+00
     -2.896  0.0000E+00  0.0000E+00  0.0000E+00
     -2.810  0.0000E+00  0.0000E+00  0.0000E+00
     -2.724  0.0000E+00  0.0000E+00  0.0000E+00
     -2.637  0.0000E+00  0.0000E+00  0.0000E+00
     -2.551  0.0000E+00  0.0000E+00  0.0000E+00
     -2.465  0.0000E+00  0.0000E+00  0.0000E+00