       N       E                     dE             d eps       ncg     rms          rms(c)
DAV:   1     0.974782205179E+02    0.97478E+02   -0.82221E+03  1520   0.946E+02
DAV:   2    -0.200971773732E+01   -0.99488E+02   -0.94971E+02  1800   0.234E+02
DAV:   3    -0.546466589357E+01   -0.34549E+01   -0.34510E+01  1840   0.453E+01
DAV:   4    -0.549319914073E+01   -0.28533E-01   -0.28532E-01  2312   0.370E+00
DAV:   5    -0.549325692765E+01   -0.57787E-04   -0.57787E-04  1944   0.159E-01
DAV:   6    -0.549325797471E+01   -0.10471E-05   -0.10469E-05  2224   0.157E-02
DAV:   7    -0.549325799130E+01   -0.16596E-07   -0.16639E-07  1648   0.170E-03
   1 F= -.54932580E+01 E0= -.54932580E+01  d E =-.549326E+01
