 vasp.5.4.1 24Jun15 (build Nov 25 2015 16:01:35) complex                        
  
 executed on         CrayXC-Intel date 2016.09.08  17:45:29
 running on   96 total cores
 distrk:  each k-point on   24 cores,    4 groups
 distr:  one band on NCORES_PER_BAND=   6 cores,    4 groups


--------------------------------------------------------------------------------------------------------


 INCAR:
 POTCAR:    PAW_PBE Cd 06Sep2000                  
 POTCAR:    PAW_PBE Te 08Apr2002                  

 ----------------------------------------------------------------------------- 
|                                                                             |
|           W    W    AA    RRRRR   N    N  II  N    N   GGGG   !!!           |
|           W    W   A  A   R    R  NN   N  II  NN   N  G    G  !!!           |
|           W    W  A    A  R    R  N N  N  II  N N  N  G       !!!           |
|           W WW W  AAAAAA  RRRRR   N  N N  II  N  N N  G  GGG   !            |
|           WW  WW  A    A  R   R   N   NN  II  N   NN  G    G                |
|           W    W  A    A  R    R  N    N  II  N    N   GGGG   !!!           |
|                                                                             |
|      You have enabled k-point parallelism (KPAR>1).                         |
|      This developmental code was originally  written by Paul Kent at ORNL,  |
|      and carefully double checked in Vienna.                                |
|      GW as well as linear response parallelism added by Martijn Marsman     |
|      and Georg Kresse.                                                      |
|      Carefully verify results versus KPAR=1.                                |
|      Report problems to Paul Kent and Vienna.                               |
|                                                                             |
 ----------------------------------------------------------------------------- 

 POTCAR:    PAW_PBE Cd 06Sep2000                  
   VRHFIN =Cd : s2 d10                                                          
   LEXCH  = PE                                                                  
   EATOM  =  1293.1815 eV,   95.0462 Ry                                         
                                                                                
   TITEL  = PAW_PBE Cd 06Sep2000                                                
   LULTRA =        F    use ultrasoft PP ?                                      
   IUNSCR =        1    unscreen: 0-lin 1-nonlin 2-no                           
   RPACOR =    2.000    partial core radius                                     
   POMASS =  112.411; ZVAL   =   12.000    mass and valenz                      
   RCORE  =    2.300    outmost cutoff radius                                   
   RWIGS  =    2.980; RWIGS  =    1.577    wigner-seitz radius (au A)           
   ENMAX  =  274.336; ENMIN  =  205.752 eV                                      
   RCLOC  =    2.054    cutoff for local pot                                    
   LCOR   =        T    correct aug charges                                     
   LPAW   =        T    paw PP                                                  
   EAUG   =  456.106                                                            
   DEXC   =    0.000                                                            
   RMAX   =    2.358    core radius for proj-oper                               
   RAUG   =    1.300    factor for augmentation sphere                          
   RDEP   =    2.450    radius for radial grids                                 
   RDEPT  =    1.955    core radius for aug-charge                              
                                                                                
   Atomic configuration                                                         
   12 entries                                                                   
     n  l   j            E        occ.                                          
     1  0  0.50    -26519.7817   2.0000                                         
     2  0  0.50     -3936.9612   2.0000                                         
     2  1  1.50     -3532.2230   6.0000                                         
     3  0  0.50      -733.7908   2.0000                                         
     3  1  1.50      -601.0792   6.0000                                         
     3  2  2.50      -393.5307  10.0000                                         
     4  0  0.50      -105.8977   2.0000                                         
     4  1  1.50       -66.9488   6.0000                                         
     4  2  2.50       -11.7331  10.0000                                         
     5  0  0.50        -5.6592   2.0000                                         
     5  1  0.50        -1.3606   0.0000                                         
     4  3  2.50        -1.3606   0.0000                                         
   Description                                                                  
     l       E           TYP  RCUT    TYP  RCUT                                 
     2    -11.7331479     23  2.300                                             
     2    -13.0937305     23  2.300                                             
     0     -5.6591502     23  2.300                                             
     0     -1.5561433     23  2.300                                             
     1     -2.7211652     23  2.300                                             
     1      8.3548275     23  2.300                                             
  local pseudopotential read in
  partial core-charges read in
  partial kinetic energy density read in
  atomic valenz-charges read in
  non local Contribution for L=           2  read in
    real space projection operators read in
  non local Contribution for L=           2  read in
    real space projection operators read in
  non local Contribution for L=           0  read in
    real space projection operators read in
  non local Contribution for L=           0  read in
    real space projection operators read in
  non local Contribution for L=           1  read in
    real space projection operators read in
  non local Contribution for L=           1  read in
    real space projection operators read in
    PAW grid and wavefunctions read in
 
   number of l-projection  operators is LMAX  =           6
   number of lm-projection operators is LMMAX =          18
 
 POTCAR:    PAW_PBE Te 08Apr2002                  
   VRHFIN =Te: s2p4                                                             
   LEXCH  = PE                                                                  
   EATOM  =   223.2721 eV,   16.4100 Ry                                         
                                                                                
   TITEL  = PAW_PBE Te 08Apr2002                                                
   LULTRA =        F    use ultrasoft PP ?                                      
   IUNSCR =        1    unscreen: 0-lin 1-nonlin 2-no                           
   RPACOR =    2.200    partial core radius                                     
   POMASS =  127.600; ZVAL   =    6.000    mass and valenz                      
   RCORE  =    2.300    outmost cutoff radius                                   
   RWIGS  =    2.900; RWIGS  =    1.535    wigner-seitz radius (au A)           
   ENMAX  =  174.982; ENMIN  =  131.236 eV                                      
   ICORE  =        3    local potential                                         
   LCOR   =        T    correct aug charges                                     
   LPAW   =        T    paw PP                                                  
   EAUG   =  368.792                                                            
   DEXC   =    0.000                                                            
   RMAX   =    2.345    core radius for proj-oper                               
   RAUG   =    1.300    factor for augmentation sphere                          
   RDEP   =    2.397    radius for radial grids                                 
   RDEPT  =    2.174    core radius for aug-charge                              
                                                                                
   Atomic configuration                                                         
   13 entries                                                                   
     n  l   j            E        occ.                                          
     1  0  0.50    -31621.2075   2.0000                                         
     2  0  0.50     -4848.7941   2.0000                                         
     2  1  1.50     -4352.1960   6.0000                                         
     3  0  0.50      -964.9612   2.0000                                         
     3  1  1.50      -803.6179   6.0000                                         
     3  2  2.50      -559.8710  10.0000                                         
     4  0  0.50      -164.3522   2.0000                                         
     4  1  1.50      -114.3756   6.0000                                         
     4  2  2.50       -41.6483  10.0000                                         
     5  0  0.50       -15.1072   2.0000                                         
     5  1  0.50        -5.9526   4.0000                                         
     5  2  1.50        -5.4423   0.0000                                         
     4  3  2.50        -5.4423   0.0000                                         
   Description                                                                  
     l       E           TYP  RCUT    TYP  RCUT                                 
     0    -15.1072389     23  2.300                                             
     0    -16.4678215     23  2.300                                             
     1     -5.9526306     23  2.300                                             
     1     -2.4873968     23  2.300                                             
     2     -5.4423304     23  2.300                                             
     3     -1.3605826     23  2.300                                             
  local pseudopotential read in
  partial core-charges read in
  partial kinetic energy density read in
  atomic valenz-charges read in
  non local Contribution for L=           0  read in
    real space projection operators read in
  non local Contribution for L=           0  read in
    real space projection operators read in
  non local Contribution for L=           1  read in
    real space projection operators read in
  non local Contribution for L=           1  read in
    real space projection operators read in
  non local Contribution for L=           2  read in
    real space projection operators read in
    PAW grid and wavefunctions read in
 
   number of l-projection  operators is LMAX  =           5
   number of lm-projection operators is LMMAX =          13
 

 ----------------------------------------------------------------------------- 
|                                                                             |
|  ADVICE TO THIS USER RUNNING 'VASP/VAMP'   (HEAR YOUR MASTER'S VOICE ...):  |
|                                                                             |
|      You enforced a specific xc-type in the INCAR file,                     |
|      a different type was found on the POTCAR file                          |
|          I HOPE YOU KNOW, WHAT YOU ARE  DOING                               |
|                                                                             |
 ----------------------------------------------------------------------------- 

  PAW_PBE Cd 06Sep2000                  :
 energy of atom  1       EATOM=-1293.1815
 kinetic energy error for atom=    0.0063 (will be added to EATOM!!)
  PAW_PBE Te 08Apr2002                  :
 energy of atom  2       EATOM= -223.2721
 kinetic energy error for atom=    0.0007 (will be added to EATOM!!)
 
 
 POSCAR: CdTe (ICSD, 295K, Rabadanov 2001)       
  positions in direct lattice
  velocities in cartesian coordinates
 exchange correlation table for  LEXCH =       14
   RHO(1)=    0.500       N(1)  =     2000
   RHO(2)=  100.500       N(2)  =     4000
 


--------------------------------------------------------------------------------------------------------


 ion  position               nearest neighbor table
   1  0.000  0.000  0.000-   2 2.81   2 2.81   2 2.81   2 2.81
   2  0.250  0.250  0.250-   1 2.81   1 2.81   1 2.81   1 2.81
 
  LATTYP: Found a face centered cubic cell.
 ALAT       =     6.4827000000
  
  Lattice vectors:
  
 A1 = (   3.2413500000,   3.2413500000,   0.0000000000)
 A2 = (   3.2413500000,   0.0000000000,  -3.2413500000)
 A3 = (   0.0000000000,   3.2413500000,  -3.2413500000)


Analysis of symmetry for initial positions (statically):
=====================================================================
 Subroutine PRICEL returns:
 Original cell was already a primitive cell.
 

 Routine SETGRP: Setting up the symmetry group for a 
 face centered cubic supercell.


 Subroutine GETGRP returns: Found 24 space group operations
 (whereof 24 operations were pure point group operations)
 out of a pool of 48 trial point group operations.


The static configuration has the point symmetry T_d .


Analysis of symmetry for dynamics (positions and initial velocities):
=====================================================================
 Subroutine PRICEL returns:
 Original cell was already a primitive cell.
 

 Routine SETGRP: Setting up the symmetry group for a 
 face centered cubic supercell.


 Subroutine GETGRP returns: Found 24 space group operations
 (whereof 24 operations were pure point group operations)
 out of a pool of 48 trial point group operations.


The dynamic configuration has the point symmetry T_d .


 Subroutine INISYM returns: Found 24 space group operations
 (whereof 24 operations are pure point group operations),
 and found     1 'primitive' translations

 
 
 KPOINTS: Automatically generated mesh SCF: 16 ste
  k-points in reciprocal lattice
Space group operators:
 irot       det(A)        alpha          n_x          n_y          n_z        tau_x        tau_y        tau_z
    1     1.000000     0.000000     1.000000     0.000000     0.000000     0.000000     0.000000     0.000000
    2     1.000000   120.000000    -0.577350    -0.577350     0.577350     0.000000     0.000000     0.000000
    3     1.000000   120.000000     0.577350     0.577350    -0.577350     0.000000     0.000000     0.000000
    4    -1.000000    90.000000    -1.000000     0.000000     0.000000     0.000000     0.000000     0.000000
    5    -1.000000   180.000000     0.707107     0.707107     0.000000     0.000000     0.000000     0.000000
    6    -1.000000    90.000000     0.000000     1.000000     0.000000     0.000000     0.000000     0.000000
    7     1.000000   180.000000     1.000000     0.000000     0.000000     0.000000     0.000000     0.000000
    8     1.000000   120.000000     0.577350     0.577350     0.577350     0.000000     0.000000     0.000000
    9     1.000000   120.000000    -0.577350     0.577350     0.577350     0.000000     0.000000     0.000000
   10    -1.000000    90.000000     1.000000     0.000000     0.000000     0.000000     0.000000     0.000000
   11    -1.000000    90.000000     0.000000     0.000000     1.000000     0.000000     0.000000     0.000000
   12    -1.000000   180.000000     0.707107     0.000000    -0.707107     0.000000     0.000000     0.000000
   13     1.000000   120.000000     0.577350    -0.577350    -0.577350     0.000000     0.000000     0.000000
   14     1.000000   120.000000     0.577350    -0.577350     0.577350     0.000000     0.000000     0.000000
   15     1.000000   180.000000     0.000000     0.000000     1.000000     0.000000     0.000000     0.000000
   16    -1.000000    90.000000     0.000000    -1.000000     0.000000     0.000000     0.000000     0.000000
   17    -1.000000   180.000000     0.000000    -0.707107     0.707107     0.000000     0.000000     0.000000
   18    -1.000000    90.000000     0.000000     0.000000    -1.000000     0.000000     0.000000     0.000000
   19     1.000000   120.000000    -0.577350    -0.577350    -0.577350     0.000000     0.000000     0.000000
   20     1.000000   180.000000     0.000000     1.000000     0.000000     0.000000     0.000000     0.000000
   21     1.000000   120.000000    -0.577350     0.577350    -0.577350     0.000000     0.000000     0.000000
   22    -1.000000   180.000000     0.707107    -0.707107     0.000000     0.000000     0.000000     0.000000
   23    -1.000000   180.000000     0.000000     0.707107     0.707107     0.000000     0.000000     0.000000
   24    -1.000000   180.000000     0.707107     0.000000     0.707107     0.000000     0.000000     0.000000


--------------------------------------------------------------------------------------------------------




 Dimension of arrays:
   k-points           NKPTS =     47   k-points in BZ     NKDIM =     47   number of bands    NBANDS=     16
   number of dos      NEDOS =    301   number of ions     NIONS =      2
   non local maximal  LDIM  =      6   non local SUM 2l+1 LMDIM =     18
   total plane-waves  NPLWV =  46656
   max r-space proj   IRMAX =      1   max aug-charges    IRDMAX=  40037
   dimension x,y,z NGX =    36 NGY =   36 NGZ =   36
   dimension x,y,z NGXF=    72 NGYF=   72 NGZF=   72
   support grid    NGXF=    72 NGYF=   72 NGZF=   72
   ions per type =               1   1
 NGX,Y,Z   is equivalent  to a cutoff of  13.06, 13.06, 13.06 a.u.
 NGXF,Y,Z  is equivalent  to a cutoff of  26.11, 26.11, 26.11 a.u.


 I would recommend the setting:
   dimension x,y,z NGX =    33 NGY =   33 NGZ =   33
 SYSTEM =  Name                                    
 POSCAR =  CdTe (ICSD, 295K, Rabadanov 2001)       

 Startparameter for this run:
   NWRITE =      2    write-flag & timer
   PREC   = accura    normal or accurate (medium, high low for compatibility)
   ISTART =      0    job   : 0-new  1-cont  2-samecut
   ICHARG =     11    charge: 1-file 2-atom 10-const
   ISPIN  =      1    spin polarized calculation?
   LNONCOLLINEAR =      F non collinear calculations
   LSORBIT =      F    spin-orbit coupling
   INIWAV =      1    electr: 0-lowe 1-rand  2-diag
   LASPH  =      F    aspherical Exc in radial PAW
   METAGGA=      F    non-selfconsistent MetaGGA calc.

 Electronic Relaxation 1
   ENCUT  =  500.0 eV  36.75 Ry    6.06 a.u.   8.36  8.36  8.36*2*pi/ulx,y,z
   ENINI  =  500.0     initial cutoff
   ENAUG  =  456.1 eV  augmentation charge cutoff
   NELM   =     60;   NELMIN=  2; NELMDL=  0     # of ELM steps 
   EDIFF  = 0.1E-05   stopping-criterion for ELM
   LREAL  =      F    real-space projection
   NLSPLINE    = F    spline interpolate recip. space projectors
   LCOMPAT=      F    compatible to vasp.4.4
   GGA_COMPAT  = T    GGA compatible to vasp.4.4-vasp.4.6
   LMAXPAW     = -100 max onsite density
   LMAXMIX     =    2 max onsite mixed and CHGCAR
   VOSKOWN=      0    Vosko Wilk Nusair interpolation
   ROPT   =    0.00000   0.00000
 Ionic relaxation
   EDIFFG = -.5E-02   stopping-criterion for IOM
   NSW    =      1    number of steps for IOM
   NBLOCK =      1;   KBLOCK =      1    inner block; outer block 
   IBRION =      2    ionic relax: 0-MD 1-quasi-New 2-CG
   NFREE  =      1    steps in history (QN), initial steepest desc. (CG)
   ISIF   =      3    stress and relaxation
   IWAVPR =     11    prediction:  0-non 1-charg 2-wave 3-comb
   ISYM   =      2    0-nonsym 1-usesym 2-fastsym
   LCORR  =      T    Harris-Foulkes like correction to forces

   POTIM  = 0.5000    time-step for ionic-motion
   TEIN   =    0.0    initial temperature
   TEBEG  =    0.0;   TEEND  =   0.0 temperature during run
   SMASS  =  -3.00    Nose mass-parameter (am)
   estimated Nose-frequenzy (Omega)   =  0.10E-29 period in steps =****** mass=  -0.480E-27a.u.
   SCALEE = 1.0000    scale energy and forces
   NPACO  =    256;   APACO  = 16.0  distance and # of slots for P.C.
   PSTRESS=    0.0 pullay stress

  Mass of Ions in am
   POMASS = 112.41127.60
  Ionic Valenz
   ZVAL   =  12.00  6.00
  Atomic Wigner-Seitz radii
   RWIGS  =  -1.00 -1.00
  virtual crystal weights 
   VCA    =   1.00  1.00
   NELECT =      18.0000    total number of electrons
   NUPDOWN=      -1.0000    fix difference up-down

 DOS related values:
   EMIN   =  10.00;   EMAX   =-10.00  energy-range for DOS
   EFERMI =   0.00
   ISMEAR =     0;   SIGMA  =   0.01  broadening in eV -4-tet -1-fermi 0-gaus

 Electronic relaxation 2 (details)
   IALGO  =     38    algorithm
   LDIAG  =      T    sub-space diagonalisation (order eigenvalues)
   LSUBROT=      F    optimize rotation matrix (better conditioning)
   TURBO    =      0    0=normal 1=particle mesh
   IRESTART =      0    0=no restart 2=restart with 2 vectors
   NREBOOT  =      0    no. of reboots
   NMIN     =      0    reboot dimension
   EREF     =   0.00    reference energy to select bands
   IMIX   =      4    mixing-type and parameters
     AMIX     =   0.40;   BMIX     =  1.00
     AMIX_MAG =   1.60;   BMIX_MAG =  1.00
     AMIN     =   0.01
     WC   =   100.;   INIMIX=   1;  MIXPRE=   1;  MAXMIX= -45

 Intra band minimization:
   WEIMIN = 0.0010     energy-eigenvalue tresh-hold
   EBREAK =  0.16E-07  absolut break condition
   DEPER  =   0.30     relativ break condition  

   TIME   =   0.40     timestep for ELM

  volume/ion in A,a.u.               =      34.05       229.81
  Fermi-wavevector in a.u.,A,eV,Ry     =   1.050581  1.985311 15.017042  1.103721
  Thomas-Fermi vector in A             =   2.185590
 
 Write flags
   LWAVE  =      T    write WAVECAR
   LCHARG =      T    write CHGCAR
   LVTOT  =      F    write LOCPOT, total local potential
   LVHAR  =      F    write LOCPOT, Hartree potential only
   LELF   =      F    write electronic localiz. function (ELF)
   LORBIT =     10    0 simple, 1 ext, 2 COOP (PROOUT)


 Dipole corrections
   LMONO  =      F    monopole corrections only (constant potential shift)
   LDIPOL =      F    correct potential (dipole corrections)
   IDIPOL =      0    1-x, 2-y, 3-z, 4-all directions 
   EPSILON=  1.0000000 bulk dielectric constant

 Core level calculations are selected ICORELEVEL =  1
 Exchange correlation treatment:
   GGA     =    PS    GGA type
   LEXCH   =    14    internal setting for exchange type
   VOSKOWN=      0    Vosko Wilk Nusair interpolation
   LHFCALC =     F    Hartree Fock is set to
   LHFONE  =     F    Hartree Fock one center treatment
   AEXX    =    0.0000 exact exchange contribution

 Linear response parameters
   LEPSILON=     F    determine dielectric tensor
   LRPA    =     F    only Hartree local field effects (RPA)
   LNABLA  =     F    use nabla operator in PAW spheres
   LVEL    =     F    velocity operator in full k-point grid
   LINTERFAST=   F  fast interpolation
   KINTER  =     0    interpolate to denser k-point grid
   CSHIFT  =0.1000    complex shift for real part using Kramers Kronig
   OMEGAMAX=  -1.0    maximum frequency
   DEG_THRESHOLD= 0.2000000E-02 threshold for treating states as degnerate
   RTIME   =    0.100 relaxation time in fs

 Orbital magnetization related:
   ORBITALMAG=     F  switch on orbital magnetization
   LCHIMAG   =     F  perturbation theory with respect to B field
   DQ        =  0.001000  dq finite difference perturbation B field



--------------------------------------------------------------------------------------------------------


 conjugate gradient relaxation of ions
 charge density and potential remain constant during run
 non-spin polarized calculation
 Variant of blocked Davidson
 Davidson routine will perform the subspace rotation
 perform sub-space diagonalisation
    after iterative eigenvector-optimisation
 no mixing
 using additional bands            7
 reciprocal scheme for non local part
 use partial core corrections
 calculate Harris-corrections to forces 
   (improved forces if not selfconsistent)
 use gradient corrections 
 WARNING: stress and forces are not correct
  (second derivative of E(xc) not defined)
 use of overlap-Matrix (Vanderbilt PP)
 Gauss-broadening in eV      SIGMA  =   0.01


--------------------------------------------------------------------------------------------------------


  energy-cutoff  :      500.00
  volume of cell :       68.11
      direct lattice vectors                 reciprocal lattice vectors
     3.241350000  3.241350000  0.000000000     0.154256714  0.154256714  0.154256714
     3.241350000  0.000000000 -3.241350000     0.154256714 -0.154256714 -0.154256714
     0.000000000  3.241350000 -3.241350000    -0.154256714  0.154256714 -0.154256714

  length of vectors
     4.583961130  4.583961130  4.583961130     0.267180466  0.267180466  0.267180466


 
 k-points in units of 2pi/SCALE and weight: Automatically generated mesh SCF: 16 ste
   0.00000000  0.00000000  0.00000000       0.005
   0.16666667  0.16666667  0.16666667       0.037
   0.33333333  0.33333333  0.33333333       0.037
   0.50000000  0.50000000  0.50000000       0.019
   0.33333333  0.00000000  0.00000000       0.028
   0.50000000  0.16666667  0.16666667       0.111
   0.66666667  0.33333333  0.33333333       0.111
  -0.16666667 -0.50000000 -0.50000000       0.111
   0.00000000 -0.33333333 -0.33333333       0.056
   0.66666667  0.00000000  0.00000000       0.028
   0.83333333  0.16666667  0.16666667       0.111
   0.00000000 -0.66666667 -0.66666667       0.056
   1.00000000  0.00000000  0.00000000       0.014
   0.66666667  0.33333333  0.00000000       0.111
  -0.16666667 -0.50000000 -0.83333333       0.111
   0.00000000 -0.66666667 -1.00000000       0.056
   0.00000000  0.00000000  0.00000000       0.000
   0.00000000  0.03225806  0.00000000       0.000
   0.00000000  0.06451614  0.00000000       0.000
   0.00000000  0.09677420  0.00000000       0.000
   0.00000000  0.12903226  0.00000000       0.000
   0.00000000  0.16129032  0.00000000       0.000
   0.00000000  0.19354842  0.00000000       0.000
   0.00000000  0.22580646  0.00000000       0.000
   0.00000000  0.25806454  0.00000000       0.000
   0.00000000  0.29032258  0.00000000       0.000
   0.00000000  0.32258064  0.00000000       0.000
   0.00000000  0.35483870  0.00000000       0.000
   0.00000000  0.38709682  0.00000000       0.000
   0.00000000  0.41935486  0.00000000       0.000
   0.00000000  0.45161292  0.00000000       0.000
   0.00000000  0.48387098  0.00000000       0.000
   0.00000000  0.51612908  0.00000000       0.000
   0.00000000  0.54838712  0.00000000       0.000
   0.00000000  0.58064514  0.00000000       0.000
   0.00000000  0.61290324  0.00000000       0.000
   0.00000000  0.64516128  0.00000000       0.000
   0.00000000  0.67741942  0.00000000       0.000
   0.00000000  0.70967740  0.00000000       0.000
   0.00000000  0.74193550  0.00000000       0.000
   0.00000000  0.77419364  0.00000000       0.000
   0.00000000  0.80645162  0.00000000       0.000
   0.00000000  0.83870972  0.00000000       0.000
   0.00000000  0.87096774  0.00000000       0.000
   0.00000000  0.90322584  0.00000000       0.000
   0.00000000  0.93548388  0.00000000       0.000
   0.00000000  0.96774196  0.00000000       0.000
 
 k-points in reciprocal lattice and weights: Automatically generated mesh SCF: 16 ste
   0.00000000  0.00000000  0.00000000       0.005
   0.16666667  0.00000000  0.00000000       0.037
   0.33333333  0.00000000  0.00000000       0.037
   0.50000000  0.00000000  0.00000000       0.019
   0.16666667  0.16666667  0.00000000       0.028
   0.33333333  0.16666667  0.00000000       0.111
   0.50000000  0.16666667  0.00000000       0.111
  -0.33333333  0.16666667  0.00000000       0.111
  -0.16666667  0.16666667  0.00000000       0.056
   0.33333333  0.33333333  0.00000000       0.028
   0.50000000  0.33333333  0.00000000       0.111
  -0.33333333  0.33333333  0.00000000       0.056
   0.50000000  0.50000000  0.00000000       0.014
   0.50000000  0.33333333  0.16666667       0.111
  -0.33333333  0.33333333  0.16666667       0.111
  -0.33333333  0.50000000  0.16666667       0.056
   0.00000000  0.00000000  0.00000000       0.000
   0.01612903  0.00000000  0.01612903       0.000
   0.03225807  0.00000000  0.03225807       0.000
   0.04838710  0.00000000  0.04838710       0.000
   0.06451613  0.00000000  0.06451613       0.000
   0.08064516  0.00000000  0.08064516       0.000
   0.09677421  0.00000000  0.09677421       0.000
   0.11290323  0.00000000  0.11290323       0.000
   0.12903227  0.00000000  0.12903227       0.000
   0.14516129  0.00000000  0.14516129       0.000
   0.16129032  0.00000000  0.16129032       0.000
   0.17741935  0.00000000  0.17741935       0.000
   0.19354841  0.00000000  0.19354841       0.000
   0.20967743  0.00000000  0.20967743       0.000
   0.22580646  0.00000000  0.22580646       0.000
   0.24193549  0.00000000  0.24193549       0.000
   0.25806454  0.00000000  0.25806454       0.000
   0.27419356  0.00000000  0.27419356       0.000
   0.29032257  0.00000000  0.29032257       0.000
   0.30645162  0.00000000  0.30645162       0.000
   0.32258064  0.00000000  0.32258064       0.000
   0.33870971  0.00000000  0.33870971       0.000
   0.35483870  0.00000000  0.35483870       0.000
   0.37096775  0.00000000  0.37096775       0.000
   0.38709682  0.00000000  0.38709682       0.000
   0.40322581  0.00000000  0.40322581       0.000
   0.41935486  0.00000000  0.41935486       0.000
   0.43548387  0.00000000  0.43548387       0.000
   0.45161292  0.00000000  0.45161292       0.000
   0.46774194  0.00000000  0.46774194       0.000
   0.48387098  0.00000000  0.48387098       0.000
 
 position of ions in fractional coordinates (direct lattice) 
   0.00000000  0.00000000  0.00000000
   0.25000000  0.25000000  0.25000000
 
 position of ions in cartesian coordinates  (Angst):
   0.00000000  0.00000000  0.00000000
   1.62067500  1.62067500 -1.62067500
 


--------------------------------------------------------------------------------------------------------


 k-point  1 :   0.0000 0.0000 0.0000  plane waves:    1759
 k-point  2 :   0.1667 0.0000 0.0000  plane waves:    1747
 k-point  3 :   0.3333 0.0000 0.0000  plane waves:    1730
 k-point  4 :   0.5000 0.0000 0.0000  plane waves:    1718
 k-point  5 :   0.1667 0.1667 0.0000  plane waves:    1736
 k-point  6 :   0.3333 0.1667 0.0000  plane waves:    1729
 k-point  7 :   0.5000 0.1667 0.0000  plane waves:    1739
 k-point  8 :  -0.3333 0.1667 0.0000  plane waves:    1732
 k-point  9 :  -0.1667 0.1667 0.0000  plane waves:    1735
 k-point 10 :   0.3333 0.3333 0.0000  plane waves:    1728
 k-point 11 :   0.5000 0.3333 0.0000  plane waves:    1723
 k-point 12 :  -0.3333 0.3333 0.0000  plane waves:    1726
 k-point 13 :   0.5000 0.5000 0.0000  plane waves:    1724
 k-point 14 :   0.5000 0.3333 0.1667  plane waves:    1724
 k-point 15 :  -0.3333 0.3333 0.1667  plane waves:    1726
 k-point 16 :  -0.3333 0.5000 0.1667  plane waves:    1722
 k-point 17 :   0.0000 0.0000 0.0000  plane waves:    1759
 k-point 18 :   0.0161 0.0000 0.0161  plane waves:    1771
 k-point 19 :   0.0323 0.0000 0.0323  plane waves:    1755
 k-point 20 :   0.0484 0.0000 0.0484  plane waves:    1763
 k-point 21 :   0.0645 0.0000 0.0645  plane waves:    1747
 k-point 22 :   0.0806 0.0000 0.0806  plane waves:    1747
 k-point 23 :   0.0968 0.0000 0.0968  plane waves:    1744
 k-point 24 :   0.1129 0.0000 0.1129  plane waves:    1744
 k-point 25 :   0.1290 0.0000 0.1290  plane waves:    1740
 k-point 26 :   0.1452 0.0000 0.1452  plane waves:    1748
 k-point 27 :   0.1613 0.0000 0.1613  plane waves:    1736
 k-point 28 :   0.1774 0.0000 0.1774  plane waves:    1748
 k-point 29 :   0.1935 0.0000 0.1935  plane waves:    1744
 k-point 30 :   0.2097 0.0000 0.2097  plane waves:    1736
 k-point 31 :   0.2258 0.0000 0.2258  plane waves:    1736
 k-point 32 :   0.2419 0.0000 0.2419  plane waves:    1716
 k-point 33 :   0.2581 0.0000 0.2581  plane waves:    1716
 k-point 34 :   0.2742 0.0000 0.2742  plane waves:    1724
 k-point 35 :   0.2903 0.0000 0.2903  plane waves:    1728
 k-point 36 :   0.3065 0.0000 0.3065  plane waves:    1720
 k-point 37 :   0.3226 0.0000 0.3226  plane waves:    1728
 k-point 38 :   0.3387 0.0000 0.3387  plane waves:    1728
 k-point 39 :   0.3548 0.0000 0.3548  plane waves:    1724
 k-point 40 :   0.3710 0.0000 0.3710  plane waves:    1728
 k-point 41 :   0.3871 0.0000 0.3871  plane waves:    1728
 k-point 42 :   0.4032 0.0000 0.4032  plane waves:    1728
 k-point 43 :   0.4194 0.0000 0.4194  plane waves:    1728
 k-point 44 :   0.4355 0.0000 0.4355  plane waves:    1720
 k-point 45 :   0.4516 0.0000 0.4516  plane waves:    1732
 k-point 46 :   0.4677 0.0000 0.4677  plane waves:    1732
 k-point 47 :   0.4839 0.0000 0.4839  plane waves:    1724

 maximum and minimum number of plane-waves per node :       303      271

 maximum number of plane-waves:      1771
 maximum index in each direction: 
   IXMAX=    8   IYMAX=    8   IZMAX=    8
   IXMIN=   -8   IYMIN=   -8   IZMIN=   -8

 NGX is ok and might be reduce to  34
 NGY is ok and might be reduce to  34
 NGZ is ok and might be reduce to  34

 parallel 3D FFT for wavefunctions:
    minimum data exchange during FFTs selected (reduces bandwidth)
 parallel 3D FFT for charge:
    minimum data exchange during FFTs selected (reduces bandwidth)


 total amount of memory used by VASP on root node    37017. kBytes
========================================================================

   base      :      30000. kBytes
   nonl-proj :       4070. kBytes
   fftplans  :        768. kBytes
   grid      :       1202. kBytes
   one-center:         15. kBytes
   wavefun   :        962. kBytes
 
     INWAV:  cpu time    0.0000: real time    0.0002
 initial charge density was supplied:
 number of electron      18.0000000 magnetization 
 keeping initial charge density in first step


--------------------------------------------------------------------------------------------------------


 Maximum index for augmentation-charges         1676 (set IRDMAX)


--------------------------------------------------------------------------------------------------------


 First call to EWALD:  gamma=   0.434
 Maximum number of real-space cells 3x 3x 3
 Maximum number of reciprocal cells 3x 3x 3

 FEWALD executed in parallel
    FEWALD:  cpu time    0.0000: real time    0.0016


----------------------------------------- Iteration    1(   1)  ---------------------------------------


    POTLOK:  cpu time    0.0080: real time    0.0090
    SETDIJ:  cpu time    0.0040: real time    0.0030
     EDDAV:  cpu time    0.0720: real time    0.0751
       DOS:  cpu time    0.0000: real time    0.0013
    --------------------------------------------
      LOOP:  cpu time    0.0920: real time    0.1126

 eigenvalue-minimisations  :  1520
 total energy-change (2. order) : 0.9747822E+02  (-0.8222084E+03)
 number of electron      18.0000000 magnetization 
 augmentation part       18.0000000 magnetization 

 Free energy of the ion-electron system (eV)
  ---------------------------------------------------
  alpha Z        PSCENC =        50.17222034
  Ewald energy   TEWEN  =     -1044.83138452
  -Hartree energ DENC   =      -504.99582460
  -exchange      EXHF   =         0.00000000
  -V(xc)+E(xc)   XCENC  =       -20.59894587
  PAW double counting   =      1708.54112970    -1637.28476310
  entropy T*S    EENTRO =        -0.00059585
  eigenvalues    EBANDS =        30.27096869
  atomic energy  EATOM  =      1516.20541573
  Solvation  Ediel_sol  =         0.00000000
  ---------------------------------------------------
  free energy    TOTEN  =        97.47822052 eV

  energy without entropy =       97.47881637  energy(sigma->0) =       97.47851844


--------------------------------------------------------------------------------------------------------




----------------------------------------- Iteration    1(   2)  ---------------------------------------


     EDDAV:  cpu time    0.0800: real time    0.0800
       DOS:  cpu time    0.0000: real time    0.0013
    --------------------------------------------
      LOOP:  cpu time    0.0840: real time    0.0918

 eigenvalue-minimisations  :  1800
 total energy-change (2. order) :-0.9948794E+02  (-0.9497123E+02)
 number of electron      18.0000000 magnetization 
 augmentation part       18.0000000 magnetization 

 Free energy of the ion-electron system (eV)
  ---------------------------------------------------
  alpha Z        PSCENC =        50.17222034
  Ewald energy   TEWEN  =     -1044.83138452
  -Hartree energ DENC   =      -504.99582460
  -exchange      EXHF   =         0.00000000
  -V(xc)+E(xc)   XCENC  =       -20.59894587
  PAW double counting   =      1708.54112970    -1637.28476310
  entropy T*S    EENTRO =        -0.00000000
  eigenvalues    EBANDS =       -69.21756541
  atomic energy  EATOM  =      1516.20541573
  Solvation  Ediel_sol  =         0.00000000
  ---------------------------------------------------
  free energy    TOTEN  =        -2.00971774 eV

  energy without entropy =       -2.00971774  energy(sigma->0) =       -2.00971774


--------------------------------------------------------------------------------------------------------




----------------------------------------- Iteration    1(   3)  ---------------------------------------


     EDDAV:  cpu time    0.0800: real time    0.0800
       DOS:  cpu time    0.0000: real time    0.0010
    --------------------------------------------
      LOOP:  cpu time    0.0840: real time    0.0889

 eigenvalue-minimisations  :  1840
 total energy-change (2. order) :-0.3454948E+01  (-0.3451042E+01)
 number of electron      18.0000000 magnetization 
 augmentation part       18.0000000 magnetization 

 Free energy of the ion-electron system (eV)
  ---------------------------------------------------
  alpha Z        PSCENC =        50.17222034
  Ewald energy   TEWEN  =     -1044.83138452
  -Hartree energ DENC   =      -504.99582460
  -exchange      EXHF   =         0.00000000
  -V(xc)+E(xc)   XCENC  =       -20.59894587
  PAW double counting   =      1708.54112970    -1637.28476310
  entropy T*S    EENTRO =        -0.00000000
  eigenvalues    EBANDS =       -72.67251357
  atomic energy  EATOM  =      1516.20541573
  Solvation  Ediel_sol  =         0.00000000
  ---------------------------------------------------
  free energy    TOTEN  =        -5.46466589 eV

  energy without entropy =       -5.46466589  energy(sigma->0) =       -5.46466589


--------------------------------------------------------------------------------------------------------




----------------------------------------- Iteration    1(   4)  ---------------------------------------


     EDDAV:  cpu time    0.1040: real time    0.1067
       DOS:  cpu time    0.0040: real time    0.0030
    --------------------------------------------
      LOOP:  cpu time    0.1120: real time    0.1225

 eigenvalue-minimisations  :  2312
 total energy-change (2. order) :-0.2853325E-01  (-0.2853194E-01)
 number of electron      18.0000000 magnetization 
 augmentation part       18.0000000 magnetization 

 Free energy of the ion-electron system (eV)
  ---------------------------------------------------
  alpha Z        PSCENC =        50.17222034
  Ewald energy   TEWEN  =     -1044.83138452
  -Hartree energ DENC   =      -504.99582460
  -exchange      EXHF   =         0.00000000
  -V(xc)+E(xc)   XCENC  =       -20.59894587
  PAW double counting   =      1708.54112970    -1637.28476310
  entropy T*S    EENTRO =        -0.00000000
  eigenvalues    EBANDS =       -72.70104682
  atomic energy  EATOM  =      1516.20541573
  Solvation  Ediel_sol  =         0.00000000
  ---------------------------------------------------
  free energy    TOTEN  =        -5.49319914 eV

  energy without entropy =       -5.49319914  energy(sigma->0) =       -5.49319914


--------------------------------------------------------------------------------------------------------




----------------------------------------- Iteration    1(   5)  ---------------------------------------


     EDDAV:  cpu time    0.0840: real time    0.0868
       DOS:  cpu time    0.0080: real time    0.0045
    --------------------------------------------
      LOOP:  cpu time    0.0960: real time    0.1029

 eigenvalue-minimisations  :  1944
 total energy-change (2. order) :-0.5778692E-04  (-0.5778685E-04)
 number of electron      18.0000000 magnetization 
 augmentation part       18.0000000 magnetization 

 Free energy of the ion-electron system (eV)
  ---------------------------------------------------
  alpha Z        PSCENC =        50.17222034
  Ewald energy   TEWEN  =     -1044.83138452
  -Hartree energ DENC   =      -504.99582460
  -exchange      EXHF   =         0.00000000
  -V(xc)+E(xc)   XCENC  =       -20.59894587
  PAW double counting   =      1708.54112970    -1637.28476310
  entropy T*S    EENTRO =        -0.00000000
  eigenvalues    EBANDS =       -72.70110460
  atomic energy  EATOM  =      1516.20541573
  Solvation  Ediel_sol  =         0.00000000
  ---------------------------------------------------
  free energy    TOTEN  =        -5.49325693 eV

  energy without entropy =       -5.49325693  energy(sigma->0) =       -5.49325693


--------------------------------------------------------------------------------------------------------




----------------------------------------- Iteration    1(   6)  ---------------------------------------


     EDDAV:  cpu time    0.0960: real time    0.0947
       DOS:  cpu time    0.0000: real time    0.0005
    --------------------------------------------
      LOOP:  cpu time    0.0960: real time    0.1028

 eigenvalue-minimisations  :  2224
 total energy-change (2. order) :-0.1047059E-05  (-0.1046939E-05)
 number of electron      18.0000000 magnetization 
 augmentation part       18.0000000 magnetization 

 Free energy of the ion-electron system (eV)
  ---------------------------------------------------
  alpha Z        PSCENC =        50.17222034
  Ewald energy   TEWEN  =     -1044.83138452
  -Hartree energ DENC   =      -504.99582460
  -exchange      EXHF   =         0.00000000
  -V(xc)+E(xc)   XCENC  =       -20.59894587
  PAW double counting   =      1708.54112970    -1637.28476310
  entropy T*S    EENTRO =        -0.00000000
  eigenvalues    EBANDS =       -72.70110565
  atomic energy  EATOM  =      1516.20541573
  Solvation  Ediel_sol  =         0.00000000
  ---------------------------------------------------
  free energy    TOTEN  =        -5.49325797 eV

  energy without entropy =       -5.49325797  energy(sigma->0) =       -5.49325797


--------------------------------------------------------------------------------------------------------




----------------------------------------- Iteration    1(   7)  ---------------------------------------


     EDDAV:  cpu time    0.0800: real time    0.0779
       DOS:  cpu time    0.0000: real time    0.0007
    --------------------------------------------
      LOOP:  cpu time    0.1240: real time    0.1302

 eigenvalue-minimisations  :  1648
 total energy-change (2. order) :-0.1659555E-07  (-0.1663858E-07)
 number of electron      18.0000000 magnetization 
 augmentation part       18.0000000 magnetization 

 Free energy of the ion-electron system (eV)
  ---------------------------------------------------
  alpha Z        PSCENC =        50.17222034
  Ewald energy   TEWEN  =     -1044.83138452
  -Hartree energ DENC   =      -504.99582460
  -exchange      EXHF   =         0.00000000
  -V(xc)+E(xc)   XCENC  =       -20.59894587
  PAW double counting   =      1708.54112970    -1637.28476310
  entropy T*S    EENTRO =        -0.00000000
  eigenvalues    EBANDS =       -72.70110567
  atomic energy  EATOM  =      1516.20541573
  Solvation  Ediel_sol  =         0.00000000
  ---------------------------------------------------
  free energy    TOTEN  =        -5.49325799 eV

  energy without entropy =       -5.49325799  energy(sigma->0) =       -5.49325799


--------------------------------------------------------------------------------------------------------




 the core state eigenenergies are
   1-  1s -26513.5706  2s  -3930.7399  2p  -3525.9966  3s   -727.5628  3p   -594.8522
       3d   -387.3088  4s    -99.6505  4p    -60.6945
   2-  1s -31612.8737  2s  -4840.4554  2p  -4343.8509  3s   -956.6729  3p   -795.3307
       3d   -551.5808  4s   -156.1800  4p   -106.2196  4d    -33.5453
 
 E-fermi :   2.3709     XC(G=0):  -8.7634     alpha+bet : -7.4227


 k-point     1 :       0.0000    0.0000    0.0000
  band No.  band energies     occupation 
      1      -8.9586      2.00000
      2      -5.8303      2.00000
      3      -5.8303      2.00000
      4      -5.8303      2.00000
      5      -5.5525      2.00000
      6      -5.5525      2.00000
      7       2.2607      2.00000
      8       2.2607      2.00000
      9       2.2607      2.00000
     10       2.8942      0.00000
     11       6.7663      0.00000
     12       6.7663      0.00000
     13       6.7663      0.00000
     14       9.5086      0.00000
     15      11.5756      0.00000
     16      11.5756      0.00000

 k-point     2 :       0.1667    0.0000    0.0000
  band No.  band energies     occupation 
      1      -8.8533      2.00000
      2      -5.8105      2.00000
      3      -5.8105      2.00000
      4      -5.7518      2.00000
      5      -5.5538      2.00000
      6      -5.5538      2.00000
      7       0.4766      2.00000
      8       2.0263      2.00000
      9       2.0263      2.00000
     10       4.0146      0.00000
     11       6.8684      0.00000
     12       7.1086      0.00000
     13       7.1086      0.00000
     14      10.5095      0.00000
     15      10.6420      0.00000
     16      10.6420      0.00000

 k-point     3 :       0.3333    0.0000    0.0000
  band No.  band energies     occupation 
      1      -8.6392      2.00000
      2      -5.7764      2.00000
      3      -5.7764      2.00000
      4      -5.5497      2.00000
      5      -5.5497      2.00000
      6      -5.4788      2.00000
      7      -1.3822      2.00000
      8       1.6361      2.00000
      9       1.6361      2.00000
     10       4.0723      0.00000
     11       7.3914      0.00000
     12       7.3914      0.00000
     13       8.3866      0.00000
     14      10.1311      0.00000
     15      11.0519      0.00000
     16      11.0519      0.00000

 k-point     4 :       0.5000    0.0000    0.0000
  band No.  band energies     occupation 
      1      -8.5322      2.00000
      2      -5.7631      2.00000
      3      -5.7631      2.00000
      4      -5.5431      2.00000
      5      -5.5431      2.00000
      6      -5.2234      2.00000
      7      -2.2437      2.00000
      8       1.4671      2.00000
      9       1.4671      2.00000
     10       3.9608      0.00000
     11       7.3528      0.00000
     12       7.3528      0.00000
     13       9.1444      0.00000
     14      10.7397      0.00000
     15      12.4802      0.00000
     16      12.4802      0.00000

 k-point     5 :       0.1667    0.1667    0.0000
  band No.  band energies     occupation 
      1      -8.8185      2.00000
      2      -5.7904      2.00000
      3      -5.7904      2.00000
      4      -5.7552      2.00000
      5      -5.5621      2.00000
      6      -5.5443      2.00000
      7       0.4742      2.00000
      8       1.6385      2.00000
      9       1.6385      2.00000
     10       4.6764      0.00000
     11       5.8402      0.00000
     12       7.7264      0.00000
     13       7.7264      0.00000
     14       9.3083      0.00000
     15      11.2861      0.00000
     16      11.8149      0.00000

 k-point     6 :       0.3333    0.1667    0.0000
  band No.  band energies     occupation 
      1      -8.6412      2.00000
      2      -5.7644      2.00000
      3      -5.7517      2.00000
      4      -5.6152      2.00000
      5      -5.5382      2.00000
      6      -5.4973      2.00000
      7      -0.9174      2.00000
      8       1.1037      2.00000
      9       1.2214      2.00000
     10       5.0379      0.00000
     11       6.1894      0.00000
     12       7.8574      0.00000
     13       8.2937      0.00000
     14      10.0400      0.00000
     15      11.8730      0.00000
     16      11.9461      0.00000

 k-point     7 :       0.5000    0.1667    0.0000
  band No.  band energies     occupation 
      1      -8.5001      2.00000
      2      -5.7487      2.00000
      3      -5.7352      2.00000
      4      -5.5709      2.00000
      5      -5.5400      2.00000
      6      -5.2020      2.00000
      7      -2.0254      2.00000
      8       0.5676      2.00000
      9       1.1382      2.00000
     10       4.9410      0.00000
     11       6.8452      0.00000
     12       8.1087      0.00000
     13       8.7230      0.00000
     14      10.9318      0.00000
     15      12.1261      0.00000
     16      12.5749      0.00000

 k-point     8 :      -0.3333    0.1667    0.0000
  band No.  band energies     occupation 
      1      -8.5350      2.00000
      2      -5.7500      2.00000
      3      -5.7496      2.00000
      4      -5.5566      2.00000
      5      -5.5562      2.00000
      6      -5.2877      2.00000
      7      -1.7543      2.00000
      8       0.4296      2.00000
      9       1.4425      2.00000
     10       4.9981      0.00000
     11       7.0870      0.00000
     12       7.8039      0.00000
     13       8.4941      0.00000
     14      10.6442      0.00000
     15      11.2935      0.00000
     16      12.4761      0.00000

 k-point     9 :      -0.1667    0.1667    0.0000
  band No.  band energies     occupation 
      1      -8.7117      2.00000
      2      -5.7877      2.00000
      3      -5.7729      2.00000
      4      -5.6261      2.00000
      5      -5.5631      2.00000
      6      -5.5328      2.00000
      7      -0.5071      2.00000
      8       0.9732      2.00000
      9       1.9032      2.00000
     10       4.8404      0.00000
     11       6.8399      0.00000
     12       7.3394      0.00000
     13       7.6463      0.00000
     14       9.8857      0.00000
     15      11.1192      0.00000
     16      11.8746      0.00000

 k-point    10 :       0.3333    0.3333    0.0000
  band No.  band energies     occupation 
      1      -8.5370      2.00000
      2      -5.7033      2.00000
      3      -5.7033      2.00000
      4      -5.6575      2.00000
      5      -5.5281      2.00000
      6      -5.3902      2.00000
      7      -1.2650      2.00000
      8       0.7268      2.00000
      9       0.7268      2.00000
     10       4.8697      0.00000
     11       5.2942      0.00000
     12       9.4739      0.00000
     13       9.6832      0.00000
     14       9.6832      0.00000
     15      12.4775      0.00000
     16      14.0846      0.00000

 k-point    11 :       0.5000    0.3333    0.0000
  band No.  band energies     occupation 
      1      -8.4339      2.00000
      2      -5.7038      2.00000
      3      -5.6805      2.00000
      4      -5.6254      2.00000
      5      -5.5292      2.00000
      6      -5.1409      2.00000
      7      -1.9011      2.00000
      8       0.0503      2.00000
      9       0.5911      2.00000
     10       4.9620      0.00000
     11       5.8616      0.00000
     12       9.1269      0.00000
     13       9.8732      0.00000
     14      11.2338      0.00000
     15      12.8833      0.00000
     16      13.6541      0.00000

 k-point    12 :      -0.3333    0.3333    0.0000
  band No.  band energies     occupation 
      1      -8.4341      2.00000
      2      -5.7239      2.00000
      3      -5.7011      2.00000
      4      -5.5829      2.00000
      5      -5.5478      2.00000
      6      -5.0757      2.00000
      7      -1.9435      2.00000
      8      -0.4140      2.00000
      9       0.9068      2.00000
     10       5.1947      0.00000
     11       7.2843      0.00000
     12       9.0190      0.00000
     13       9.1356      0.00000
     14       9.6201      0.00000
     15      11.1764      0.00000
     16      14.3119      0.00000

 k-point    13 :       0.5000    0.5000    0.0000
  band No.  band energies     occupation 
      1      -8.3998      2.00000
      2      -5.6701      2.00000
      3      -5.6555      2.00000
      4      -5.6555      2.00000
      5      -5.5199      2.00000
      6      -5.0954      2.00000
      7      -2.1084      2.00000
      8       0.3530      2.00000
      9       0.3530      2.00000
     10       4.7082      0.00000
     11       4.8283      0.00000
     12      10.9483      0.00000
     13      11.2989      0.00000
     14      11.2989      0.00000
     15      13.0362      0.00000
     16      13.7462      0.00000

 k-point    14 :       0.5000    0.3333    0.1667
  band No.  band energies     occupation 
      1      -8.5020      2.00000
      2      -5.7288      2.00000
      3      -5.7214      2.00000
      4      -5.5992      2.00000
      5      -5.5394      2.00000
      6      -5.2659      2.00000
      7      -1.5814      2.00000
      8       0.1365      2.00000
      9       0.9093      2.00000
     10       5.7564      0.00000
     11       6.2761      0.00000
     12       7.4366      0.00000
     13       9.5780      0.00000
     14      10.3467      0.00000
     15      12.4325      0.00000
     16      13.6123      0.00000

 k-point    15 :      -0.3333    0.3333    0.1667
  band No.  band energies     occupation 
      1      -8.4341      2.00000
      2      -5.7210      2.00000
      3      -5.7055      2.00000
      4      -5.5795      2.00000
      5      -5.5500      2.00000
      6      -5.0746      2.00000
      7      -1.9821      2.00000
      8      -0.1831      2.00000
      9       0.6198      2.00000
     10       5.8864      0.00000
     11       6.7585      0.00000
     12       7.9100      0.00000
     13       9.4210      0.00000
     14      10.1234      0.00000
     15      12.6231      0.00000
     16      13.4044      0.00000

 k-point    16 :      -0.3333    0.5000    0.1667
  band No.  band energies     occupation 
      1      -8.4010      2.00000
      2      -5.6927      2.00000
      3      -5.6888      2.00000
      4      -5.6047      2.00000
      5      -5.5394      2.00000
      6      -5.0284      2.00000
      7      -2.0233      2.00000
      8      -0.0021      2.00000
      9       0.0814      2.00000
     10       5.8936      0.00000
     11       5.9108      0.00000
     12       8.8342      0.00000
     13       9.1101      0.00000
     14      11.7471      0.00000
     15      13.2782      0.00000
     16      13.4993      0.00000

 k-point    17 :       0.0000    0.0000    0.0000
  band No.  band energies     occupation 
      1      -8.9586      2.00000
      2      -5.8303      2.00000
      3      -5.8303      2.00000
      4      -5.8303      2.00000
      5      -5.5525      2.00000
      6      -5.5525      2.00000
      7       2.2607      2.00000
      8       2.2607      2.00000
      9       2.2607      2.00000
     10       2.8942      0.00000
     11       6.7663      0.00000
     12       6.7663      0.00000
     13       6.7663      0.00000
     14       9.5086      0.00000
     15      11.5756      0.00000
     16      11.5756      0.00000

 k-point    18 :       0.0161    0.0000    0.0161
  band No.  band energies     occupation 
      1      -8.9572      2.00000
      2      -5.8299      2.00000
      3      -5.8299      2.00000
      4      -5.8296      2.00000
      5      -5.5526      2.00000
      6      -5.5524      2.00000
      7       2.1974      2.00000
      8       2.2532      2.00000
      9       2.2532      2.00000
     10       2.9585      0.00000
     11       6.7512      0.00000
     12       6.7769      0.00000
     13       6.7769      0.00000
     14       9.5309      0.00000
     15      11.4755      0.00000
     16      11.5778      0.00000

 k-point    19 :       0.0323    0.0000    0.0323
  band No.  band energies     occupation 
      1      -8.9530      2.00000
      2      -5.8287      2.00000
      3      -5.8287      2.00000
      4      -5.8276      2.00000
      5      -5.5531      2.00000
      6      -5.5522      2.00000
      7       2.0523      2.00000
      8       2.2311      2.00000
      9       2.2311      2.00000
     10       3.1066      0.00000
     11       6.7074      0.00000
     12       6.8085      0.00000
     13       6.8085      0.00000
     14       9.5960      0.00000
     15      11.2625      0.00000
     16      11.5846      0.00000

 k-point    20 :       0.0484    0.0000    0.0484
  band No.  band energies     occupation 
      1      -8.9459      2.00000
      2      -5.8267      2.00000
      3      -5.8267      2.00000
      4      -5.8242      2.00000
      5      -5.5538      2.00000
      6      -5.5517      2.00000
      7       1.8758      2.00000
      8       2.1950      2.00000
      9       2.1950      2.00000
     10       3.2877      0.00000
     11       6.6391      0.00000
     12       6.8603      0.00000
     13       6.8603      0.00000
     14       9.6991      0.00000
     15      11.0165      0.00000
     16      11.5959      0.00000

 k-point    21 :       0.0645    0.0000    0.0645
  band No.  band energies     occupation 
      1      -8.9361      2.00000
      2      -5.8240      2.00000
      3      -5.8240      2.00000
      4      -5.8195      2.00000
      5      -5.5547      2.00000
      6      -5.5512      2.00000
      7       1.6877      2.00000
      8       2.1461      2.00000
      9       2.1461      2.00000
     10       3.4816      0.00000
     11       6.5515      0.00000
     12       6.9312      0.00000
     13       6.9312      0.00000
     14       9.8320      0.00000
     15      10.7662      0.00000
     16      11.6118      0.00000

 k-point    22 :       0.0806    0.0000    0.0806
  band No.  band energies     occupation 
      1      -8.9236      2.00000
      2      -5.8205      2.00000
      3      -5.8205      2.00000
      4      -5.8133      2.00000
      5      -5.5559      2.00000
      6      -5.5504      2.00000
      7       1.4952      2.00000
      8       2.0859      2.00000
      9       2.0859      2.00000
     10       3.6801      0.00000
     11       6.4500      0.00000
     12       7.0198      0.00000
     13       7.0198      0.00000
     14       9.9783      0.00000
     15      10.5333      0.00000
     16      11.6321      0.00000

 k-point    23 :       0.0968    0.0000    0.0968
  band No.  band energies     occupation 
      1      -8.9086      2.00000
      2      -5.8162      2.00000
      3      -5.8162      2.00000
      4      -5.8056      2.00000
      5      -5.5572      2.00000
      6      -5.5496      2.00000
      7       1.3015      2.00000
      8       2.0158      2.00000
      9       2.0158      2.00000
     10       3.8791      0.00000
     11       6.3395      0.00000
     12       7.1246      0.00000
     13       7.1246      0.00000
     14      10.0610      0.00000
     15      10.3957      0.00000
     16      11.6568      0.00000

 k-point    24 :       0.1129    0.0000    0.1129
  band No.  band energies     occupation 
      1      -8.8913      2.00000
      2      -5.8113      2.00000
      3      -5.8113      2.00000
      4      -5.7965      2.00000
      5      -5.5586      2.00000
      6      -5.5486      2.00000
      7       1.1081      2.00000
      8       1.9376      2.00000
      9       1.9376      2.00000
     10       4.0756      0.00000
     11       6.2240      0.00000
     12       7.2438      0.00000
     13       7.2438      0.00000
     14       9.9332      0.00000
     15      10.5005      0.00000
     16      11.6861      0.00000

 k-point    25 :       0.1290    0.0000    0.1290
  band No.  band energies     occupation 
      1      -8.8717      2.00000
      2      -5.8057      2.00000
      3      -5.8057      2.00000
      4      -5.7858      2.00000
      5      -5.5599      2.00000
      6      -5.5474      2.00000
      7       0.9158      2.00000
      8       1.8529      2.00000
      9       1.8529      2.00000
     10       4.2670      0.00000
     11       6.1067      0.00000
     12       7.3760      0.00000
     13       7.3760      0.00000
     14       9.7348      0.00000
     15      10.7082      0.00000
     16      11.7197      0.00000

 k-point    26 :       0.1452    0.0000    0.1452
  band No.  band energies     occupation 
      1      -8.8501      2.00000
      2      -5.7995      2.00000
      3      -5.7995      2.00000
      4      -5.7736      2.00000
      5      -5.5611      2.00000
      6      -5.5462      2.00000
      7       0.7252      2.00000
      8       1.7632      2.00000
      9       1.7632      2.00000
     10       4.4503      0.00000
     11       5.9903      0.00000
     12       7.5196      0.00000
     13       7.5196      0.00000
     14       9.5398      0.00000
     15      10.9453      0.00000
     16      11.7576      0.00000

 k-point    27 :       0.1613    0.0000    0.1613
  band No.  band energies     occupation 
      1      -8.8266      2.00000
      2      -5.7928      2.00000
      3      -5.7928      2.00000
      4      -5.7600      2.00000
      5      -5.5620      2.00000
      6      -5.5448      2.00000
      7       0.5366      2.00000
      8       1.6701      2.00000
      9       1.6701      2.00000
     10       4.6223      0.00000
     11       5.8769      0.00000
     12       7.6732      0.00000
     13       7.6732      0.00000
     14       9.3624      0.00000
     15      11.1989      0.00000
     16      11.7999      0.00000

 k-point    28 :       0.1774    0.0000    0.1774
  band No.  band energies     occupation 
      1      -8.8017      2.00000
      2      -5.7855      2.00000
      3      -5.7855      2.00000
      4      -5.7452      2.00000
      5      -5.5621      2.00000
      6      -5.5434      2.00000
      7       0.3503      2.00000
      8       1.5747      2.00000
      9       1.5747      2.00000
     10       4.7787      0.00000
     11       5.7689      0.00000
     12       7.8355      0.00000
     13       7.8355      0.00000
     14       9.2089      0.00000
     15      11.4642      0.00000
     16      11.8463      0.00000

 k-point    29 :       0.1935    0.0000    0.1935
  band No.  band energies     occupation 
      1      -8.7754      2.00000
      2      -5.7778      2.00000
      3      -5.7778      2.00000
      4      -5.7293      2.00000
      5      -5.5611      2.00000
      6      -5.5419      2.00000
      7       0.1666      2.00000
      8       1.4783      2.00000
      9       1.4783      2.00000
     10       4.9145      0.00000
     11       5.6687      0.00000
     12       8.0056      0.00000
     13       8.0056      0.00000
     14       9.0842      0.00000
     15      11.7384      0.00000
     16      11.8969      0.00000

 k-point    30 :       0.2097    0.0000    0.2097
  band No.  band energies     occupation 
      1      -8.7481      2.00000
      2      -5.7697      2.00000
      3      -5.7697      2.00000
      4      -5.7131      2.00000
      5      -5.5583      2.00000
      6      -5.5403      2.00000
      7      -0.0142      2.00000
      8       1.3819      2.00000
      9       1.3819      2.00000
     10       5.0229      0.00000
     11       5.5801      0.00000
     12       8.1824      0.00000
     13       8.1824      0.00000
     14       8.9924      0.00000
     15      11.9515      0.00000
     16      12.0194      0.00000

 k-point    31 :       0.2258    0.0000    0.2258
  band No.  band energies     occupation 
      1      -8.7201      2.00000
      2      -5.7612      2.00000
      3      -5.7612      2.00000
      4      -5.6975      2.00000
      5      -5.5526      2.00000
      6      -5.5387      2.00000
      7      -0.1918      2.00000
      8       1.2864      2.00000
      9       1.2864      2.00000
     10       5.0953      0.00000
     11       5.5092      0.00000
     12       8.3651      0.00000
     13       8.3651      0.00000
     14       8.9368      0.00000
     15      12.0099      0.00000
     16      12.3049      0.00000

 k-point    32 :       0.2419    0.0000    0.2419
  band No.  band energies     occupation 
      1      -8.6917      2.00000
      2      -5.7526      2.00000
      3      -5.7526      2.00000
      4      -5.6835      2.00000
      5      -5.5428      2.00000
      6      -5.5370      2.00000
      7      -0.3660      2.00000
      8       1.1927      2.00000
      9       1.1927      2.00000
     10       5.1225      0.00000
     11       5.4632      0.00000
     12       8.5529      0.00000
     13       8.5529      0.00000
     14       8.9198      0.00000
     15      12.0719      0.00000
     16      12.5926      0.00000

 k-point    33 :       0.2581    0.0000    0.2581
  band No.  band energies     occupation 
      1      -8.6631      2.00000
      2      -5.7438      2.00000
      3      -5.7438      2.00000
      4      -5.6723      2.00000
      5      -5.5354      2.00000
      6      -5.5277      2.00000
      7      -0.5363      2.00000
      8       1.1015      2.00000
      9       1.1015      2.00000
     10       5.1061      0.00000
     11       5.4401      0.00000
     12       8.7452      0.00000
     13       8.7452      0.00000
     14       8.9418      0.00000
     15      12.1374      0.00000
     16      12.8795      0.00000

 k-point    34 :       0.2742    0.0000    0.2742
  band No.  band energies     occupation 
      1      -8.6347      2.00000
      2      -5.7349      2.00000
      3      -5.7349      2.00000
      4      -5.6646      2.00000
      5      -5.5337      2.00000
      6      -5.5068      2.00000
      7      -0.7023      2.00000
      8       1.0135      2.00000
      9       1.0135      2.00000
     10       5.0628      0.00000
     11       5.4246      0.00000
     12       8.9413      0.00000
     13       8.9413      0.00000
     14       9.0013      0.00000
     15      12.2060      0.00000
     16      13.1624      0.00000

 k-point    35 :       0.2903    0.0000    0.2903
  band No.  band energies     occupation 
      1      -8.6068      2.00000
      2      -5.7260      2.00000
      3      -5.7260      2.00000
      4      -5.6599      2.00000
      5      -5.5321      2.00000
      6      -5.4804      2.00000
      7      -0.8635      2.00000
      8       0.9293      2.00000
      9       0.9293      2.00000
     10       5.0091      0.00000
     11       5.4030      0.00000
     12       9.0950      0.00000
     13       9.1407      0.00000
     14       9.1407      0.00000
     15      12.2774      0.00000
     16      13.4368      0.00000

 k-point    36 :       0.3065    0.0000    0.3065
  band No.  band energies     occupation 
      1      -8.5797      2.00000
      2      -5.7173      2.00000
      3      -5.7173      2.00000
      4      -5.6577      2.00000
      5      -5.5306      2.00000
      6      -5.4494      2.00000
      7      -1.0193      2.00000
      8       0.8493      2.00000
      9       0.8493      2.00000
     10       4.9541      0.00000
     11       5.3706      0.00000
     12       9.2181      0.00000
     13       9.3427      0.00000
     14       9.3427      0.00000
     15      12.3511      0.00000
     16      13.6977      0.00000

 k-point    37 :       0.3226    0.0000    0.3226
  band No.  band energies     occupation 
      1      -8.5536      2.00000
      2      -5.7088      2.00000
      3      -5.7088      2.00000
      4      -5.6572      2.00000
      5      -5.5290      2.00000
      6      -5.4148      2.00000
      7      -1.1690      2.00000
      8       0.7741      2.00000
      9       0.7741      2.00000
     10       4.9019      0.00000
     11       5.3276      0.00000
     12       9.3652      0.00000
     13       9.5466      0.00000
     14       9.5466      0.00000
     15      12.4266      0.00000
     16      13.9387      0.00000

 k-point    38 :       0.3387    0.0000    0.3387
  band No.  band energies     occupation 
      1      -8.5290      2.00000
      2      -5.7006      2.00000
      3      -5.7006      2.00000
      4      -5.6578      2.00000
      5      -5.5276      2.00000
      6      -5.3776      2.00000
      7      -1.3118      2.00000
      8       0.7041      2.00000
      9       0.7041      2.00000
     10       4.8545      0.00000
     11       5.2764      0.00000
     12       9.5308      0.00000
     13       9.7517      0.00000
     14       9.7517      0.00000
     15      12.5031      0.00000
     16      14.1521      0.00000

 k-point    39 :       0.3548    0.0000    0.3548
  band No.  band energies     occupation 
      1      -8.5059      2.00000
      2      -5.6929      2.00000
      3      -5.6929      2.00000
      4      -5.6590      2.00000
      5      -5.5262      2.00000
      6      -5.3387      2.00000
      7      -1.4467      2.00000
      8       0.6396      2.00000
      9       0.6396      2.00000
     10       4.8129      0.00000
     11       5.2199      0.00000
     12       9.7093      0.00000
     13       9.9569      0.00000
     14       9.9569      0.00000
     15      12.5799      0.00000
     16      14.3282      0.00000

 k-point    40 :       0.3710    0.0000    0.3710
  band No.  band energies     occupation 
      1      -8.4847      2.00000
      2      -5.6856      2.00000
      3      -5.6856      2.00000
      4      -5.6606      2.00000
      5      -5.5250      2.00000
      6      -5.2992      2.00000
      7      -1.5728      2.00000
      8       0.5810      2.00000
      9       0.5810      2.00000
     10       4.7777      0.00000
     11       5.1607      0.00000
     12       9.8957      0.00000
     13      10.1611      0.00000
     14      10.1611      0.00000
     15      12.6559      0.00000
     16      14.4562      0.00000

 k-point    41 :       0.3871    0.0000    0.3871
  band No.  band energies     occupation 
      1      -8.4654      2.00000
      2      -5.6789      2.00000
      3      -5.6789      2.00000
      4      -5.6624      2.00000
      5      -5.5238      2.00000
      6      -5.2601      2.00000
      7      -1.6888      2.00000
      8       0.5287      2.00000
      9       0.5287      2.00000
     10       4.7491      0.00000
     11       5.1012      0.00000
     12      10.0845      0.00000
     13      10.3624      0.00000
     14      10.3624      0.00000
     15      12.7298      0.00000
     16      14.5265      0.00000

 k-point    42 :       0.4032    0.0000    0.4032
  band No.  band energies     occupation 
      1      -8.4485      2.00000
      2      -5.6730      2.00000
      3      -5.6730      2.00000
      4      -5.6642      2.00000
      5      -5.5228      2.00000
      6      -5.2224      2.00000
      7      -1.7935      2.00000
      8       0.4827      2.00000
      9       0.4827      2.00000
     10       4.7273      0.00000
     11       5.0435      0.00000
     12      10.2705      0.00000
     13      10.5584      0.00000
     14      10.5584      0.00000
     15      12.8000      0.00000
     16      14.5405      0.00000

 k-point    43 :       0.4194    0.0000    0.4194
  band No.  band energies     occupation 
      1      -8.4338      2.00000
      2      -5.6678      2.00000
      3      -5.6678      2.00000
      4      -5.6659      2.00000
      5      -5.5219      2.00000
      6      -5.1875      2.00000
      7      -1.8855      2.00000
      8       0.4435      2.00000
      9       0.4435      2.00000
     10       4.7122      0.00000
     11       4.9890      0.00000
     12      10.4477      0.00000
     13      10.7454      0.00000
     14      10.7454      0.00000
     15      12.8649      0.00000
     16      14.4097      0.00000

 k-point    44 :       0.4355    0.0000    0.4355
  band No.  band energies     occupation 
      1      -8.4217      2.00000
      2      -5.6673      2.00000
      3      -5.6634      2.00000
      4      -5.6634      2.00000
      5      -5.5212      2.00000
      6      -5.1565      2.00000
      7      -1.9634      2.00000
      8       0.4111      2.00000
      9       0.4111      2.00000
     10       4.7035      0.00000
     11       4.9394      0.00000
     12      10.6095      0.00000
     13      10.9185      0.00000
     14      10.9185      0.00000
     15      12.9223      0.00000
     16      14.1960      0.00000

 k-point    45 :       0.4516    0.0000    0.4516
  band No.  band energies     occupation 
      1      -8.4122      2.00000
      2      -5.6685      2.00000
      3      -5.6600      2.00000
      4      -5.6600      2.00000
      5      -5.5206      2.00000
      6      -5.1308      2.00000
      7      -2.0257      2.00000
      8       0.3858      2.00000
      9       0.3858      2.00000
     10       4.7007      0.00000
     11       4.8962      0.00000
     12      10.7484      0.00000
     13      11.0705      0.00000
     14      11.0705      0.00000
     15      12.9700      0.00000
     16      14.0136      0.00000

 k-point    46 :       0.4677    0.0000    0.4677
  band No.  band energies     occupation 
      1      -8.4053      2.00000
      2      -5.6694      2.00000
      3      -5.6575      2.00000
      4      -5.6575      2.00000
      5      -5.5202      2.00000
      6      -5.1115      2.00000
      7      -2.0713      2.00000
      8       0.3676      2.00000
      9       0.3676      2.00000
     10       4.7024      0.00000
     11       4.8611      0.00000
     12      10.8560      0.00000
     13      11.1917      0.00000
     14      11.1917      0.00000
     15      13.0061      0.00000
     16      13.8707      0.00000

 k-point    47 :       0.4839    0.0000    0.4839
  band No.  band energies     occupation 
      1      -8.4012      2.00000
      2      -5.6700      2.00000
      3      -5.6560      2.00000
      4      -5.6560      2.00000
      5      -5.5200      2.00000
      6      -5.0995      2.00000
      7      -2.0990      2.00000
      8       0.3566      2.00000
      9       0.3566      2.00000
     10       4.7061      0.00000
     11       4.8371      0.00000
     12      10.9247      0.00000
     13      11.2711      0.00000
     14      11.2711      0.00000
     15      13.0286      0.00000
     16      13.7783      0.00000


--------------------------------------------------------------------------------------------------------


 soft charge-density along one line, spin component           1
         0         1         2         3         4         5         6         7         8         9
 total charge-density along one line
 
 pseudopotential strength for first ion, spin component:           1
-17.748   0.000   0.000   0.000   0.000 -17.795   0.000   0.000
  0.000 -17.748   0.000  -0.000  -0.000   0.000 -17.795   0.000
  0.000   0.000 -17.747   0.000  -0.000   0.000   0.000 -17.794
  0.000  -0.000   0.000 -17.748   0.000   0.000  -0.000   0.000
  0.000  -0.000  -0.000   0.000 -17.747   0.000  -0.000  -0.000
-17.795   0.000   0.000   0.000   0.000 -17.822   0.000   0.000
  0.000 -17.795   0.000  -0.000  -0.000   0.000 -17.822   0.000
  0.000   0.000 -17.794   0.000  -0.000   0.000   0.000 -17.821
  0.000  -0.000   0.000 -17.795   0.000   0.000  -0.000   0.000
  0.000  -0.000  -0.000   0.000 -17.794   0.000  -0.000  -0.000
  0.000  -0.000  -0.000  -0.000  -0.000   0.000  -0.000  -0.000
  0.000  -0.000  -0.000  -0.000  -0.000   0.000  -0.000  -0.000
 -0.000   0.000  -0.000  -0.001  -0.000  -0.000   0.000  -0.000
 -0.001  -0.000  -0.000  -0.000  -0.000  -0.001  -0.000  -0.000
 -0.000  -0.001  -0.000   0.000   0.000  -0.000  -0.001  -0.000
 -0.000   0.000  -0.000  -0.001  -0.000  -0.000   0.000  -0.000
 -0.001  -0.000  -0.000  -0.000  -0.000  -0.001  -0.000  -0.000
 -0.000  -0.001  -0.000   0.000   0.000  -0.000  -0.001  -0.000
 total augmentation occupancy for first ion, spin component:           1
  2.000   0.000   0.000   0.000   0.000   0.000   0.000   0.000   0.000   0.000   0.000   0.000   0.000   0.000   0.000   0.000
  0.000   2.000   0.000   0.000   0.000   0.000   0.000   0.000   0.000   0.000   0.000   0.000   0.000   0.000   0.000   0.000
  0.000   0.000   2.000   0.000   0.000   0.000   0.000   0.000   0.000   0.000   0.000   0.000   0.000   0.000   0.000   0.000
  0.000   0.000   0.000   2.000   0.000   0.000   0.000   0.000   0.000   0.000   0.000   0.000   0.000   0.000   0.000   0.000
  0.000   0.000   0.000   0.000   2.000   0.000   0.000   0.000   0.000   0.000   0.000   0.000   0.000   0.000   0.000   0.000
  0.000   0.000   0.000   0.000   0.000   0.000   0.000   0.000   0.000   0.000   0.000   0.000   0.000   0.000   0.000   0.000
  0.000   0.000   0.000   0.000   0.000   0.000   0.000   0.000   0.000   0.000   0.000   0.000   0.000   0.000   0.000   0.000
  0.000   0.000   0.000   0.000   0.000   0.000   0.000   0.000   0.000   0.000   0.000   0.000   0.000   0.000   0.000   0.000
  0.000   0.000   0.000   0.000   0.000   0.000   0.000   0.000   0.000   0.000   0.000   0.000   0.000   0.000   0.000   0.000
  0.000   0.000   0.000   0.000   0.000   0.000   0.000   0.000   0.000   0.000   0.000   0.000   0.000   0.000   0.000   0.000
  0.000   0.000   0.000   0.000   0.000   0.000   0.000   0.000   0.000   0.000   2.000   0.000   0.000   0.000   0.000   0.000
  0.000   0.000   0.000   0.000   0.000   0.000   0.000   0.000   0.000   0.000   0.000   0.000   0.000   0.000   0.000   0.000
  0.000   0.000   0.000   0.000   0.000   0.000   0.000   0.000   0.000   0.000   0.000   0.000   0.000   0.000   0.000   0.000
  0.000   0.000   0.000   0.000   0.000   0.000   0.000   0.000   0.000   0.000   0.000   0.000   0.000   0.000   0.000   0.000
  0.000   0.000   0.000   0.000   0.000   0.000   0.000   0.000   0.000   0.000   0.000   0.000   0.000   0.000   0.000   0.000
  0.000   0.000   0.000   0.000   0.000   0.000   0.000   0.000   0.000   0.000   0.000   0.000   0.000   0.000   0.000   0.000
  0.000   0.000   0.000   0.000   0.000   0.000   0.000   0.000   0.000   0.000   0.000   0.000   0.000   0.000   0.000   0.000
  0.000   0.000   0.000   0.000   0.000   0.000   0.000   0.000   0.000   0.000   0.000   0.000   0.000   0.000   0.000   0.000


------------------------ aborting loop because EDIFF is reached ----------------------------------------


 


 total charge     
 
# of ion     s       p       d       tot
----------------------------------------
  1        0.473   0.320   9.522  10.315
  2        1.351   2.041   0.022   3.414
------------------------------------------------
tot        1.824   2.361   9.544  13.729
 
    CHARGE:  cpu time    0.0080: real time    0.0088
    FORLOC:  cpu time    0.0000: real time    0.0006
    FORNL :  cpu time    0.0120: real time    0.0093
    STRESS:  cpu time    0.0760: real time    0.0734
    FORCOR:  cpu time    0.0080: real time    0.0092
    FORHAR:  cpu time    0.0000: real time    0.0021
    OFIELD:  cpu time    0.0000: real time    0.0001

  FORCE on cell =-STRESS in cart. coord.  units (eV):
  Direction    XX          YY          ZZ          XY          YZ          ZX
  --------------------------------------------------------------------------------------
  Alpha Z    50.17222    50.17222    50.17222
  Ewald    -348.27726  -348.27726  -348.27726     0.00000     0.00000     0.00000
  Hartree   166.39054   166.39054   166.39054     0.00000    -0.00000    -0.00000
  E(xc)     -86.51613   -86.51613   -86.51613    -0.00000     0.00000     0.00000
  Local     -18.13000   -18.13000   -18.13000     0.00001    -0.00001    -0.00001
  n-local    21.77380    27.04899    26.17482    -1.74284    -3.04445    -1.13548
  augment     5.57736     5.57736     5.57736    -0.00001     0.00001     0.00001
  Kinetic   200.21809   203.72155   203.96489    -1.61817    -3.08908    -1.23070
  Fock        0.00000     0.00000     0.00000     0.00000     0.00000     0.00000
  -------------------------------------------------------------------------------------
  Total      -3.14923    -3.14923    -3.14923     0.00000    -0.00000     0.00000
  in kB     -74.08111   -74.08111   -74.08111     0.00000    -0.00000     0.00000
  external pressure =      -74.08 kB  Pullay stress =        0.00 kB


 VOLUME and BASIS-vectors are now :
 -----------------------------------------------------------------------------
  energy-cutoff  :      500.00
  volume of cell :       68.11
      direct lattice vectors                 reciprocal lattice vectors
     3.241350000  3.241350000  0.000000000     0.154256714  0.154256714  0.154256714
     3.241350000  0.000000000 -3.241350000     0.154256714 -0.154256714 -0.154256714
     0.000000000  3.241350000 -3.241350000    -0.154256714  0.154256714 -0.154256714

  length of vectors
     4.583961130  4.583961130  4.583961130     0.267180466  0.267180466  0.267180466


 FORCES acting on ions
    electron-ion (+dipol)            ewald-force                    non-local-force                 convergence-correction
 -----------------------------------------------------------------------------------------------
   -.322E-06 -.323E-06 0.323E-06   -.744E-14 -.454E-14 0.998E-14   -.694E-17 0.347E-17 0.694E-17   0.552E-06 0.552E-06 0.550E-06
   0.157E-06 0.163E-06 -.163E-06   0.759E-14 0.606E-14 -.102E-13   0.416E-16 0.694E-16 -.139E-16   0.131E-06 0.131E-06 0.131E-06
 -----------------------------------------------------------------------------------------------
   -.165E-06 -.160E-06 0.160E-06   0.152E-15 0.152E-14 -.238E-15   0.347E-16 0.729E-16 -.694E-17   0.683E-06 0.683E-06 0.680E-06
 
 
 POSITION                                       TOTAL-FORCE (eV/Angst)
 -----------------------------------------------------------------------------------
      0.00000      0.00000      0.00000        -0.000000     -0.000000      0.000000
      1.62068      1.62068     -1.62068         0.000000      0.000000     -0.000000
 -----------------------------------------------------------------------------------
    total drift:                                0.000001      0.000001      0.000001


--------------------------------------------------------------------------------------------------------



  FREE ENERGIE OF THE ION-ELECTRON SYSTEM (eV)
  ---------------------------------------------------
  free  energy   TOTEN  =        -5.49325799 eV

  energy  without entropy=       -5.49325799  energy(sigma->0) =       -5.49325799
 


--------------------------------------------------------------------------------------------------------


    POTLOK:  cpu time    0.0120: real time    0.0112


--------------------------------------------------------------------------------------------------------




--------------------------------------------------------------------------------------------------------


 writing wavefunctions
     LOOP+:  cpu time    1.8201: real time    2.2567
    4ORBIT:  cpu time    0.0000: real time    0.0000
 


 total charge     
 
# of ion     s       p       d       tot
----------------------------------------
  1        0.473   0.320   9.522  10.315
  2        1.351   2.041   0.022   3.414
------------------------------------------------
tot        1.824   2.361   9.544  13.729
 

 total amount of memory used by VASP on root node    37017. kBytes
========================================================================

   base      :      30000. kBytes
   nonl-proj :       4070. kBytes
   fftplans  :        768. kBytes
   grid      :       1202. kBytes
   one-center:         15. kBytes
   wavefun   :        962. kBytes
 
  
  
 General timing and accounting informations for this job:
 ========================================================
  
                  Total CPU time used (sec):        4.916
                            User time (sec):        3.096
                          System time (sec):        1.820
                         Elapsed time (sec):        6.142
  
                   Maximum memory used (kb):       31560.
                   Average memory used (kb):           0.
  
                          Minor page faults:         8256
                          Major page faults:            0
                 Voluntary context switches:         1130
