       N       E                     dE             d eps       ncg     rms          rms(c)
DAV:   1    -0.263371447128E+01   -0.26337E+01   -0.32558E+03  2288   0.370E+02
DAV:   2    -0.114087767467E+02   -0.87751E+01   -0.85361E+01  3248   0.361E+01
DAV:   3    -0.114673791955E+02   -0.58602E-01   -0.58602E-01  2800   0.351E+00
DAV:   4    -0.114675146513E+02   -0.13546E-03   -0.13546E-03  4032   0.186E-01
DAV:   5    -0.114675146624E+02   -0.11103E-07   -0.11106E-07  2720   0.145E-03
DAV:   6    -0.114675146624E+02   -0.41723E-10   -0.41972E-10  4000   0.748E-05
   1 F= -.11467515E+02 E0= -.11467515E+02  d E =-.114675E+02
