 vasp.5.4.1 24Jun15 (build Nov 12 2015 13:14:48) complex                        
  
 executed on             IFC_2016 date 2016.02.24  12:17:23
 running on   16 total cores
 distrk:  each k-point on   16 cores,    1 groups
 distr:  one band on NCORES_PER_BAND=   1 cores,   16 groups


--------------------------------------------------------------------------------------------------------


 INCAR:
 POTCAR:    PAW_PBE Si 05Jan2001                  

 ----------------------------------------------------------------------------- 
|                                                                             |
|           W    W    AA    RRRRR   N    N  II  N    N   GGGG   !!!           |
|           W    W   A  A   R    R  NN   N  II  NN   N  G    G  !!!           |
|           W    W  A    A  R    R  N N  N  II  N N  N  G       !!!           |
|           W WW W  AAAAAA  RRRRR   N  N N  II  N  N N  G  GGG   !            |
|           WW  WW  A    A  R   R   N   NN  II  N   NN  G    G                |
|           W    W  A    A  R    R  N    N  II  N    N   GGGG   !!!           |
|                                                                             |
|      For optimal performance we recommend to set                            |
|        NCORE= 4 - approx SQRT( number of cores)                             |
|      NCORE specifies how many cores store one orbital (NPAR=cpu/NCORE).     |
|      This setting can  greatly improve the performance of VASP for DFT.     |
|      The default, NPAR=number of cores might be grossly inefficient         |
|      on modern multi-core architectures or massively parallel machines.     |
|      Do your own testing !!!!                                               |
|      Unfortunately you need to use the default for GW and RPA calculations. |
|      (for HF NCORE is supported but not extensively tested yet)             |
|                                                                             |
 ----------------------------------------------------------------------------- 

 POTCAR:    PAW_PBE Si 05Jan2001                  
   VRHFIN =Si: s2p2                                                             
   LEXCH  = PE                                                                  
   EATOM  =   103.0669 eV,    7.5752 Ry                                         
                                                                                
   TITEL  = PAW_PBE Si 05Jan2001                                                
   LULTRA =        F    use ultrasoft PP ?                                      
   IUNSCR =        1    unscreen: 0-lin 1-nonlin 2-no                           
   RPACOR =    1.500    partial core radius                                     
   POMASS =   28.085; ZVAL   =    4.000    mass and valenz                      
   RCORE  =    1.900    outmost cutoff radius                                   
   RWIGS  =    2.480; RWIGS  =    1.312    wigner-seitz radius (au A)           
   ENMAX  =  245.345; ENMIN  =  184.009 eV                                      
   ICORE  =        2    local potential                                         
   LCOR   =        T    correct aug charges                                     
   LPAW   =        T    paw PP                                                  
   EAUG   =  322.069                                                            
   DEXC   =    0.000                                                            
   RMAX   =    1.950    core radius for proj-oper                               
   RAUG   =    1.300    factor for augmentation sphere                          
   RDEP   =    1.993    radius for radial grids                                 
   RDEPT  =    1.837    core radius for aug-charge                              
                                                                                
   Atomic configuration                                                         
    6 entries                                                                   
     n  l   j            E        occ.                                          
     1  0  0.50     -1785.8828   2.0000                                         
     2  0  0.50      -139.4969   2.0000                                         
     2  1  1.50       -95.5546   6.0000                                         
     3  0  0.50       -10.8127   2.0000                                         
     3  1  0.50        -4.0811   2.0000                                         
     3  2  1.50        -4.0817   0.0000                                         
   Description                                                                  
     l       E           TYP  RCUT    TYP  RCUT                                 
     0    -10.8127223     23  1.900                                             
     0     -7.6451159     23  1.900                                             
     1     -4.0811372     23  1.900                                             
     1      2.4879257     23  1.900                                             
     2     -4.0817478      7  1.900                                             
  local pseudopotential read in
  partial core-charges read in
  partial kinetic energy density read in
  atomic valenz-charges read in
  non local Contribution for L=           0  read in
    real space projection operators read in
  non local Contribution for L=           0  read in
    real space projection operators read in
  non local Contribution for L=           1  read in
    real space projection operators read in
  non local Contribution for L=           1  read in
    real space projection operators read in
    PAW grid and wavefunctions read in
 
   number of l-projection  operators is LMAX  =           4
   number of lm-projection operators is LMMAX =           8
 

 ----------------------------------------------------------------------------- 
|                                                                             |
|  ADVICE TO THIS USER RUNNING 'VASP/VAMP'   (HEAR YOUR MASTER'S VOICE ...):  |
|                                                                             |
|      You enforced a specific xc-type in the INCAR file,                     |
|      a different type was found on the POTCAR file                          |
|          I HOPE YOU KNOW, WHAT YOU ARE  DOING                               |
|                                                                             |
 ----------------------------------------------------------------------------- 

  PAW_PBE Si 05Jan2001                  :
 energy of atom  1       EATOM= -103.0669
 kinetic energy error for atom=    0.0006 (will be added to EATOM!!)
 
 
 POSCAR: Si (Madelung Handbook, 295.7K)          
  positions in direct lattice
  No initial velocities read in
 exchange correlation table for  LEXCH =       14
   RHO(1)=    0.500       N(1)  =     2000
   RHO(2)=  100.500       N(2)  =     4000
 


--------------------------------------------------------------------------------------------------------


 ion  position               nearest neighbor table
   1  0.000  0.000  0.000-   2 2.35   2 2.35   2 2.35   2 2.35
   2  0.250  0.250  0.250-   1 2.35   1 2.35   1 2.35   1 2.35
 
  LATTYP: Found a face centered cubic cell.
 ALAT       =     5.4310000000
  
  Lattice vectors:
  
 A1 = (   2.7155000000,   2.7155000000,   0.0000000000)
 A2 = (   2.7155000000,   0.0000000000,  -2.7155000000)
 A3 = (   0.0000000000,   2.7155000000,  -2.7155000000)


Analysis of symmetry for initial positions (statically):
=====================================================================
 Subroutine PRICEL returns:
 Original cell was already a primitive cell.
 

 Routine SETGRP: Setting up the symmetry group for a 
 face centered cubic supercell.


 Subroutine GETGRP returns: Found 48 space group operations
 (whereof 24 operations were pure point group operations)
 out of a pool of 48 trial point group operations.


The static configuration has the point symmetry T_d .
 The point group associated with its full space group is O_h .


Analysis of symmetry for dynamics (positions and initial velocities):
=====================================================================
 Subroutine PRICEL returns:
 Original cell was already a primitive cell.
 

 Routine SETGRP: Setting up the symmetry group for a 
 face centered cubic supercell.


 Subroutine GETGRP returns: Found 48 space group operations
 (whereof 24 operations were pure point group operations)
 out of a pool of 48 trial point group operations.


The dynamic configuration has the point symmetry T_d .
 The point group associated with its full space group is O_h .


 Subroutine INISYM returns: Found 48 space group operations
 (whereof 24 operations are pure point group operations),
 and found     1 'primitive' translations

 
 
 KPOINTS: Automatically generated mesh (16 to igno
  k-points in reciprocal lattice
Space group operators:
 irot       det(A)        alpha          n_x          n_y          n_z        tau_x        tau_y        tau_z
    1     1.000000     0.000001     1.000000     0.000000     0.000000     0.000000     0.000000     0.000000
    2     1.000000   120.000000    -0.577350    -0.577350     0.577350     0.000000     0.000000     0.000000
    3     1.000000   120.000000     0.577350     0.577350    -0.577350     0.000000     0.000000     0.000000
    4    -1.000000    90.000000    -1.000000     0.000000     0.000000     0.000000     0.000000     0.000000
    5    -1.000000   180.000000     0.707107     0.707107     0.000000     0.000000     0.000000     0.000000
    6    -1.000000    90.000000     0.000000     1.000000     0.000000     0.000000     0.000000     0.000000
    7     1.000000   180.000000     1.000000     0.000000     0.000000     0.000000     0.000000     0.000000
    8     1.000000   120.000000     0.577350     0.577350     0.577350     0.000000     0.000000     0.000000
    9     1.000000   120.000000    -0.577350     0.577350     0.577350     0.000000     0.000000     0.000000
   10    -1.000000    90.000000     1.000000     0.000000     0.000000     0.000000     0.000000     0.000000
   11    -1.000000    90.000000     0.000000     0.000000     1.000000     0.000000     0.000000     0.000000
   12    -1.000000   180.000000     0.707107     0.000000    -0.707107     0.000000     0.000000     0.000000
   13     1.000000   120.000000     0.577350    -0.577350    -0.577350     0.000000     0.000000     0.000000
   14     1.000000   120.000000     0.577350    -0.577350     0.577350     0.000000     0.000000     0.000000
   15     1.000000   180.000000     0.000000     0.000000     1.000000     0.000000     0.000000     0.000000
   16    -1.000000    90.000000     0.000000    -1.000000     0.000000     0.000000     0.000000     0.000000
   17    -1.000000   180.000000     0.000000    -0.707107     0.707107     0.000000     0.000000     0.000000
   18    -1.000000    90.000000     0.000000     0.000000    -1.000000     0.000000     0.000000     0.000000
   19     1.000000   120.000000    -0.577350    -0.577350    -0.577350     0.000000     0.000000     0.000000
   20     1.000000   180.000000     0.000000     1.000000     0.000000     0.000000     0.000000     0.000000
   21     1.000000   120.000000    -0.577350     0.577350    -0.577350     0.000000     0.000000     0.000000
   22    -1.000000   180.000000     0.707107    -0.707107     0.000000     0.000000     0.000000     0.000000
   23    -1.000000   180.000000     0.000000     0.707107     0.707107     0.000000     0.000000     0.000000
   24    -1.000000   180.000000     0.707107     0.000000     0.707107     0.000000     0.000000     0.000000
   25    -1.000000     0.000001     1.000000     0.000000     0.000000     0.250000     0.250000     0.250000
   26    -1.000000   120.000000    -0.577350    -0.577350     0.577350     0.250000     0.250000     0.250000
   27    -1.000000   120.000000     0.577350     0.577350    -0.577350     0.250000     0.250000     0.250000
   28     1.000000    90.000000    -1.000000     0.000000     0.000000     0.250000     0.250000     0.250000
   29     1.000000   180.000000     0.707107     0.707107     0.000000     0.250000     0.250000     0.250000
   30     1.000000    90.000000     0.000000     1.000000     0.000000     0.250000     0.250000     0.250000
   31    -1.000000   180.000000     1.000000     0.000000     0.000000     0.250000     0.250000     0.250000
   32    -1.000000   120.000000     0.577350     0.577350     0.577350     0.250000     0.250000     0.250000
   33    -1.000000   120.000000    -0.577350     0.577350     0.577350     0.250000     0.250000     0.250000
   34     1.000000    90.000000     1.000000     0.000000     0.000000     0.250000     0.250000     0.250000
   35     1.000000    90.000000     0.000000     0.000000     1.000000     0.250000     0.250000     0.250000
   36     1.000000   180.000000     0.707107     0.000000    -0.707107     0.250000     0.250000     0.250000
   37    -1.000000   120.000000     0.577350    -0.577350    -0.577350     0.250000     0.250000     0.250000
   38    -1.000000   120.000000     0.577350    -0.577350     0.577350     0.250000     0.250000     0.250000
   39    -1.000000   180.000000     0.000000     0.000000     1.000000     0.250000     0.250000     0.250000
   40     1.000000    90.000000     0.000000    -1.000000     0.000000     0.250000     0.250000     0.250000
   41     1.000000   180.000000     0.000000    -0.707107     0.707107     0.250000     0.250000     0.250000
   42     1.000000    90.000000     0.000000     0.000000    -1.000000     0.250000     0.250000     0.250000
   43    -1.000000   120.000000    -0.577350    -0.577350    -0.577350     0.250000     0.250000     0.250000
   44    -1.000000   180.000000     0.000000     1.000000     0.000000     0.250000     0.250000     0.250000
   45    -1.000000   120.000000    -0.577350     0.577350    -0.577350     0.250000     0.250000     0.250000
   46     1.000000   180.000000     0.707107    -0.707107     0.000000     0.250000     0.250000     0.250000
   47     1.000000   180.000000     0.000000     0.707107     0.707107     0.250000     0.250000     0.250000
   48     1.000000   180.000000     0.707107     0.000000     0.707107     0.250000     0.250000     0.250000


--------------------------------------------------------------------------------------------------------




 Dimension of arrays:
   k-points           NKPTS =     71   k-points in BZ     NKDIM =     71   number of bands    NBANDS=     16
   number of dos      NEDOS =    301   number of ions     NIONS =      2
   non local maximal  LDIM  =      4   non local SUM 2l+1 LMDIM =      8
   total plane-waves  NPLWV =  21952
   max r-space proj   IRMAX =      1   max aug-charges    IRDMAX=  18525
   dimension x,y,z NGX =    28 NGY =   28 NGZ =   28
   dimension x,y,z NGXF=    56 NGYF=   56 NGZF=   56
   support grid    NGXF=    56 NGYF=   56 NGZF=   56
   ions per type =               2
 NGX,Y,Z   is equivalent  to a cutoff of  12.12, 12.12, 12.12 a.u.
 NGXF,Y,Z  is equivalent  to a cutoff of  24.24, 24.24, 24.24 a.u.


 I would recommend the setting:
   dimension x,y,z NGX =    28 NGY =   28 NGZ =   28
 SYSTEM =  Name                                    
 POSCAR =  Si (Madelung Handbook, 295.7K)          

 Startparameter for this run:
   NWRITE =      2    write-flag & timer
   PREC   = accura    normal or accurate (medium, high low for compatibility)
   ISTART =      0    job   : 0-new  1-cont  2-samecut
   ICHARG =     11    charge: 1-file 2-atom 10-const
   ISPIN  =      1    spin polarized calculation?
   LNONCOLLINEAR =      F non collinear calculations
   LSORBIT =      F    spin-orbit coupling
   INIWAV =      1    electr: 0-lowe 1-rand  2-diag
   LASPH  =      F    aspherical Exc in radial PAW
   METAGGA=      F    non-selfconsistent MetaGGA calc.

 Electronic Relaxation 1
   ENCUT  =  500.0 eV  36.75 Ry    6.06 a.u.   7.00  7.00  7.00*2*pi/ulx,y,z
   ENINI  =  500.0     initial cutoff
   ENAUG  =  322.1 eV  augmentation charge cutoff
   NELM   =     60;   NELMIN=  2; NELMDL=  0     # of ELM steps 
   EDIFF  = 0.1E-05   stopping-criterion for ELM
   LREAL  =      F    real-space projection
   NLSPLINE    = F    spline interpolate recip. space projectors
   LCOMPAT=      F    compatible to vasp.4.4
   GGA_COMPAT  = T    GGA compatible to vasp.4.4-vasp.4.6
   LMAXPAW     = -100 max onsite density
   LMAXMIX     =    2 max onsite mixed and CHGCAR
   VOSKOWN=      0    Vosko Wilk Nusair interpolation
   ROPT   =    0.00000
 Ionic relaxation
   EDIFFG = -.5E-02   stopping-criterion for IOM
   NSW    =      1    number of steps for IOM
   NBLOCK =      1;   KBLOCK =      1    inner block; outer block 
   IBRION =      2    ionic relax: 0-MD 1-quasi-New 2-CG
   NFREE  =      1    steps in history (QN), initial steepest desc. (CG)
   ISIF   =      3    stress and relaxation
   IWAVPR =     11    prediction:  0-non 1-charg 2-wave 3-comb
   ISYM   =      2    0-nonsym 1-usesym 2-fastsym
   LCORR  =      T    Harris-Foulkes like correction to forces

   POTIM  = 0.5000    time-step for ionic-motion
   TEIN   =    0.0    initial temperature
   TEBEG  =    0.0;   TEEND  =   0.0 temperature during run
   SMASS  =  -3.00    Nose mass-parameter (am)
   estimated Nose-frequenzy (Omega)   =  0.10E-29 period in steps =****** mass=  -0.337E-27a.u.
   SCALEE = 1.0000    scale energy and forces
   NPACO  =    256;   APACO  = 16.0  distance and # of slots for P.C.
   PSTRESS=    0.0 pullay stress

  Mass of Ions in am
   POMASS =  28.09
  Ionic Valenz
   ZVAL   =   4.00
  Atomic Wigner-Seitz radii
   RWIGS  =  -1.00
  virtual crystal weights 
   VCA    =   1.00
   NELECT =       8.0000    total number of electrons
   NUPDOWN=      -1.0000    fix difference up-down

 DOS related values:
   EMIN   =  10.00;   EMAX   =-10.00  energy-range for DOS
   EFERMI =   0.00
   ISMEAR =     0;   SIGMA  =   0.01  broadening in eV -4-tet -1-fermi 0-gaus

 Electronic relaxation 2 (details)
   IALGO  =     38    algorithm
   LDIAG  =      T    sub-space diagonalisation (order eigenvalues)
   LSUBROT=      F    optimize rotation matrix (better conditioning)
   TURBO    =      0    0=normal 1=particle mesh
   IRESTART =      0    0=no restart 2=restart with 2 vectors
   NREBOOT  =      0    no. of reboots
   NMIN     =      0    reboot dimension
   EREF     =   0.00    reference energy to select bands
   IMIX   =      4    mixing-type and parameters
     AMIX     =   0.40;   BMIX     =  1.00
     AMIX_MAG =   1.60;   BMIX_MAG =  1.00
     AMIN     =   0.01
     WC   =   100.;   INIMIX=   1;  MIXPRE=   1;  MAXMIX= -45

 Intra band minimization:
   WEIMIN = 0.0010     energy-eigenvalue tresh-hold
   EBREAK =  0.16E-07  absolut break condition
   DEPER  =   0.30     relativ break condition  

   TIME   =   0.40     timestep for ELM

  volume/ion in A,a.u.               =      20.02       135.13
  Fermi-wavevector in a.u.,A,eV,Ry     =   0.956999  1.808467 12.460868  0.915848
  Thomas-Fermi vector in A             =   2.085978
 
 Write flags
   LWAVE  =      T    write WAVECAR
   LCHARG =      T    write CHGCAR
   LVTOT  =      F    write LOCPOT, total local potential
   LVHAR  =      F    write LOCPOT, Hartree potential only
   LELF   =      F    write electronic localiz. function (ELF)
   LORBIT =     10    0 simple, 1 ext, 2 COOP (PROOUT)


 Dipole corrections
   LMONO  =      F    monopole corrections only (constant potential shift)
   LDIPOL =      F    correct potential (dipole corrections)
   IDIPOL =      0    1-x, 2-y, 3-z, 4-all directions 
   EPSILON=  1.0000000 bulk dielectric constant

 Core level calculations are selected ICORELEVEL =  1
 Exchange correlation treatment:
   GGA     =    PS    GGA type
   LEXCH   =    14    internal setting for exchange type
   VOSKOWN=      0    Vosko Wilk Nusair interpolation
   LHFCALC =     F    Hartree Fock is set to
   LHFONE  =     F    Hartree Fock one center treatment
   AEXX    =    0.0000 exact exchange contribution

 Linear response parameters
   LEPSILON=     F    determine dielectric tensor
   LRPA    =     F    only Hartree local field effects (RPA)
   LNABLA  =     F    use nabla operator in PAW spheres
   LVEL    =     F    velocity operator in full k-point grid
   LINTERFAST=   F  fast interpolation
   KINTER  =     0    interpolate to denser k-point grid
   CSHIFT  =0.1000    complex shift for real part using Kramers Kronig
   OMEGAMAX=  -1.0    maximum frequency
   DEG_THRESHOLD= 0.2000000E-02 threshold for treating states as degnerate
   RTIME   =    0.100 relaxation time in fs

 Orbital magnetization related:
   ORBITALMAG=     F  switch on orbital magnetization
   LCHIMAG   =     F  perturbation theory with respect to B field
   DQ        =  0.001000  dq finite difference perturbation B field



--------------------------------------------------------------------------------------------------------


 conjugate gradient relaxation of ions
 charge density and potential remain constant during run
 non-spin polarized calculation
 Variant of blocked Davidson
 Davidson routine will perform the subspace rotation
 perform sub-space diagonalisation
    after iterative eigenvector-optimisation
 no mixing
 using additional bands           12
 reciprocal scheme for non local part
 use partial core corrections
 calculate Harris-corrections to forces 
   (improved forces if not selfconsistent)
 use gradient corrections 
 WARNING: stress and forces are not correct
  (second derivative of E(xc) not defined)
 use of overlap-Matrix (Vanderbilt PP)
 Gauss-broadening in eV      SIGMA  =   0.01


--------------------------------------------------------------------------------------------------------


  energy-cutoff  :      500.00
  volume of cell :       40.05
      direct lattice vectors                 reciprocal lattice vectors
     2.715500000  2.715500000  0.000000000     0.184128153  0.184128153  0.184128153
     2.715500000  0.000000000 -2.715500000     0.184128153 -0.184128153 -0.184128153
     0.000000000  2.715500000 -2.715500000    -0.184128153  0.184128153 -0.184128153

  length of vectors
     3.840296929  3.840296929  3.840296929     0.318919316  0.318919316  0.318919316


 
 k-points in units of 2pi/SCALE and weight: Automatically generated mesh (16 to igno
   0.00000000  0.00000000  0.00000000       0.005
   0.16666667  0.16666667  0.16666667       0.037
   0.33333333  0.33333333  0.33333333       0.037
   0.50000000  0.50000000  0.50000000       0.019
   0.33333333  0.00000000  0.00000000       0.028
   0.50000000  0.16666667  0.16666667       0.111
   0.66666667  0.33333333  0.33333333       0.111
  -0.16666667 -0.50000000 -0.50000000       0.111
   0.00000000 -0.33333333 -0.33333333       0.056
   0.66666667  0.00000000  0.00000000       0.028
   0.83333333  0.16666667  0.16666667       0.111
   0.00000000 -0.66666667 -0.66666667       0.056
   1.00000000  0.00000000  0.00000000       0.014
   0.66666667  0.33333333  0.00000000       0.111
  -0.16666667 -0.50000000 -0.83333333       0.111
   0.00000000 -0.66666667 -1.00000000       0.056
   0.00000000  0.00000000  0.00000000       0.000
   0.00000000  0.10000000  0.00000000       0.000
   0.00000000  0.19999998  0.00000000       0.000
   0.00000000  0.29999998  0.00000000       0.000
   0.00000000  0.39999998  0.00000000       0.000
   0.00000000  0.49999998  0.00000000       0.000
   0.00000000  0.59999996  0.00000000       0.000
   0.00000000  0.69999998  0.00000000       0.000
   0.00000000  0.79999996  0.00000000       0.000
   0.00000000  0.89999992  0.00000000       0.000
   0.00000000  0.99999994  0.00000000       0.000
   0.04166665  0.95833335 -0.12500003       0.000
   0.08333336  0.91666664 -0.24999998       0.000
   0.12500000  0.87500000 -0.37500000       0.000
   0.08333331  0.83333337 -0.50000001       0.000
   0.04166669  0.79166663 -0.62499999       0.000
   0.00000000  0.75000000 -0.75000000       0.000
   0.00000000  0.68750000 -0.68750000       0.000
   0.00000000  0.62500000 -0.62500000       0.000
   0.00000000  0.56250000 -0.56250000       0.000
   0.00000001  0.49999997 -0.49999997       0.000
   0.00000000  0.43750000 -0.43750000       0.000
   0.00000001  0.37499997 -0.37499997       0.000
   0.00000001  0.31249997 -0.31249997       0.000
   0.00000000  0.24999994 -0.24999994       0.000
   0.00000000  0.18749994 -0.18749994       0.000
   0.00000000  0.12500000 -0.12500000       0.000
   0.00000000  0.06249994 -0.06249994       0.000
   0.00000000 -0.00000006  0.00000006       0.000
   0.04166667  0.04166667 -0.04166667       0.000
   0.08333334  0.08333334 -0.08333334       0.000
   0.12500000  0.12500000 -0.12500000       0.000
   0.16666667  0.16666667 -0.16666667       0.000
   0.20833333  0.20833333 -0.20833333       0.000
   0.25000000  0.25000000 -0.25000000       0.000
   0.29166669  0.29166669 -0.29166669       0.000
   0.33333334  0.33333334 -0.33333334       0.000
   0.37500000  0.37500000 -0.37500000       0.000
   0.41666666  0.41666666 -0.41666666       0.000
   0.45833334  0.45833334 -0.45833334       0.000
   0.50000000  0.50000000 -0.50000000       0.000
   0.43750000  0.62500000 -0.43750000       0.000
   0.37500000  0.75000000 -0.37500000       0.000
   0.31250000  0.87500000 -0.31250000       0.000
   0.25000000  1.00000000 -0.25000000       0.000
   0.12500000  1.00000000 -0.37500000       0.000
   0.00000000  1.00000000 -0.50000000       0.000
   0.10000002  0.89999998 -0.50000000       0.000
   0.20000001  0.79999999 -0.49999997       0.000
   0.29999996  0.70000004 -0.50000000       0.000
   0.39999998  0.60000002 -0.50000000       0.000
   0.50000000  0.50000000 -0.50000000       0.000
   0.37500000  0.56250000 -0.56250000       0.000
   0.25000000  0.62500000 -0.62500000       0.000
   0.12500000  0.68750000 -0.68750000       0.000
 
 k-points in reciprocal lattice and weights: Automatically generated mesh (16 to igno
   0.00000000  0.00000000  0.00000000       0.005
   0.16666667  0.00000000  0.00000000       0.037
   0.33333333  0.00000000  0.00000000       0.037
   0.50000000  0.00000000  0.00000000       0.019
   0.16666667  0.16666667  0.00000000       0.028
   0.33333333  0.16666667  0.00000000       0.111
   0.50000000  0.16666667  0.00000000       0.111
  -0.33333333  0.16666667  0.00000000       0.111
  -0.16666667  0.16666667  0.00000000       0.056
   0.33333333  0.33333333  0.00000000       0.028
   0.50000000  0.33333333  0.00000000       0.111
  -0.33333333  0.33333333  0.00000000       0.056
   0.50000000  0.50000000  0.00000000       0.014
   0.50000000  0.33333333  0.16666667       0.111
  -0.33333333  0.33333333  0.16666667       0.111
  -0.33333333  0.50000000  0.16666667       0.056
   0.00000000  0.00000000  0.00000000       0.000
   0.05000000  0.00000000  0.05000000       0.000
   0.09999999  0.00000000  0.09999999       0.000
   0.14999999  0.00000000  0.14999999       0.000
   0.19999999  0.00000000  0.19999999       0.000
   0.24999999  0.00000000  0.24999999       0.000
   0.29999998  0.00000000  0.29999998       0.000
   0.34999999  0.00000000  0.34999999       0.000
   0.39999998  0.00000000  0.39999998       0.000
   0.44999996  0.00000000  0.44999996       0.000
   0.49999997  0.00000000  0.49999997       0.000
   0.50000000  0.08333334  0.54166669       0.000
   0.50000000  0.16666667  0.58333331       0.000
   0.50000000  0.25000000  0.62500000       0.000
   0.45833334  0.29166666  0.66666669       0.000
   0.41666666  0.33333334  0.70833331       0.000
   0.37500000  0.37500000  0.75000000       0.000
   0.34375000  0.34375000  0.68750000       0.000
   0.31250000  0.31250000  0.62500000       0.000
   0.28125000  0.28125000  0.56250000       0.000
   0.24999999  0.24999999  0.49999997       0.000
   0.21875000  0.21875000  0.43750000       0.000
   0.18749999  0.18749999  0.37499997       0.000
   0.15624999  0.15624999  0.31249997       0.000
   0.12499997  0.12499997  0.24999994       0.000
   0.09374997  0.09374997  0.18749994       0.000
   0.06250000  0.06250000  0.12500000       0.000
   0.03124997  0.03124997  0.06249994       0.000
  -0.00000003 -0.00000003 -0.00000006       0.000
   0.04166667  0.04166667  0.04166667       0.000
   0.08333334  0.08333334  0.08333334       0.000
   0.12500000  0.12500000  0.12500000       0.000
   0.16666667  0.16666667  0.16666667       0.000
   0.20833333  0.20833333  0.20833333       0.000
   0.25000000  0.25000000  0.25000000       0.000
   0.29166669  0.29166669  0.29166669       0.000
   0.33333334  0.33333334  0.33333334       0.000
   0.37500000  0.37500000  0.37500000       0.000
   0.41666666  0.41666666  0.41666666       0.000
   0.45833334  0.45833334  0.45833334       0.000
   0.50000000  0.50000000  0.50000000       0.000
   0.53125000  0.43750000  0.53125000       0.000
   0.56250000  0.37500000  0.56250000       0.000
   0.59375000  0.31250000  0.59375000       0.000
   0.62500000  0.25000000  0.62500000       0.000
   0.56250000  0.25000000  0.68750000       0.000
   0.50000000  0.25000000  0.75000000       0.000
   0.50000000  0.30000001  0.69999999       0.000
   0.50000000  0.34999999  0.64999998       0.000
   0.50000000  0.39999998  0.60000002       0.000
   0.50000000  0.44999999  0.55000001       0.000
   0.50000000  0.50000000  0.50000000       0.000
   0.46875000  0.46875000  0.56250000       0.000
   0.43750000  0.43750000  0.62500000       0.000
   0.40625000  0.40625000  0.68750000       0.000
 
 position of ions in fractional coordinates (direct lattice) 
   0.00000000  0.00000000  0.00000000
   0.25000000  0.25000000  0.25000000
 
 position of ions in cartesian coordinates  (Angst):
   0.00000000  0.00000000  0.00000000
   1.35775000  1.35775000 -1.35775000
 


--------------------------------------------------------------------------------------------------------


 k-point  1 :   0.0000 0.0000 0.0000  plane waves:     965
 k-point  2 :   0.1667 0.0000 0.0000  plane waves:     989
 k-point  3 :   0.3333 0.0000 0.0000  plane waves:    1008
 k-point  4 :   0.5000 0.0000 0.0000  plane waves:    1008
 k-point  5 :   0.1667 0.1667 0.0000  plane waves:     998
 k-point  6 :   0.3333 0.1667 0.0000  plane waves:    1011
 k-point  7 :   0.5000 0.1667 0.0000  plane waves:    1017
 k-point  8 :  -0.3333 0.1667 0.0000  plane waves:    1019
 k-point  9 :  -0.1667 0.1667 0.0000  plane waves:    1013
 k-point 10 :   0.3333 0.3333 0.0000  plane waves:    1018
 k-point 11 :   0.5000 0.3333 0.0000  plane waves:    1012
 k-point 12 :  -0.3333 0.3333 0.0000  plane waves:    1015
 k-point 13 :   0.5000 0.5000 0.0000  plane waves:    1034
 k-point 14 :   0.5000 0.3333 0.1667  plane waves:    1032
 k-point 15 :  -0.3333 0.3333 0.1667  plane waves:    1020
 k-point 16 :  -0.3333 0.5000 0.1667  plane waves:    1016
 k-point 17 :   0.0000 0.0000 0.0000  plane waves:     965
 k-point 18 :   0.0500 0.0000 0.0500  plane waves:     990
 k-point 19 :   0.1000 0.0000 0.1000  plane waves:    1002
 k-point 20 :   0.1500 0.0000 0.1500  plane waves:     994
 k-point 21 :   0.2000 0.0000 0.2000  plane waves:     998
 k-point 22 :   0.2500 0.0000 0.2500  plane waves:     998
 k-point 23 :   0.3000 0.0000 0.3000  plane waves:    1018
 k-point 24 :   0.3500 0.0000 0.3500  plane waves:    1026
 k-point 25 :   0.4000 0.0000 0.4000  plane waves:    1022
 k-point 26 :   0.4500 0.0000 0.4500  plane waves:    1014
 k-point 27 :   0.5000 0.0000 0.5000  plane waves:    1034
 k-point 28 :   0.5000 0.0833 0.5417  plane waves:    1011
 k-point 29 :   0.5000 0.1667 0.5833  plane waves:    1019
 k-point 30 :   0.5000 0.2500 0.6250  plane waves:    1019
 k-point 31 :   0.4583 0.2917 0.6667  plane waves:    1018
 k-point 32 :   0.4167 0.3333 0.7083  plane waves:    1017
 k-point 33 :   0.3750 0.3750 0.7500  plane waves:    1011
 k-point 34 :   0.3438 0.3438 0.6875  plane waves:    1025
 k-point 35 :   0.3125 0.3125 0.6250  plane waves:    1015
 k-point 36 :   0.2812 0.2812 0.5625  plane waves:    1015
 k-point 37 :   0.2500 0.2500 0.5000  plane waves:    1019
 k-point 38 :   0.2188 0.2188 0.4375  plane waves:    1015
 k-point 39 :   0.1875 0.1875 0.3750  plane waves:    1009
 k-point 40 :   0.1562 0.1562 0.3125  plane waves:    1007
 k-point 41 :   0.1250 0.1250 0.2500  plane waves:     997
 k-point 42 :   0.0937 0.0937 0.1875  plane waves:     997
 k-point 43 :   0.0625 0.0625 0.1250  plane waves:     995
 k-point 44 :   0.0312 0.0312 0.0625  plane waves:     981
 k-point 45 :  -0.0000-0.0000-0.0000  plane waves:     965
 k-point 46 :   0.0417 0.0417 0.0417  plane waves:     977
 k-point 47 :   0.0833 0.0833 0.0833  plane waves:     992
 k-point 48 :   0.1250 0.1250 0.1250  plane waves:     995
 k-point 49 :   0.1667 0.1667 0.1667  plane waves:     989
 k-point 50 :   0.2083 0.2083 0.2083  plane waves:    1001
 k-point 51 :   0.2500 0.2500 0.2500  plane waves:    1001
 k-point 52 :   0.2917 0.2917 0.2917  plane waves:    1011
 k-point 53 :   0.3333 0.3333 0.3333  plane waves:    1008
 k-point 54 :   0.3750 0.3750 0.3750  plane waves:    1017
 k-point 55 :   0.4167 0.4167 0.4167  plane waves:    1023
 k-point 56 :   0.4583 0.4583 0.4583  plane waves:    1026
 k-point 57 :   0.5000 0.5000 0.5000  plane waves:    1008
 k-point 58 :   0.5312 0.4375 0.5312  plane waves:    1015
 k-point 59 :   0.5625 0.3750 0.5625  plane waves:    1014
 k-point 60 :   0.5938 0.3125 0.5938  plane waves:    1017
 k-point 61 :   0.6250 0.2500 0.6250  plane waves:    1011
 k-point 62 :   0.5625 0.2500 0.6875  plane waves:    1012
 k-point 63 :   0.5000 0.2500 0.7500  plane waves:    1036
 k-point 64 :   0.5000 0.3000 0.7000  plane waves:    1022
 k-point 65 :   0.5000 0.3500 0.6500  plane waves:    1024
 k-point 66 :   0.5000 0.4000 0.6000  plane waves:    1030
 k-point 67 :   0.5000 0.4500 0.5500  plane waves:    1018
 k-point 68 :   0.5000 0.5000 0.5000  plane waves:    1008
 k-point 69 :   0.4688 0.4688 0.5625  plane waves:    1015
 k-point 70 :   0.4375 0.4375 0.6250  plane waves:    1014
 k-point 71 :   0.4062 0.4062 0.6875  plane waves:    1017

 maximum and minimum number of plane-waves per node :      1036      965

 maximum number of plane-waves:      1036
 maximum index in each direction: 
   IXMAX=    7   IYMAX=    7   IZMAX=    7
   IXMIN=   -7   IYMIN=   -7   IZMIN=   -7

 WARNING: aliasing errors must be expected set NGX to  30 to avoid them
 WARNING: aliasing errors must be expected set NGY to  30 to avoid them
 WARNING: aliasing errors must be expected set NGZ to  30 to avoid them
 aliasing errors are usually negligible using standard VASP settings
 and one can safely disregard these warnings

 serial   3D FFT for wavefunctions
 parallel 3D FFT for charge:
    minimum data exchange during FFTs selected (reduces bandwidth)


 total amount of memory used by VASP on root node    37988. kBytes
========================================================================

   base      :      30000. kBytes
   nonl-proj :       4759. kBytes
   fftplans  :        517. kBytes
   grid      :       1507. kBytes
   one-center:          6. kBytes
   wavefun   :       1199. kBytes
 
     INWAV:  cpu time    0.0000: real time    0.0000
 initial charge density was supplied:
 number of electron       8.0000001 magnetization 
 keeping initial charge density in first step


--------------------------------------------------------------------------------------------------------


 Maximum index for augmentation-charges         1501 (set IRDMAX)


--------------------------------------------------------------------------------------------------------


 First call to EWALD:  gamma=   0.518
 Maximum number of real-space cells 3x 3x 3
 Maximum number of reciprocal cells 3x 3x 3

 FEWALD executed in parallel
    FEWALD:  cpu time    0.0000: real time    0.0017


----------------------------------------- Iteration    1(   1)  ---------------------------------------


    POTLOK:  cpu time    0.0600: real time    0.1280
    SETDIJ:  cpu time    0.0640: real time    0.1239
     EDDAV:  cpu time   28.1760: real time   48.1440
       DOS:  cpu time    0.0280: real time    0.0284
    --------------------------------------------
      LOOP:  cpu time   28.3360: real time   48.4478

 eigenvalue-minimisations  :  2288
 total energy-change (2. order) :-0.2633714E+01  (-0.3255786E+03)
 number of electron       8.0000001 magnetization 
 augmentation part        8.0000001 magnetization 

 Free energy of the ion-electron system (eV)
  ---------------------------------------------------
  alpha Z        PSCENC =         3.36228930
  Ewald energy   TEWEN  =      -228.52143995
  -Hartree energ DENC   =       -14.67338014
  -exchange      EXHF   =         0.00000000
  -V(xc)+E(xc)   XCENC  =       -16.84215720
  PAW double counting   =       872.12719759     -837.76694821
  entropy T*S    EENTRO =        -0.00059585
  eigenvalues    EBANDS =        14.53042835
  atomic energy  EATOM  =       205.15089164
  Solvation  Ediel_sol  =         0.00000000
  ---------------------------------------------------
  free energy    TOTEN  =        -2.63371447 eV

  energy without entropy =       -2.63311862  energy(sigma->0) =       -2.63341655


--------------------------------------------------------------------------------------------------------




----------------------------------------- Iteration    1(   2)  ---------------------------------------


     EDDAV:  cpu time   38.1280: real time   60.2589
       DOS:  cpu time    0.0720: real time    0.1400
    --------------------------------------------
      LOOP:  cpu time   38.2000: real time   60.3995

 eigenvalue-minimisations  :  3248
 total energy-change (2. order) :-0.8775062E+01  (-0.8536094E+01)
 number of electron       8.0000001 magnetization 
 augmentation part        8.0000001 magnetization 

 Free energy of the ion-electron system (eV)
  ---------------------------------------------------
  alpha Z        PSCENC =         3.36228930
  Ewald energy   TEWEN  =      -228.52143995
  -Hartree energ DENC   =       -14.67338014
  -exchange      EXHF   =         0.00000000
  -V(xc)+E(xc)   XCENC  =       -16.84215720
  PAW double counting   =       872.12719759     -837.76694821
  entropy T*S    EENTRO =        -0.00000000
  eigenvalues    EBANDS =         5.75477022
  atomic energy  EATOM  =       205.15089164
  Solvation  Ediel_sol  =         0.00000000
  ---------------------------------------------------
  free energy    TOTEN  =       -11.40877675 eV

  energy without entropy =      -11.40877675  energy(sigma->0) =      -11.40877675


--------------------------------------------------------------------------------------------------------




----------------------------------------- Iteration    1(   3)  ---------------------------------------


     EDDAV:  cpu time   34.0520: real time   56.5156
       DOS:  cpu time    0.0720: real time    0.1480
    --------------------------------------------
      LOOP:  cpu time   34.1560: real time   56.6960

 eigenvalue-minimisations  :  2800
 total energy-change (2. order) :-0.5860245E-01  (-0.5860245E-01)
 number of electron       8.0000001 magnetization 
 augmentation part        8.0000001 magnetization 

 Free energy of the ion-electron system (eV)
  ---------------------------------------------------
  alpha Z        PSCENC =         3.36228930
  Ewald energy   TEWEN  =      -228.52143995
  -Hartree energ DENC   =       -14.67338014
  -exchange      EXHF   =         0.00000000
  -V(xc)+E(xc)   XCENC  =       -16.84215720
  PAW double counting   =       872.12719759     -837.76694821
  entropy T*S    EENTRO =        -0.00000000
  eigenvalues    EBANDS =         5.69616778
  atomic energy  EATOM  =       205.15089164
  Solvation  Ediel_sol  =         0.00000000
  ---------------------------------------------------
  free energy    TOTEN  =       -11.46737920 eV

  energy without entropy =      -11.46737920  energy(sigma->0) =      -11.46737920


--------------------------------------------------------------------------------------------------------




----------------------------------------- Iteration    1(   4)  ---------------------------------------


     EDDAV:  cpu time   40.1800: real time   66.0685
       DOS:  cpu time    0.0000: real time    0.0002
    --------------------------------------------
      LOOP:  cpu time   40.2000: real time   66.0892

 eigenvalue-minimisations  :  4032
 total energy-change (2. order) :-0.1354558E-03  (-0.1354558E-03)
 number of electron       8.0000001 magnetization 
 augmentation part        8.0000001 magnetization 

 Free energy of the ion-electron system (eV)
  ---------------------------------------------------
  alpha Z        PSCENC =         3.36228930
  Ewald energy   TEWEN  =      -228.52143995
  -Hartree energ DENC   =       -14.67338014
  -exchange      EXHF   =         0.00000000
  -V(xc)+E(xc)   XCENC  =       -16.84215720
  PAW double counting   =       872.12719759     -837.76694821
  entropy T*S    EENTRO =        -0.00000000
  eigenvalues    EBANDS =         5.69603232
  atomic energy  EATOM  =       205.15089164
  Solvation  Ediel_sol  =         0.00000000
  ---------------------------------------------------
  free energy    TOTEN  =       -11.46751465 eV

  energy without entropy =      -11.46751465  energy(sigma->0) =      -11.46751465


--------------------------------------------------------------------------------------------------------




----------------------------------------- Iteration    1(   5)  ---------------------------------------


     EDDAV:  cpu time    1.5640: real time    1.5643
       DOS:  cpu time    0.0000: real time    0.0002
    --------------------------------------------
      LOOP:  cpu time    1.5640: real time    1.5650

 eigenvalue-minimisations  :  2720
 total energy-change (2. order) :-0.1110323E-07  (-0.1110586E-07)
 number of electron       8.0000001 magnetization 
 augmentation part        8.0000001 magnetization 

 Free energy of the ion-electron system (eV)
  ---------------------------------------------------
  alpha Z        PSCENC =         3.36228930
  Ewald energy   TEWEN  =      -228.52143995
  -Hartree energ DENC   =       -14.67338014
  -exchange      EXHF   =         0.00000000
  -V(xc)+E(xc)   XCENC  =       -16.84215720
  PAW double counting   =       872.12719759     -837.76694821
  entropy T*S    EENTRO =        -0.00000000
  eigenvalues    EBANDS =         5.69603231
  atomic energy  EATOM  =       205.15089164
  Solvation  Ediel_sol  =         0.00000000
  ---------------------------------------------------
  free energy    TOTEN  =       -11.46751466 eV

  energy without entropy =      -11.46751466  energy(sigma->0) =      -11.46751466


--------------------------------------------------------------------------------------------------------




----------------------------------------- Iteration    1(   6)  ---------------------------------------


     EDDAV:  cpu time    0.9760: real time    0.9761
       DOS:  cpu time    0.0000: real time    0.0002
    --------------------------------------------
      LOOP:  cpu time    1.0000: real time    0.9999

 eigenvalue-minimisations  :  4000
 total energy-change (2. order) :-0.4172307E-10  (-0.4197205E-10)
 number of electron       8.0000001 magnetization 
 augmentation part        8.0000001 magnetization 

 Free energy of the ion-electron system (eV)
  ---------------------------------------------------
  alpha Z        PSCENC =         3.36228930
  Ewald energy   TEWEN  =      -228.52143995
  -Hartree energ DENC   =       -14.67338014
  -exchange      EXHF   =         0.00000000
  -V(xc)+E(xc)   XCENC  =       -16.84215720
  PAW double counting   =       872.12719759     -837.76694821
  entropy T*S    EENTRO =        -0.00000000
  eigenvalues    EBANDS =         5.69603231
  atomic energy  EATOM  =       205.15089164
  Solvation  Ediel_sol  =         0.00000000
  ---------------------------------------------------
  free energy    TOTEN  =       -11.46751466 eV

  energy without entropy =      -11.46751466  energy(sigma->0) =      -11.46751466


--------------------------------------------------------------------------------------------------------




 the core state eigenenergies are
   1-  1s  -1773.9257  2s   -127.9430  2p    -83.9662
   2-  1s  -1773.9257  2s   -127.9430  2p    -83.9662
 
 E-fermi :   5.8480     XC(G=0):  -9.5490     alpha+bet :-11.9779


 k-point     1 :       0.0000    0.0000    0.0000
  band No.  band energies     occupation 
      1      -6.1942      2.00000
      2       5.7972      2.00000
      3       5.7972      2.00000
      4       5.7972      2.00000
      5       8.3104      0.00000
      6       8.3104      0.00000
      7       8.3104      0.00000
      8       9.1195      0.00000
      9      13.4809      0.00000
     10      13.4809      0.00000
     11      13.5034      0.00000
     12      16.8877      0.00000
     13      16.8877      0.00000
     14      16.8877      0.00000
     15      20.8784      0.00000
     16      28.7953      0.00000

 k-point     2 :       0.1667    0.0000    0.0000
  band No.  band energies     occupation 
      1      -5.8316      2.00000
      2       3.3969      2.00000
      3       5.3416      2.00000
      4       5.3416      2.00000
      5       8.0840      0.00000
      6       8.9620      0.00000
      7       8.9620      0.00000
      8      11.2003      0.00000
      9      12.8160      0.00000
     10      12.8160      0.00000
     11      14.6629      0.00000
     12      16.2639      0.00000
     13      18.8026      0.00000
     14      18.8026      0.00000
     15      22.8883      0.00000
     16      25.6715      0.00000

 k-point     3 :       0.3333    0.0000    0.0000
  band No.  band energies     occupation 
      1      -4.8103      2.00000
      2       0.4296      2.00000
      3       4.7905      2.00000
      4       4.7905      2.00000
      5       7.4867      0.00000
      6       9.2420      0.00000
      7       9.2420      0.00000
      8      13.5017      0.00000
      9      13.7187      0.00000
     10      13.7187      0.00000
     11      14.7692      0.00000
     12      19.2529      0.00000
     13      20.3610      0.00000
     14      20.3610      0.00000
     15      22.5324      0.00000
     16      23.3349      0.00000

 k-point     4 :       0.5000    0.0000    0.0000
  band No.  band energies     occupation 
      1      -3.8440      2.00000
      2      -1.2198      2.00000
      3       4.5929      2.00000
      4       4.5929      2.00000
      5       7.2599      0.00000
      6       9.0654      0.00000
      7       9.0654      0.00000
      8      13.3052      0.00000
      9      16.3036      0.00000
     10      16.3036      0.00000
     11      17.0169      0.00000
     12      17.0714      0.00000
     13      17.0714      0.00000
     14      18.7300      0.00000
     15      25.0672      0.00000
     16      25.6455      0.00000

 k-point     5 :       0.1667    0.1667    0.0000
  band No.  band energies     occupation 
      1      -5.7083      2.00000
      2       3.7560      2.00000
      3       4.5884      2.00000
      4       4.5884      2.00000
      5       7.4173      0.00000
      6      10.0193      0.00000
      7      10.1058      0.00000
      8      10.1058      0.00000
      9      12.3478      0.00000
     10      14.0189      0.00000
     11      15.3374      0.00000
     12      17.7302      0.00000
     13      17.7302      0.00000
     14      18.2895      0.00000
     15      23.9719      0.00000
     16      25.1797      0.00000

 k-point     6 :       0.3333    0.1667    0.0000
  band No.  band energies     occupation 
      1      -4.8892      2.00000
      2       1.3432      2.00000
      3       3.7783      2.00000
      4       4.0334      2.00000
      5       7.6739      0.00000
      6       9.7854      0.00000
      7      10.2489      0.00000
      8      10.8263      0.00000
      9      14.8197      0.00000
     10      14.8833      0.00000
     11      16.0361      0.00000
     12      18.5056      0.00000
     13      19.4644      0.00000
     14      21.0062      0.00000
     15      21.6961      0.00000
     16      22.6840      0.00000

 k-point     7 :       0.5000    0.1667    0.0000
  band No.  band energies     occupation 
      1      -3.6869      2.00000
      2      -0.8437      2.00000
      3       2.9874      2.00000
      4       4.0061      2.00000
      5       7.7440      0.00000
      6       9.8457      0.00000
      7      10.3578      0.00000
      8      12.1364      0.00000
      9      15.0711      0.00000
     10      16.2212      0.00000
     11      17.4515      0.00000
     12      17.5762      0.00000
     13      18.4022      0.00000
     14      21.8434      0.00000
     15      23.6688      0.00000
     16      24.7023      0.00000

 k-point     8 :      -0.3333    0.1667    0.0000
  band No.  band energies     occupation 
      1      -4.0763      2.00000
      2      -0.2385      2.00000
      3       2.7114      2.00000
      4       4.4910      2.00000
      5       8.1675      0.00000
      6       9.8427      0.00000
      7       9.9657      0.00000
      8      13.0006      0.00000
      9      13.0568      0.00000
     10      15.0895      0.00000
     11      17.1276      0.00000
     12      18.5491      0.00000
     13      20.5743      0.00000
     14      21.1492      0.00000
     15      22.0243      0.00000
     16      23.6123      0.00000

 k-point     9 :      -0.1667    0.1667    0.0000
  band No.  band energies     occupation 
      1      -5.2407      2.00000
      2       2.0667      2.00000
      3       3.3448      2.00000
      4       5.2309      2.00000
      5       8.7832      0.00000
      6       9.3057      0.00000
      7       9.5766      0.00000
      8      11.3747      0.00000
      9      11.8182      0.00000
     10      15.1419      0.00000
     11      16.0972      0.00000
     12      17.1444      0.00000
     13      19.0422      0.00000
     14      21.2970      0.00000
     15      21.7410      0.00000
     16      24.3991      0.00000

 k-point    10 :       0.3333    0.3333    0.0000
  band No.  band energies     occupation 
      1      -4.2824      2.00000
      2       0.7819      2.00000
      3       3.3573      2.00000
      4       3.3573      2.00000
      5       6.4125      0.00000
      6       7.6640      0.00000
      7      13.0213      0.00000
      8      13.0213      0.00000
      9      15.5872      0.00000
     10      15.6272      0.00000
     11      18.7006      0.00000
     12      19.2145      0.00000
     13      19.2145      0.00000
     14      20.7293      0.00000
     15      21.9420      0.00000
     16      22.0486      0.00000

 k-point    11 :       0.5000    0.3333    0.0000
  band No.  band energies     occupation 
      1      -3.1117      2.00000
      2      -0.7769      2.00000
      3       2.1138      2.00000
      4       3.2211      2.00000
      5       6.7420      0.00000
      6       8.4146      0.00000
      7      13.1968      0.00000
      8      13.2236      0.00000
      9      16.3499      0.00000
     10      16.4467      0.00000
     11      18.0798      0.00000
     12      18.6289      0.00000
     13      20.3292      0.00000
     14      21.5129      0.00000
     15      21.7047      0.00000
     16      24.2886      0.00000

 k-point    12 :      -0.3333    0.3333    0.0000
  band No.  band energies     occupation 
      1      -2.9097      2.00000
      2      -0.9869      2.00000
      3       1.3191      2.00000
      4       3.6675      2.00000
      5       7.2523      0.00000
      6      11.5027      0.00000
      7      12.2251      0.00000
      8      12.8180      0.00000
      9      13.1599      0.00000
     10      13.3943      0.00000
     11      20.0089      0.00000
     12      20.5587      0.00000
     13      21.4560      0.00000
     14      21.4729      0.00000
     15      22.3823      0.00000
     16      23.3344      0.00000

 k-point    13 :       0.5000    0.5000    0.0000
  band No.  band energies     occupation 
      1      -2.0331      2.00000
      2      -2.0331      2.00000
      3       2.9211      2.00000
      4       2.9211      2.00000
      5       6.3818      0.00000
      6       6.3818      0.00000
      7      15.8580      0.00000
      8      15.8580      0.00000
      9      16.7283      0.00000
     10      16.7283      0.00000
     11      18.2857      0.00000
     12      18.2857      0.00000
     13      18.7538      0.00000
     14      18.7538      0.00000
     15      24.4948      0.00000
     16      24.4949      0.00000

 k-point    14 :       0.5000    0.3333    0.1667
  band No.  band energies     occupation 
      1      -3.8937      2.00000
      2       0.1448      2.00000
      3       2.1764      2.00000
      4       3.4712      2.00000
      5       8.5690      0.00000
      6       9.4025      0.00000
      7       9.9733      0.00000
      8      12.8160      0.00000
      9      14.7416      0.00000
     10      15.6275      0.00000
     11      18.7509      0.00000
     12      18.9109      0.00000
     13      19.5483      0.00000
     14      20.6293      0.00000
     15      22.2728      0.00000
     16      23.5866      0.00000

 k-point    15 :      -0.3333    0.3333    0.1667
  band No.  band energies     occupation 
      1      -2.8990      2.00000
      2      -1.0645      2.00000
      3       1.7333      2.00000
      4       2.9961      2.00000
      5       9.0523      0.00000
      6       9.2834      0.00000
      7      11.8127      0.00000
      8      12.2507      0.00000
      9      13.3033      0.00000
     10      16.8426      0.00000
     11      17.6874      0.00000
     12      19.1187      0.00000
     13      21.9846      0.00000
     14      22.5836      0.00000
     15      22.7142      0.00000
     16      23.6575      0.00000

 k-point    16 :      -0.3333    0.5000    0.1667
  band No.  band energies     occupation 
      1      -1.9087      2.00000
      2      -1.9087      2.00000
      3       2.0999      2.00000
      4       2.0999      2.00000
      5       8.4494      0.00000
      6       8.4494      0.00000
      7      12.4944      0.00000
      8      12.4944      0.00000
      9      16.3240      0.00000
     10      16.3240      0.00000
     11      18.6963      0.00000
     12      18.6963      0.00000
     13      22.1653      0.00000
     14      22.1653      0.00000
     15      22.9375      0.00000
     16      22.9375      0.00000

 k-point    17 :       0.0000    0.0000    0.0000
  band No.  band energies     occupation 
      1      -6.1942      2.00000
      2       5.7972      2.00000
      3       5.7972      2.00000
      4       5.7972      2.00000
      5       8.3104      0.00000
      6       8.3104      0.00000
      7       8.3104      0.00000
      8       9.1195      0.00000
      9      13.4809      0.00000
     10      13.4809      0.00000
     11      13.5034      0.00000
     12      16.8877      0.00000
     13      16.8877      0.00000
     14      16.8877      0.00000
     15      20.8784      0.00000
     16      28.7954      0.00000

 k-point    18 :       0.0500    0.0000    0.0500
  band No.  band energies     occupation 
      1      -6.1503      2.00000
      2       5.5157      2.00000
      3       5.6175      2.00000
      4       5.6175      2.00000
      5       8.1995      0.00000
      6       8.5437      0.00000
      7       8.5437      0.00000
      8       9.3912      0.00000
      9      13.1375      0.00000
     10      13.5294      0.00000
     11      13.7006      0.00000
     12      16.9645      0.00000
     13      16.9645      0.00000
     14      17.1199      0.00000
     15      21.2055      0.00000
     16      28.1881      0.00000

 k-point    19 :       0.1000    0.0000    0.1000
  band No.  band energies     occupation 
      1      -6.0187      2.00000
      2       4.8558      2.00000
      3       5.2105      2.00000
      4       5.2105      2.00000
      5       7.9139      0.00000
      6       9.1106      0.00000
      7       9.1106      0.00000
      8       9.9462      0.00000
      9      12.4644      0.00000
     10      13.6747      0.00000
     11      14.2432      0.00000
     12      17.1943      0.00000
     13      17.1943      0.00000
     14      17.5901      0.00000
     15      22.1252      0.00000
     16      26.9717      0.00000

 k-point    20 :       0.1500    0.0000    0.1500
  band No.  band energies     occupation 
      1      -5.8002      2.00000
      2       4.0425      2.00000
      3       4.7428      2.00000
      4       4.7428      2.00000
      5       7.5450      0.00000
      6       9.8414      0.00000
      7       9.8414      0.00000
      8      10.1447      0.00000
      9      12.2146      0.00000
     10      13.9167      0.00000
     11      15.0342      0.00000
     12      17.5729      0.00000
     13      17.5729      0.00000
     14      18.1076      0.00000
     15      23.4667      0.00000
     16      25.6274      0.00000

 k-point    21 :       0.2000    0.0000    0.2000
  band No.  band energies     occupation 
      1      -5.4961      2.00000
      2       3.1711      2.00000
      3       4.2912      2.00000
      4       4.2912      2.00000
      5       7.1672      0.00000
      6       9.5888      0.00000
      7      10.6556      0.00000
      8      10.6556      0.00000
      9      12.8375      0.00000
     10      14.2553      0.00000
     11      15.9868      0.00000
     12      18.0859      0.00000
     13      18.0859      0.00000
     14      18.6766      0.00000
     15      24.3050      0.00000
     16      24.3051      0.00000

 k-point    22 :       0.2500    0.0000    0.2500
  band No.  band energies     occupation 
      1      -5.1081      2.00000
      2       2.2775      2.00000
      3       3.8873      2.00000
      4       3.8873      2.00000
      5       6.8267      0.00000
      6       8.8168      0.00000
      7      11.5179      0.00000
      8      11.5179      0.00000
      9      13.8118      0.00000
     10      14.6901      0.00000
     11      17.0283      0.00000
     12      18.6839      0.00000
     13      18.6839      0.00000
     14      19.3384      0.00000
     15      23.1002      0.00000
     16      23.1002      0.00000

 k-point    23 :       0.3000    0.0000    0.3000
  band No.  band energies     occupation 
      1      -4.6388      2.00000
      2       1.3783      2.00000
      3       3.5460      2.00000
      4       3.5460      2.00000
      5       6.5512      0.00000
      6       8.0897      0.00000
      7      12.4118      0.00000
      8      12.4118      0.00000
      9      14.8733      0.00000
     10      15.2206      0.00000
     11      18.0727      0.00000
     12      19.1825      0.00000
     13      19.1825      0.00000
     14      20.1252      0.00000
     15      22.2145      0.00000
     16      22.2145      0.00000

 k-point    24 :       0.3500    0.0000    0.3500
  band No.  band energies     occupation 
      1      -4.0916      2.00000
      2       0.4858      2.00000
      3       3.2751      2.00000
      4       3.2751      2.00000
      5       6.3581      0.00000
      6       7.4716      0.00000
      7      13.3295      0.00000
      8      13.3295      0.00000
      9      15.8463      0.00000
     10      15.9407      0.00000
     11      18.9687      0.00000
     12      19.0897      0.00000
     13      19.0897      0.00000
     14      21.0564      0.00000
     15      21.5344      0.00000
     16      22.1434      0.00000

 k-point    25 :       0.4000    0.0000    0.4000
  band No.  band energies     occupation 
      1      -3.4710      2.00000
      2      -0.3881      2.00000
      3       3.0792      2.00000
      4       3.0792      2.00000
      5       6.2594      0.00000
      6       6.9803      0.00000
      7      14.2655      0.00000
      8      14.2655      0.00000
      9      16.5664      0.00000
     10      16.9705      0.00000
     11      18.3392      0.00000
     12      18.3392      0.00000
     13      19.4541      0.00000
     14      20.3659      0.00000
     15      22.1348      0.00000
     16      22.9492      0.00000

 k-point    26 :       0.4500    0.0000    0.4500
  band No.  band energies     occupation 
      1      -2.7825      2.00000
      2      -1.2316      2.00000
      3       2.9607      2.00000
      4       2.9607      2.00000
      5       6.2646      0.00000
      6       6.6183      0.00000
      7      15.2003      0.00000
      8      15.2003      0.00000
      9      17.3800      0.00000
     10      17.3995      0.00000
     11      17.3995      0.00000
     12      17.9262      0.00000
     13      19.2818      0.00000
     14      19.3363      0.00000
     15      23.3308      0.00000
     16      24.1637      0.00000

 k-point    27 :       0.5000    0.0000    0.5000
  band No.  band energies     occupation 
      1      -2.0331      2.00000
      2      -2.0331      2.00000
      3       2.9211      2.00000
      4       2.9211      2.00000
      5       6.3818      0.00000
      6       6.3818      0.00000
      7      15.8580      0.00000
      8      15.8580      0.00000
      9      16.7283      0.00000
     10      16.7283      0.00000
     11      18.2857      0.00000
     12      18.2857      0.00000
     13      18.7538      0.00000
     14      18.7538      0.00000
     15      24.4948      0.00000
     16      24.4948      0.00000

 k-point    28 :       0.5000    0.0833    0.5417
  band No.  band energies     occupation 
      1      -2.3215      2.00000
      2      -1.6871      2.00000
      3       2.5719      2.00000
      4       2.8731      2.00000
      5       6.5927      0.00000
      6       6.9879      0.00000
      7      14.7838      0.00000
      8      15.3618      0.00000
      9      16.0016      0.00000
     10      16.6233      0.00000
     11      18.2526      0.00000
     12      19.0098      0.00000
     13      19.3128      0.00000
     14      20.0229      0.00000
     15      23.1692      0.00000
     16      24.2353      0.00000

 k-point    29 :       0.5000    0.1667    0.5833
  band No.  band energies     occupation 
      1      -2.5363      2.00000
      2      -1.3534      2.00000
      3       1.9915      2.00000
      4       2.7912      2.00000
      5       7.2016      0.00000
      6       8.3394      0.00000
      7      12.8567      0.00000
      8      14.3417      0.00000
      9      15.0177      0.00000
     10      16.7168      0.00000
     11      18.1795      0.00000
     12      19.8459      0.00000
     13      20.5462      0.00000
     14      21.5162      0.00000
     15      22.1295      0.00000
     16      23.7788      0.00000

 k-point    30 :       0.5000    0.2500    0.6250
  band No.  band energies     occupation 
      1      -2.7064      2.00000
      2      -1.1461      2.00000
      3       1.6780      2.00000
      4       2.7966      2.00000
      5       8.0872      0.00000
      6       9.9840      0.00000
      7      11.0103      0.00000
      8      13.1676      0.00000
      9      14.1494      0.00000
     10      16.8290      0.00000
     11      17.9651      0.00000
     12      19.9504      0.00000
     13      21.1039      0.00000
     14      21.7401      0.00000
     15      23.1798      0.00000
     16      24.0013      0.00000

 k-point    31 :       0.4583    0.2917    0.6667
  band No.  band energies     occupation 
      1      -2.7203      2.00000
      2      -1.1177      2.00000
      3       1.5839      2.00000
      4       2.7554      2.00000
      5       9.0505      0.00000
      6       9.7609      0.00000
      7      11.2014      0.00000
      8      12.0195      0.00000
      9      14.1075      0.00000
     10      16.3858      0.00000
     11      18.4136      0.00000
     12      19.8216      0.00000
     13      21.1674      0.00000
     14      22.4590      0.00000
     15      22.9309      0.00000
     16      23.9855      0.00000

 k-point    32 :       0.4167    0.3333    0.7083
  band No.  band energies     occupation 
      1      -2.6190      2.00000
      2      -1.2397      2.00000
      3       1.4081      2.00000
      4       3.1512      2.00000
      5       7.6194      0.00000
      6      10.6903      0.00000
      7      11.7385      0.00000
      8      12.5511      0.00000
      9      13.9055      0.00000
     10      15.1937      0.00000
     11      19.6016      0.00000
     12      20.2370      0.00000
     13      21.2218      0.00000
     14      21.8218      0.00000
     15      22.5251      0.00000
     16      24.0000      0.00000

 k-point    33 :       0.3750    0.3750    0.7500
  band No.  band energies     occupation 
      1      -2.4407      2.00000
      2      -1.4432      2.00000
      3       1.4311      2.00000
      4       3.3515      2.00000
      5       6.8828      0.00000
      6       9.8347      0.00000
      7      13.2175      0.00000
      8      13.7448      0.00000
      9      13.9663      0.00000
     10      14.2423      0.00000
     11      20.4119      0.00000
     12      20.6574      0.00000
     13      21.2322      0.00000
     14      21.3869      0.00000
     15      21.5239      0.00000
     16      22.8022      0.00000

 k-point    34 :       0.3438    0.3438    0.6875
  band No.  band energies     occupation 
      1      -2.7761      2.00000
      2      -1.1129      2.00000
      3       1.3132      2.00000
      4       3.5818      2.00000
      5       7.1521      0.00000
      6      11.1050      0.00000
      7      12.4651      0.00000
      8      13.0092      0.00000
      9      13.3555      0.00000
     10      13.5944      0.00000
     11      20.2233      0.00000
     12      20.8012      0.00000
     13      21.2756      0.00000
     14      21.3296      0.00000
     15      22.1028      0.00000
     16      23.8551      0.00000

 k-point    35 :       0.3125    0.3125    0.6250
  band No.  band energies     occupation 
      1      -3.2000      2.00000
      2      -0.7109      2.00000
      3       1.3915      2.00000
      4       3.8504      2.00000
      5       7.4658      0.00000
      6      11.7632      0.00000
      7      11.8985      0.00000
      8      12.7858      0.00000
      9      12.8711      0.00000
     10      13.0212      0.00000
     11      19.5527      0.00000
     12      20.0962      0.00000
     13      21.5746      0.00000
     14      21.8544      0.00000
     15      22.5015      0.00000
     16      22.9249      0.00000

 k-point    36 :       0.2812    0.2812    0.5625
  band No.  band energies     occupation 
      1      -3.6679      2.00000
      2      -0.2384      2.00000
      3       1.6292      2.00000
      4       4.1474      2.00000
      5       7.8093      0.00000
      6      11.1191      0.00000
      7      11.4277      0.00000
      8      12.2794      0.00000
      9      12.5387      0.00000
     10      14.0757      0.00000
     11      18.8883      0.00000
     12      19.4901      0.00000
     13      20.4402      0.00000
     14      22.3853      0.00000
     15      22.6211      0.00000
     16      23.5034      0.00000

 k-point    37 :       0.2500    0.2500    0.5000
  band No.  band energies     occupation 
      1      -4.1399      2.00000
      2       0.3033      2.00000
      3       1.9892      2.00000
      4       4.4595      2.00000
      5       8.1582      0.00000
      6      10.5370      0.00000
      7      10.8548      0.00000
      8      11.8606      0.00000
      9      12.1633      0.00000
     10      15.3505      0.00000
     11      18.2697      0.00000
     12      18.9509      0.00000
     13      19.0823      0.00000
     14      22.3163      0.00000
     15      22.8116      0.00000
     16      23.1667      0.00000

 k-point    38 :       0.2188    0.2188    0.4375
  band No.  band energies     occupation 
      1      -4.5886      2.00000
      2       0.9120      2.00000
      3       2.4426      2.00000
      4       4.7699      2.00000
      5       8.4730      0.00000
      6      10.0196      0.00000
      7      10.3268      0.00000
      8      11.5596      0.00000
      9      11.9125      0.00000
     10      16.2221      0.00000
     11      17.3624      0.00000
     12      17.8567      0.00000
     13      19.1527      0.00000
     14      21.1258      0.00000
     15      22.9322      0.00000
     16      23.7346      0.00000

 k-point    39 :       0.1875    0.1875    0.3750
  band No.  band energies     occupation 
      1      -4.9967      2.00000
      2       1.5848      2.00000
      3       2.9666      2.00000
      4       5.0592      2.00000
      5       8.7007      0.00000
      6       9.5687      0.00000
      7       9.8568      0.00000
      8      11.4042      0.00000
      9      11.8041      0.00000
     10      16.0000      0.00000
     11      16.3236      0.00000
     12      17.3843      0.00000
     13      19.5215      0.00000
     14      20.5557      0.00000
     15      22.4075      0.00000
     16      24.2329      0.00000

 k-point    40 :       0.1562    0.1562    0.3125
  band No.  band energies     occupation 
      1      -5.3534      2.00000
      2       2.3170      2.00000
      3       3.5401      2.00000
      4       5.3086      2.00000
      5       8.8029      0.00000
      6       9.1856      0.00000
      7       9.4463      0.00000
      8      11.3704      0.00000
      9      11.8520      0.00000
     10      14.7444      0.00000
     11      15.9373      0.00000
     12      17.0430      0.00000
     13      18.7591      0.00000
     14      21.3619      0.00000
     15      21.7915      0.00000
     16      24.3652      0.00000

 k-point    41 :       0.1250    0.1250    0.2500
  band No.  band energies     occupation 
      1      -5.6517      2.00000
      2       3.1008      2.00000
      3       4.1388      2.00000
      4       5.5051      2.00000
      5       8.7925      0.00000
      6       8.8712      0.00000
      7       9.0936      0.00000
      8      11.2811      0.00000
      9      12.0593      0.00000
     10      13.7750      0.00000
     11      15.3484      0.00000
     12      16.8164      0.00000
     13      18.0131      0.00000
     14      20.1700      0.00000
     15      23.4241      0.00000
     16      23.7062      0.00000

 k-point    42 :       0.0937    0.0937    0.1875
  band No.  band energies     occupation 
      1      -5.8873      2.00000
      2       3.9209      2.00000
      3       4.7290      2.00000
      4       5.6452      2.00000
      5       8.6261      0.00000
      6       8.7168      0.00000
      7       8.7955      0.00000
      8      10.8219      0.00000
      9      12.4099      0.00000
     10      13.3397      0.00000
     11      14.6892      0.00000
     12      16.7144      0.00000
     13      17.4798      0.00000
     14      19.0108      0.00000
     15      22.7134      0.00000
     16      25.1392      0.00000

 k-point    43 :       0.0625    0.0625    0.1250
  band No.  band energies     occupation 
      1      -6.0573      2.00000
      2       4.7416      2.00000
      3       5.2590      2.00000
      4       5.7343      2.00000
      5       8.4508      0.00000
      6       8.5522      0.00000
      7       8.6080      0.00000
      8      10.0489      0.00000
      9      12.8551      0.00000
     10      13.3372      0.00000
     11      14.0847      0.00000
     12      16.7357      0.00000
     13      17.1377      0.00000
     14      17.9806      0.00000
     15      21.7938      0.00000
     16      26.8179      0.00000

 k-point    44 :       0.0312    0.0312    0.0625
  band No.  band energies     occupation 
      1      -6.1599      2.00000
      2       5.4625      2.00000
      3       5.6489      2.00000
      4       5.7823      2.00000
      5       8.3455      0.00000
      6       8.3777      0.00000
      7       8.4491      0.00000
      8       9.3658      0.00000
      9      13.2843      0.00000
     10      13.4361      0.00000
     11      13.6580      0.00000
     12      16.8311      0.00000
     13      16.9483      0.00000
     14      17.2009      0.00000
     15      21.1286      0.00000
     16      28.2433      0.00000

 k-point    45 :      -0.0000   -0.0000   -0.0000
  band No.  band energies     occupation 
      1      -6.1942      2.00000
      2       5.7972      2.00000
      3       5.7972      2.00000
      4       5.7972      2.00000
      5       8.3104      0.00000
      6       8.3104      0.00000
      7       8.3104      0.00000
      8       9.1195      0.00000
      9      13.4809      0.00000
     10      13.4809      0.00000
     11      13.5034      0.00000
     12      16.8877      0.00000
     13      16.8877      0.00000
     14      16.8877      0.00000
     15      20.8784      0.00000
     16      28.7946      0.00000

 k-point    46 :       0.0417    0.0417    0.0417
  band No.  band energies     occupation 
      1      -6.1714      2.00000
      2       5.5370      2.00000
      3       5.7576      2.00000
      4       5.7576      2.00000
      5       8.3608      0.00000
      6       8.3680      0.00000
      7       8.3680      0.00000
      8       9.2861      0.00000
      9      13.3978      0.00000
     10      13.3978      0.00000
     11      13.6072      0.00000
     12      16.7891      0.00000
     13      17.0446      0.00000
     14      17.0446      0.00000
     15      21.0462      0.00000
     16      28.5313      0.00000

 k-point    47 :       0.0833    0.0833    0.0833
  band No.  band energies     occupation 
      1      -6.1029      2.00000
      2       4.9286      2.00000
      3       5.6511      2.00000
      4       5.6511      2.00000
      5       8.3505      0.00000
      6       8.5243      0.00000
      7       8.5243      0.00000
      8       9.7845      0.00000
      9      13.1977      0.00000
     10      13.1977      0.00000
     11      13.8991      0.00000
     12      16.5503      0.00000
     13      17.4696      0.00000
     14      17.4696      0.00000
     15      21.5004      0.00000
     16      27.8332      0.00000

 k-point    48 :       0.1250    0.1250    0.1250
  band No.  band energies     occupation 
      1      -5.9893      2.00000
      2       4.1834      2.00000
      3       5.5042      2.00000
      4       5.5042      2.00000
      5       8.2396      0.00000
      6       8.7387      0.00000
      7       8.7387      0.00000
      8      10.4648      0.00000
      9      12.9757      0.00000
     10      12.9757      0.00000
     11      14.3107      0.00000
     12      16.3030      0.00000
     13      18.0781      0.00000
     14      18.0781      0.00000
     15      22.1456      0.00000
     16      26.7952      0.00000

 k-point    49 :       0.1667    0.1667    0.1667
  band No.  band energies     occupation 
      1      -5.8316      2.00000
      2       3.3969      2.00000
      3       5.3416      2.00000
      4       5.3416      2.00000
      5       8.0840      0.00000
      6       8.9620      0.00000
      7       8.9620      0.00000
      8      11.2003      0.00000
      9      12.8160      0.00000
     10      12.8160      0.00000
     11      14.6629      0.00000
     12      16.2639      0.00000
     13      18.8026      0.00000
     14      18.8026      0.00000
     15      22.8883      0.00000
     16      25.6715      0.00000

 k-point    50 :       0.2083    0.2083    0.2083
  band No.  band energies     occupation 
      1      -5.6313      2.00000
      2       2.6099      2.00000
      3       5.1803      2.00000
      4       5.1803      2.00000
      5       7.9167      0.00000
      6       9.1449      0.00000
      7       9.1449      0.00000
      8      11.9380      0.00000
      9      12.7841      0.00000
     10      12.7841      0.00000
     11      14.7147      0.00000
     12      16.6851      0.00000
     13      19.5881      0.00000
     14      19.5881      0.00000
     15      23.5661      0.00000
     16      24.5603      0.00000

 k-point    51 :       0.2500    0.2500    0.2500
  band No.  band energies     occupation 
      1      -5.3910      2.00000
      2       1.8436      2.00000
      3       5.0311      2.00000
      4       5.0311      2.00000
      5       7.7554      0.00000
      6       9.2514      0.00000
      7       9.2514      0.00000
      8      12.6431      0.00000
      9      12.9233      0.00000
     10      12.9233      0.00000
     11      14.5761      0.00000
     12      17.4609      0.00000
     13      20.3464      0.00000
     14      20.3464      0.00000
     15      23.5619      0.00000
     16      23.5621      0.00000

 k-point    52 :       0.2917    0.2917    0.2917
  band No.  band energies     occupation 
      1      -5.1149      2.00000
      2       1.1123      2.00000
      3       4.9000      2.00000
      4       4.9000      2.00000
      5       7.6101      0.00000
      6       9.2760      0.00000
      7       9.2760      0.00000
      8      13.2333      0.00000
      9      13.2423      0.00000
     10      13.2423      0.00000
     11      14.5028      0.00000
     12      18.3751      0.00000
     13      20.7709      0.00000
     14      20.7709      0.00000
     15      22.9866      0.00000
     16      22.9868      0.00000

 k-point    53 :       0.3333    0.3333    0.3333
  band No.  band energies     occupation 
      1      -4.8103      2.00000
      2       0.4296      2.00000
      3       4.7905      2.00000
      4       4.7905      2.00000
      5       7.4867      0.00000
      6       9.2420      0.00000
      7       9.2420      0.00000
      8      13.5017      0.00000
      9      13.7187      0.00000
     10      13.7187      0.00000
     11      14.7692      0.00000
     12      19.2529      0.00000
     13      20.3610      0.00000
     14      20.3610      0.00000
     15      22.5324      0.00000
     16      23.3349      0.00000

 k-point    54 :       0.3750    0.3750    0.3750
  band No.  band energies     occupation 
      1      -4.4909      2.00000
      2      -0.1871      2.00000
      3       4.7043      2.00000
      4       4.7043      2.00000
      5       7.3884      0.00000
      6       9.1819      0.00000
      7       9.1819      0.00000
      8      13.4791      0.00000
      9      14.3190      0.00000
     10      14.3190      0.00000
     11      15.3644      0.00000
     12      19.5036      0.00000
     13      19.5036      0.00000
     14      19.7484      0.00000
     15      22.3738      0.00000
     16      24.2171      0.00000

 k-point    55 :       0.4167    0.4167    0.4167
  band No.  band energies     occupation 
      1      -4.1837      2.00000
      2      -0.7082      2.00000
      3       4.6425      2.00000
      4       4.6425      2.00000
      5       7.3173      0.00000
      6       9.1223      0.00000
      7       9.1223      0.00000
      8      13.3940      0.00000
      9      15.0114      0.00000
     10      15.0114      0.00000
     11      16.0531      0.00000
     12      18.5697      0.00000
     13      18.5697      0.00000
     14      19.5430      0.00000
     15      22.9991      0.00000
     16      25.2573      0.00000

 k-point    56 :       0.4583    0.4583    0.4583
  band No.  band energies     occupation 
      1      -3.9411      2.00000
      2      -1.0797      2.00000
      3       4.6053      2.00000
      4       4.6053      2.00000
      5       7.2743      0.00000
      6       9.0803      0.00000
      7       9.0803      0.00000
      8      13.3287      0.00000
      9      15.7577      0.00000
     10      15.7577      0.00000
     11      16.6943      0.00000
     12      17.6695      0.00000
     13      17.6695      0.00000
     14      19.0285      0.00000
     15      24.0696      0.00000
     16      26.3451      0.00000

 k-point    57 :       0.5000    0.5000    0.5000
  band No.  band energies     occupation 
      1      -3.8440      2.00000
      2      -1.2198      2.00000
      3       4.5929      2.00000
      4       4.5929      2.00000
      5       7.2599      0.00000
      6       9.0654      0.00000
      7       9.0654      0.00000
      8      13.3052      0.00000
      9      16.3036      0.00000
     10      16.3036      0.00000
     11      17.0169      0.00000
     12      17.0714      0.00000
     13      17.0714      0.00000
     14      18.7300      0.00000
     15      25.0672      0.00000
     16      25.6455      0.00000

 k-point    58 :       0.5312    0.4375    0.5312
  band No.  band energies     occupation 
      1      -3.7415      2.00000
      2      -1.1658      2.00000
      3       3.8185      2.00000
      4       4.4140      2.00000
      5       7.8454      0.00000
      6       9.0313      0.00000
      7       9.4524      0.00000
      8      13.6805      0.00000
      9      14.8886      0.00000
     10      15.6708      0.00000
     11      16.8094      0.00000
     12      17.8304      0.00000
     13      18.4269      0.00000
     14      19.4931      0.00000
     15      24.8958      0.00000
     16      25.3690      0.00000

 k-point    59 :       0.5625    0.3750    0.5625
  band No.  band energies     occupation 
      1      -3.4377      2.00000
      2      -1.0490      2.00000
      3       2.5531      2.00000
      4       4.0243      2.00000
      5       7.7262      0.00000
      6      10.1376      0.00000
      7      10.4616      0.00000
      8      12.8325      0.00000
      9      14.6069      0.00000
     10      14.9198      0.00000
     11      17.1449      0.00000
     12      18.9309      0.00000
     13      19.6097      0.00000
     14      21.2992      0.00000
     15      23.9435      0.00000
     16      25.0262      0.00000

 k-point    60 :       0.5938    0.3125    0.5938
  band No.  band energies     occupation 
      1      -2.9534      2.00000
      2      -1.0712      2.00000
      3       1.6009      2.00000
      4       3.6333      2.00000
      5       7.2316      0.00000
      6      11.1353      0.00000
      7      11.8557      0.00000
      8      12.0370      0.00000
      9      14.3418      0.00000
     10      14.3475      0.00000
     11      18.8986      0.00000
     12      19.9991      0.00000
     13      20.4125      0.00000
     14      22.6285      0.00000
     15      23.3354      0.00000
     16      23.4441      0.00000

 k-point    61 :       0.6250    0.2500    0.6250
  band No.  band energies     occupation 
      1      -2.4407      2.00000
      2      -1.4432      2.00000
      3       1.4311      2.00000
      4       3.3515      2.00000
      5       6.8828      0.00000
      6       9.8347      0.00000
      7      13.2175      0.00000
      8      13.7448      0.00000
      9      13.9663      0.00000
     10      14.2423      0.00000
     11      20.4119      0.00000
     12      20.6574      0.00000
     13      21.2322      0.00000
     14      21.3869      0.00000
     15      21.5239      0.00000
     16      22.8022      0.00000

 k-point    62 :       0.5625    0.2500    0.6875
  band No.  band energies     occupation 
      1      -2.2957      2.00000
      2      -1.5116      2.00000
      3       1.5477      2.00000
      4       2.6657      2.00000
      5       8.0189      0.00000
      6       9.9247      0.00000
      7      11.9010      0.00000
      8      12.1505      0.00000
      9      15.0434      0.00000
     10      16.0280      0.00000
     11      18.8833      0.00000
     12      20.0678      0.00000
     13      21.2606      0.00000
     14      22.2168      0.00000
     15      22.8708      0.00000
     16      23.4721      0.00000

 k-point    63 :       0.5000    0.2500    0.7500
  band No.  band energies     occupation 
      1      -1.8628      2.00000
      2      -1.8628      2.00000
      3       1.8863      2.00000
      4       1.8863      2.00000
      5       9.9664      0.00000
      6       9.9664      0.00000
      7      10.7386      0.00000
      8      10.7386      0.00000
      9      16.3298      0.00000
     10      16.3298      0.00000
     11      18.7804      0.00000
     12      18.7804      0.00000
     13      22.0751      0.00000
     14      22.0751      0.00000
     15      24.2120      0.00000
     16      24.2121      0.00000

 k-point    64 :       0.5000    0.3000    0.7000
  band No.  band energies     occupation 
      1      -2.5095      2.00000
      2      -1.2836      2.00000
      3       1.5992      2.00000
      4       2.5052      2.00000
      5       9.3682      0.00000
      6       9.7113      0.00000
      7      11.1140      0.00000
      8      11.5752      0.00000
      9      14.6528      0.00000
     10      16.9283      0.00000
     11      17.9744      0.00000
     12      20.0779      0.00000
     13      20.9090      0.00000
     14      22.8643      0.00000
     15      23.2088      0.00000
     16      24.0102      0.00000

 k-point    65 :       0.5000    0.3500    0.6500
  band No.  band energies     occupation 
      1      -3.0731      2.00000
      2      -1.0214      2.00000
      3       1.9141      2.00000
      4       3.2466      2.00000
      5       8.9386      0.00000
      6       9.0815      0.00000
      7      12.2029      0.00000
      8      12.6010      0.00000
      9      12.6300      0.00000
     10      16.6789      0.00000
     11      17.5707      0.00000
     12      18.6256      0.00000
     13      21.8923      0.00000
     14      22.1999      0.00000
     15      22.9460      0.00000
     16      23.8073      0.00000

 k-point    66 :       0.5000    0.4000    0.6000
  band No.  band energies     occupation 
      1      -3.4963      2.00000
      2      -1.0647      2.00000
      3       2.8027      2.00000
      4       3.9423      2.00000
      5       8.5134      0.00000
      6       8.7990      0.00000
      7      10.7581      0.00000
      8      13.5056      0.00000
      9      13.5711      0.00000
     10      15.8037      0.00000
     11      17.2908      0.00000
     12      17.7338      0.00000
     13      20.3585      0.00000
     14      20.6090      0.00000
     15      24.4726      0.00000
     16      24.4778      0.00000

 k-point    67 :       0.5000    0.4500    0.5500
  band No.  band energies     occupation 
      1      -3.7565      2.00000
      2      -1.1734      2.00000
      3       3.9193      2.00000
      4       4.4253      2.00000
      5       7.8310      0.00000
      6       8.9312      0.00000
      7       9.4515      0.00000
      8      13.6520      0.00000
      9      14.9771      0.00000
     10      15.7102      0.00000
     11      17.1153      0.00000
     12      17.3527      0.00000
     13      18.4969      0.00000
     14      19.3553      0.00000
     15      24.9425      0.00000
     16      25.3816      0.00000

 k-point    68 :       0.5000    0.5000    0.5000
  band No.  band energies     occupation 
      1      -3.8440      2.00000
      2      -1.2198      2.00000
      3       4.5929      2.00000
      4       4.5929      2.00000
      5       7.2599      0.00000
      6       9.0654      0.00000
      7       9.0654      0.00000
      8      13.3052      0.00000
      9      16.3036      0.00000
     10      16.3036      0.00000
     11      17.0169      0.00000
     12      17.0714      0.00000
     13      17.0714      0.00000
     14      18.7300      0.00000
     15      25.0672      0.00000
     16      25.6455      0.00000

 k-point    69 :       0.4688    0.4688    0.5625
  band No.  band energies     occupation 
      1      -3.7415      2.00000
      2      -1.1658      2.00000
      3       3.8185      2.00000
      4       4.4140      2.00000
      5       7.8454      0.00000
      6       9.0313      0.00000
      7       9.4524      0.00000
      8      13.6805      0.00000
      9      14.8886      0.00000
     10      15.6708      0.00000
     11      16.8094      0.00000
     12      17.8304      0.00000
     13      18.4269      0.00000
     14      19.4931      0.00000
     15      24.8958      0.00000
     16      25.3690      0.00000

 k-point    70 :       0.4375    0.4375    0.6250
  band No.  band energies     occupation 
      1      -3.4377      2.00000
      2      -1.0490      2.00000
      3       2.5531      2.00000
      4       4.0243      2.00000
      5       7.7262      0.00000
      6      10.1376      0.00000
      7      10.4616      0.00000
      8      12.8325      0.00000
      9      14.6069      0.00000
     10      14.9198      0.00000
     11      17.1449      0.00000
     12      18.9309      0.00000
     13      19.6097      0.00000
     14      21.2992      0.00000
     15      23.9435      0.00000
     16      25.0264      0.00000

 k-point    71 :       0.4062    0.4062    0.6875
  band No.  band energies     occupation 
      1      -2.9534      2.00000
      2      -1.0712      2.00000
      3       1.6009      2.00000
      4       3.6333      2.00000
      5       7.2316      0.00000
      6      11.1353      0.00000
      7      11.8557      0.00000
      8      12.0370      0.00000
      9      14.3418      0.00000
     10      14.3475      0.00000
     11      18.8986      0.00000
     12      19.9991      0.00000
     13      20.4125      0.00000
     14      22.6285      0.00000
     15      23.3355      0.00000
     16      23.4441      0.00000


--------------------------------------------------------------------------------------------------------


 soft charge-density along one line, spin component           1
         0         1         2         3         4         5         6         7         8         9
 total charge-density along one line
 
 pseudopotential strength for first ion, spin component:           1
 18.401  25.671  -0.000   0.000  -0.000  -0.000   0.000  -0.000
 25.671  35.818  -0.000   0.000  -0.000  -0.000   0.000  -0.000
 -0.000  -0.000   4.177   0.000  -0.000   7.781   0.000  -0.000
  0.000   0.000   0.000   4.177   0.000   0.000   7.781   0.000
 -0.000  -0.000  -0.000   0.000   4.177  -0.000   0.000   7.781
 -0.000  -0.000   7.781   0.000  -0.000  14.507   0.000  -0.000
  0.000   0.000   0.000   7.781   0.000   0.000  14.507   0.000
 -0.000  -0.000  -0.000   0.000   7.781  -0.000   0.000  14.507
 total augmentation occupancy for first ion, spin component:           1
  2.000   0.000   0.000   0.000   0.000   0.000   0.000   0.000
  0.000   0.000   0.000   0.000   0.000   0.000   0.000   0.000
  0.000   0.000   0.667   0.000   0.000   0.000   0.000   0.000
  0.000   0.000   0.000   0.667   0.000   0.000   0.000   0.000
  0.000   0.000   0.000   0.000   0.667   0.000   0.000   0.000
  0.000   0.000   0.000   0.000   0.000   0.000   0.000   0.000
  0.000   0.000   0.000   0.000   0.000   0.000   0.000   0.000
  0.000   0.000   0.000   0.000   0.000   0.000   0.000   0.000


------------------------ aborting loop because EDIFF is reached ----------------------------------------


 


 total charge     
 
# of ion     s       p       d       tot
----------------------------------------
  1        0.750   0.942   0.000   1.692
  2        0.750   0.942   0.000   1.692
------------------------------------------------
tot        1.499   1.884   0.000   3.383
 
    CHARGE:  cpu time    0.0160: real time    0.0133
    FORLOC:  cpu time    0.0000: real time    0.0005
    FORNL :  cpu time    0.0240: real time    0.0256
    STRESS:  cpu time    0.3360: real time    0.3373
    FORCOR:  cpu time    0.0080: real time    0.0090
    FORHAR:  cpu time    0.0040: real time    0.0021
    OFIELD:  cpu time    0.0000: real time    0.0000

  FORCE on cell =-STRESS in cart. coord.  units (eV):
  Direction    XX          YY          ZZ          XY          YZ          ZX
  --------------------------------------------------------------------------------------
  Alpha Z     3.36229     3.36229     3.36229
  Ewald     -76.17385   -76.17385   -76.17385     0.00000     0.00000    -0.00000
  Hartree     4.89108     4.89108     4.89108     0.00000    -0.00000    -0.00000
  E(xc)     -25.55844   -25.55844   -25.55844     0.00000    -0.00000    -0.00000
  Local     -29.07265   -29.07265   -29.07265     0.00001    -0.00001    -0.00001
  n-local    74.01393    79.73116    78.91474    -1.09020    -2.44510    -0.71045
  augment   -11.48829   -11.48829   -11.48829    -0.00001     0.00001     0.00001
  Kinetic    54.87764    56.36176    58.46051    -0.89961    -3.53462    -0.91368
  Fock        0.00000     0.00000     0.00000     0.00000     0.00000     0.00000
  -------------------------------------------------------------------------------------
  Total       0.08006     0.08006     0.08006     0.00000     0.00000     0.00000
  in kB       3.20311     3.20311     3.20311     0.00000     0.00000     0.00000
  external pressure =        3.20 kB  Pullay stress =        0.00 kB


 VOLUME and BASIS-vectors are now :
 -----------------------------------------------------------------------------
  energy-cutoff  :      500.00
  volume of cell :       40.05
      direct lattice vectors                 reciprocal lattice vectors
     2.715500000  2.715500000  0.000000000     0.184128153  0.184128153  0.184128153
     2.715500000  0.000000000 -2.715500000     0.184128153 -0.184128153 -0.184128153
     0.000000000  2.715500000 -2.715500000    -0.184128153  0.184128153 -0.184128153

  length of vectors
     3.840296929  3.840296929  3.840296929     0.318919316  0.318919316  0.318919316


 FORCES acting on ions
    electron-ion (+dipol)            ewald-force                    non-local-force                 convergence-correction
 -----------------------------------------------------------------------------------------------
   -.162E-07 -.128E-07 0.128E-07   -.234E-14 -.182E-14 0.397E-14   -.104E-16 0.278E-16 -.694E-17   0.105E-08 0.105E-08 -.105E-08
   0.162E-07 0.128E-07 -.128E-07   0.175E-14 0.186E-14 -.406E-14   -.694E-17 -.347E-16 0.694E-17   -.105E-08 -.105E-08 0.105E-08
 -----------------------------------------------------------------------------------------------
   -.296E-15 0.304E-13 -.775E-13   -.584E-15 0.335E-16 -.952E-16   -.173E-16 -.694E-17 0.000E+00   0.191E-14 0.267E-14 -.118E-14
 
 
 POSITION                                       TOTAL-FORCE (eV/Angst)
 -----------------------------------------------------------------------------------
      0.00000      0.00000      0.00000        -0.000000     -0.000000      0.000000
      1.35775      1.35775     -1.35775         0.000000      0.000000     -0.000000
 -----------------------------------------------------------------------------------
    total drift:                                0.000000      0.000000     -0.000000


--------------------------------------------------------------------------------------------------------



  FREE ENERGIE OF THE ION-ELECTRON SYSTEM (eV)
  ---------------------------------------------------
  free  energy   TOTEN  =       -11.46751466 eV

  energy  without entropy=      -11.46751466  energy(sigma->0) =      -11.46751466
 


--------------------------------------------------------------------------------------------------------


    POTLOK:  cpu time    0.0080: real time    0.0112


--------------------------------------------------------------------------------------------------------




--------------------------------------------------------------------------------------------------------


 writing wavefunctions
     LOOP+:  cpu time  144.2080: real time  234.9501
    4ORBIT:  cpu time    0.0000: real time    0.0000
 


 total charge     
 
# of ion     s       p       d       tot
----------------------------------------
  1        0.750   0.942   0.000   1.692
  2        0.750   0.942   0.000   1.692
------------------------------------------------
tot        1.499   1.884   0.000   3.383
 

 total amount of memory used by VASP on root node    37988. kBytes
========================================================================

   base      :      30000. kBytes
   nonl-proj :       4759. kBytes
   fftplans  :        517. kBytes
   grid      :       1507. kBytes
   one-center:          6. kBytes
   wavefun   :       1199. kBytes
 
  
  
 General timing and accounting informations for this job:
 ========================================================
  
                  Total CPU time used (sec):      175.364
                            User time (sec):      170.820
                          System time (sec):        4.544
                         Elapsed time (sec):      283.128
  
                   Maximum memory used (kb):       63452.
                   Average memory used (kb):           0.
  
                          Minor page faults:         7384
                          Major page faults:            0
                 Voluntary context switches:           24
