PROCAR new format
# of k-points:   71         # of bands:  16         # of ions:   2

 k-point    1 :    0.00000000 0.00000000 0.00000000     weight = 0.00462963

band   1 # energy   -6.19423977 # occ.  2.00000000
 
ion      s      p      d    tot
  1  0.213  0.000  0.000  0.213
  2  0.213  0.000  0.000  0.213
tot  0.426  0.000  0.000  0.426
 
band   2 # energy    5.79717461 # occ.  2.00000000
 
ion      s      p      d    tot
  1  0.000  0.216  0.000  0.216
  2  0.000  0.216  0.000  0.216
tot  0.000  0.433  0.000  0.433
 
band   3 # energy    5.79717470 # occ.  2.00000000
 
ion      s      p      d    tot
  1  0.000  0.216  0.000  0.216
  2  0.000  0.216  0.000  0.216
tot  0.000  0.433  0.000  0.433
 
band   4 # energy    5.79717470 # occ.  2.00000000
 
ion      s      p      d    tot
  1  0.000  0.216  0.000  0.216
  2  0.000  0.216  0.000  0.216
tot  0.000  0.433  0.000  0.433
 
band   5 # energy    8.31036629 # occ.  0.00000000
 
ion      s      p      d    tot
  1  0.000  0.151  0.000  0.151
  2  0.000  0.151  0.000  0.151
tot  0.000  0.303  0.000  0.303
 
band   6 # energy    8.31036633 # occ.  0.00000000
 
ion      s      p      d    tot
  1  0.000  0.151  0.000  0.151
  2  0.000  0.151  0.000  0.151
tot  0.000  0.303  0.000  0.303
 
band   7 # energy    8.31036633 # occ.  0.00000000
 
ion      s      p      d    tot
  1  0.000  0.151  0.000  0.151
  2  0.000  0.151  0.000  0.151
tot  0.000  0.303  0.000  0.303
 
band   8 # energy    9.11948526 # occ.  0.00000000
 
ion      s      p      d    tot
  1  0.359  0.000  0.000  0.359
  2  0.359  0.000  0.000  0.359
tot  0.717  0.000  0.000  0.717
 
band   9 # energy   13.48093623 # occ.  0.00000000
 
ion      s      p      d    tot
  1  0.000  0.000  0.000  0.000
  2  0.000  0.000  0.000  0.000
tot  0.000  0.000  0.000  0.000
 
band  10 # energy   13.48093623 # occ.  0.00000000
 
ion      s      p      d    tot
  1  0.000  0.000  0.000  0.000
  2  0.000  0.000  0.000  0.000
tot  0.000  0.000  0.000  0.000
 
band  11 # energy   13.50344960 # occ.  0.00000000
 
ion      s      p      d    tot
  1  0.103  0.000  0.000  0.103
  2  0.103  0.000  0.000  0.103
tot  0.206  0.000  0.000  0.206
 
band  12 # energy   16.88765864 # occ.  0.00000000
 
ion      s      p      d    tot
  1  0.000  0.040  0.000  0.040
  2  0.000  0.040  0.000  0.040
tot  0.000  0.080  0.000  0.080
 
band  13 # energy   16.88765866 # occ.  0.00000000
 
ion      s      p      d    tot
  1  0.000  0.040  0.000  0.040
  2  0.000  0.040  0.000  0.040
tot  0.000  0.080  0.000  0.080
 
band  14 # energy   16.88765866 # occ.  0.00000000
 
ion      s      p      d    tot
  1  0.000  0.040  0.000  0.040
  2  0.000  0.040  0.000  0.040
tot  0.000  0.080  0.000  0.080
 
band  15 # energy   20.87843576 # occ.  0.00000000
 
ion      s      p      d    tot
  1  0.041  0.000  0.000  0.041
  2  0.041  0.000  0.000  0.041
tot  0.082  0.000  0.000  0.082
 
band  16 # energy   28.79526619 # occ.  0.00000000
 
ion      s      p      d    tot
  1  0.000  0.010  0.000  0.010
  2  0.000  0.010  0.000  0.010
tot  0.000  0.021  0.000  0.021
 

 k-point    2 :    0.16666667 0.00000000 0.00000000     weight = 0.03703704

band   1 # energy   -5.83159181 # occ.  2.00000000
 
ion      s      p      d    tot
  1  0.211  0.004  0.000  0.215
  2  0.211  0.004  0.000  0.215
tot  0.422  0.008  0.000  0.430
 
band   2 # energy    3.39694593 # occ.  2.00000000
 
ion      s      p      d    tot
  1  0.076  0.143  0.000  0.219
  2  0.076  0.143  0.000  0.219
tot  0.152  0.285  0.000  0.437
 
band   3 # energy    5.34156201 # occ.  2.00000000
 
ion      s      p      d    tot
  1  0.000  0.213  0.000  0.213
  2  0.000  0.213  0.000  0.213
tot  0.000  0.426  0.000  0.426
 
band   4 # energy    5.34156209 # occ.  2.00000000
 
ion      s      p      d    tot
  1  0.000  0.213  0.000  0.213
  2  0.000  0.213  0.000  0.213
tot  0.000  0.426  0.000  0.426
 
band   5 # energy    8.08404576 # occ.  0.00000000
 
ion      s      p      d    tot
  1  0.127  0.073  0.000  0.199
  2  0.127  0.073  0.000  0.199
tot  0.253  0.145  0.000  0.399
 
band   6 # energy    8.96204434 # occ.  0.00000000
 
ion      s      p      d    tot
  1  0.000  0.154  0.000  0.154
  2  0.000  0.154  0.000  0.154
tot  0.000  0.308  0.000  0.308
 
band   7 # energy    8.96204438 # occ.  0.00000000
 
ion      s      p      d    tot
  1  0.000  0.154  0.000  0.154
  2  0.000  0.154  0.000  0.154
tot  0.000  0.308  0.000  0.308
 
band   8 # energy   11.20034123 # occ.  0.00000000
 
ion      s      p      d    tot
  1  0.171  0.117  0.000  0.289
  2  0.171  0.117  0.000  0.289
tot  0.343  0.235  0.000  0.578
 
band   9 # energy   12.81597434 # occ.  0.00000000
 
ion      s      p      d    tot
  1  0.000  0.004  0.000  0.004
  2  0.000  0.004  0.000  0.004
tot  0.000  0.008  0.000  0.008
 
band  10 # energy   12.81597434 # occ.  0.00000000
 
ion      s      p      d    tot
  1  0.000  0.004  0.000  0.004
  2  0.000  0.004  0.000  0.004
tot  0.000  0.008  0.000  0.008
 
band  11 # energy   14.66291581 # occ.  0.00000000
 
ion      s      p      d    tot
  1  0.060  0.044  0.000  0.104
  2  0.060  0.044  0.000  0.104
tot  0.120  0.088  0.000  0.208
 
band  12 # energy   16.26385449 # occ.  0.00000000
 
ion      s      p      d    tot
  1  0.031  0.023  0.000  0.054
  2  0.031  0.023  0.000  0.054
tot  0.062  0.046  0.000  0.108
 
band  13 # energy   18.80255405 # occ.  0.00000000
 
ion      s      p      d    tot
  1  0.000  0.034  0.000  0.034
  2  0.000  0.034  0.000  0.034
tot  0.000  0.069  0.000  0.069
 
band  14 # energy   18.80255406 # occ.  0.00000000
 
ion      s      p      d    tot
  1  0.000  0.034  0.000  0.034
  2  0.000  0.034  0.000  0.034
tot  0.000  0.069  0.000  0.069
 
band  15 # energy   22.88831102 # occ.  0.00000000
 
ion      s      p      d    tot
  1  0.020  0.026  0.000  0.046
  2  0.020  0.026  0.000  0.046
tot  0.041  0.051  0.000  0.092
 
band  16 # energy   25.67151175 # occ.  0.00000000
 
ion      s      p      d    tot
  1  0.000  0.046  0.000  0.046
  2  0.000  0.046  0.000  0.046
tot  0.000  0.092  0.000  0.092
 

 k-point    3 :    0.33333333 0.00000000 0.00000000     weight = 0.03703704

band   1 # energy   -4.81030299 # occ.  2.00000000
 
ion      s      p      d    tot
  1  0.210  0.013  0.000  0.223
  2  0.210  0.013  0.000  0.223
tot  0.421  0.025  0.000  0.446
 
band   2 # energy    0.42955250 # occ.  2.00000000
 
ion      s      p      d    tot
  1  0.104  0.103  0.000  0.208
  2  0.104  0.103  0.000  0.208
tot  0.209  0.207  0.000  0.416
 
band   3 # energy    4.79045955 # occ.  2.00000000
 
ion      s      p      d    tot
  1  0.000  0.216  0.000  0.216
  2  0.000  0.216  0.000  0.216
tot  0.000  0.432  0.000  0.432
 
band   4 # energy    4.79045962 # occ.  2.00000000
 
ion      s      p      d    tot
  1  0.000  0.216  0.000  0.216
  2  0.000  0.216  0.000  0.216
tot  0.000  0.432  0.000  0.432
 
band   5 # energy    7.48668630 # occ.  0.00000000
 
ion      s      p      d    tot
  1  0.174  0.030  0.000  0.205
  2  0.174  0.030  0.000  0.205
tot  0.348  0.061  0.000  0.409
 
band   6 # energy    9.24199804 # occ.  0.00000000
 
ion      s      p      d    tot
  1  0.000  0.114  0.000  0.114
  2  0.000  0.114  0.000  0.114
tot  0.000  0.228  0.000  0.228
 
band   7 # energy    9.24199808 # occ.  0.00000000
 
ion      s      p      d    tot
  1  0.000  0.114  0.000  0.114
  2  0.000  0.114  0.000  0.114
tot  0.000  0.228  0.000  0.228
 
band   8 # energy   13.50170360 # occ.  0.00000000
 
ion      s      p      d    tot
  1  0.013  0.116  0.000  0.128
  2  0.013  0.116  0.000  0.128
tot  0.025  0.231  0.000  0.256
 
band   9 # energy   13.71870338 # occ.  0.00000000
 
ion      s      p      d    tot
  1  0.000  0.036  0.000  0.036
  2  0.000  0.036  0.000  0.036
tot  0.000  0.072  0.000  0.072
 
band  10 # energy   13.71870340 # occ.  0.00000000
 
ion      s      p      d    tot
  1  0.000  0.036  0.000  0.036
  2  0.000  0.036  0.000  0.036
tot  0.000  0.072  0.000  0.072
 
band  11 # energy   14.76918157 # occ.  0.00000000
 
ion      s      p      d    tot
  1  0.112  0.065  0.000  0.177
  2  0.112  0.065  0.000  0.177
tot  0.225  0.130  0.000  0.355
 
band  12 # energy   19.25288257 # occ.  0.00000000
 
ion      s      p      d    tot
  1  0.019  0.161  0.000  0.180
  2  0.019  0.161  0.000  0.180
tot  0.038  0.321  0.000  0.360
 
band  13 # energy   20.36099794 # occ.  0.00000000
 
ion      s      p      d    tot
  1  0.000  0.058  0.000  0.058
  2  0.000  0.058  0.000  0.058
tot  0.000  0.115  0.000  0.115
 
band  14 # energy   20.36099795 # occ.  0.00000000
 
ion      s      p      d    tot
  1  0.000  0.058  0.000  0.058
  2  0.000  0.058  0.000  0.058
tot  0.000  0.115  0.000  0.115
 
band  15 # energy   22.53236202 # occ.  0.00000000
 
ion      s      p      d    tot
  1  0.057  0.063  0.000  0.120
  2  0.057  0.063  0.000  0.120
tot  0.114  0.127  0.000  0.241
 
band  16 # energy   23.33486480 # occ.  0.00000000
 
ion      s      p      d    tot
  1  0.000  0.031  0.000  0.031
  2  0.000  0.031  0.000  0.031
tot  0.000  0.062  0.000  0.062
 

 k-point    4 :    0.50000000 0.00000000 0.00000000     weight = 0.01851852

band   1 # energy   -3.84404860 # occ.  2.00000000
 
ion      s      p      d    tot
  1  0.225  0.014  0.000  0.239
  2  0.225  0.014  0.000  0.239
tot  0.451  0.027  0.000  0.478
 
band   2 # energy   -1.21982803 # occ.  2.00000000
 
ion      s      p      d    tot
  1  0.097  0.094  0.000  0.191
  2  0.097  0.094  0.000  0.191
tot  0.194  0.188  0.000  0.382
 
band   3 # energy    4.59286046 # occ.  2.00000000
 
ion      s      p      d    tot
  1  0.000  0.219  0.000  0.219
  2  0.000  0.219  0.000  0.219
tot  0.000  0.437  0.000  0.437
 
band   4 # energy    4.59286054 # occ.  2.00000000
 
ion      s      p      d    tot
  1  0.000  0.219  0.000  0.219
  2  0.000  0.219  0.000  0.219
tot  0.000  0.437  0.000  0.437
 
band   5 # energy    7.25993997 # occ.  0.00000000
 
ion      s      p      d    tot
  1  0.188  0.018  0.000  0.206
  2  0.188  0.018  0.000  0.206
tot  0.376  0.036  0.000  0.412
 
band   6 # energy    9.06541933 # occ.  0.00000000
 
ion      s      p      d    tot
  1  0.000  0.094  0.000  0.094
  2  0.000  0.094  0.000  0.094
tot  0.000  0.187  0.000  0.187
 
band   7 # energy    9.06541936 # occ.  0.00000000
 
ion      s      p      d    tot
  1  0.000  0.094  0.000  0.094
  2  0.000  0.094  0.000  0.094
tot  0.000  0.187  0.000  0.187
 
band   8 # energy   13.30524758 # occ.  0.00000000
 
ion      s      p      d    tot
  1  0.006  0.050  0.000  0.057
  2  0.006  0.050  0.000  0.057
tot  0.013  0.101  0.000  0.114
 
band   9 # energy   16.30359608 # occ.  0.00000000
 
ion      s      p      d    tot
  1  0.000  0.000  0.000  0.000
  2  0.000  0.000  0.000  0.000
tot  0.000  0.001  0.000  0.001
 
band  10 # energy   16.30359610 # occ.  0.00000000
 
ion      s      p      d    tot
  1  0.000  0.000  0.000  0.000
  2  0.000  0.000  0.000  0.000
tot  0.000  0.001  0.000  0.001
 
band  11 # energy   17.01686295 # occ.  0.00000000
 
ion      s      p      d    tot
  1  0.039  0.155  0.000  0.193
  2  0.039  0.155  0.000  0.193
tot  0.077  0.309  0.000  0.386
 
band  12 # energy   17.07137284 # occ.  0.00000000
 
ion      s      p      d    tot
  1  0.000  0.117  0.000  0.117
  2  0.000  0.117  0.000  0.117
tot  0.000  0.235  0.000  0.235
 
band  13 # energy   17.07137285 # occ.  0.00000000
 
ion      s      p      d    tot
  1  0.000  0.117  0.000  0.117
  2  0.000  0.117  0.000  0.117
tot  0.000  0.235  0.000  0.235
 
band  14 # energy   18.73003340 # occ.  0.00000000
 
ion      s      p      d    tot
  1  0.087  0.212  0.000  0.299
  2  0.087  0.212  0.000  0.299
tot  0.174  0.424  0.000  0.599
 
band  15 # energy   25.06720073 # occ.  0.00000000
 
ion      s      p      d    tot
  1  0.051  0.012  0.000  0.063
  2  0.051  0.012  0.000  0.063
tot  0.103  0.024  0.000  0.126
 
band  16 # energy   25.64547074 # occ.  0.00000000
 
ion      s      p      d    tot
  1  0.013  0.070  0.000  0.084
  2  0.013  0.070  0.000  0.084
tot  0.027  0.141  0.000  0.167
 

 k-point    5 :    0.16666667 0.16666667 0.00000000     weight = 0.02777778

band   1 # energy   -5.70826617 # occ.  2.00000000
 
ion      s      p      d    tot
  1  0.210  0.005  0.000  0.216
  2  0.210  0.005  0.000  0.216
tot  0.421  0.011  0.000  0.431
 
band   2 # energy    3.75601860 # occ.  2.00000000
 
ion      s      p      d    tot
  1  0.123  0.128  0.000  0.251
  2  0.123  0.128  0.000  0.251
tot  0.246  0.257  0.000  0.502
 
band   3 # energy    4.58837956 # occ.  2.00000000
 
ion      s      p      d    tot
  1  0.000  0.201  0.000  0.201
  2  0.000  0.201  0.000  0.201
tot  0.000  0.402  0.000  0.402
 
band   4 # energy    4.58837961 # occ.  2.00000000
 
ion      s      p      d    tot
  1  0.000  0.201  0.000  0.201
  2  0.000  0.201  0.000  0.201
tot  0.000  0.402  0.000  0.402
 
band   5 # energy    7.41728049 # occ.  0.00000000
 
ion      s      p      d    tot
  1  0.030  0.101  0.000  0.132
  2  0.030  0.101  0.000  0.132
tot  0.061  0.203  0.000  0.263
 
band   6 # energy   10.01930213 # occ.  0.00000000
 
ion      s      p      d    tot
  1  0.112  0.064  0.000  0.176
  2  0.112  0.064  0.000  0.176
tot  0.225  0.128  0.000  0.352
 
band   7 # energy   10.10582536 # occ.  0.00000000
 
ion      s      p      d    tot
  1  0.000  0.166  0.000  0.166
  2  0.000  0.166  0.000  0.166
tot  0.000  0.333  0.000  0.333
 
band   8 # energy   10.10582540 # occ.  0.00000000
 
ion      s      p      d    tot
  1  0.000  0.166  0.000  0.166
  2  0.000  0.166  0.000  0.166
tot  0.000  0.333  0.000  0.333
 
band   9 # energy   12.34780449 # occ.  0.00000000
 
ion      s      p      d    tot
  1  0.123  0.037  0.000  0.160
  2  0.123  0.037  0.000  0.160
tot  0.246  0.073  0.000  0.320
 
band  10 # energy   14.01887440 # occ.  0.00000000
 
ion      s      p      d    tot
  1  0.000  0.000  0.000  0.000
  2  0.000  0.000  0.000  0.000
tot  0.000  0.000  0.000  0.000
 
band  11 # energy   15.33742545 # occ.  0.00000000
 
ion      s      p      d    tot
  1  0.062  0.060  0.000  0.123
  2  0.062  0.060  0.000  0.123
tot  0.124  0.121  0.000  0.245
 
band  12 # energy   17.73024617 # occ.  0.00000000
 
ion      s      p      d    tot
  1  0.000  0.034  0.000  0.034
  2  0.000  0.034  0.000  0.034
tot  0.000  0.069  0.000  0.069
 
band  13 # energy   17.73024618 # occ.  0.00000000
 
ion      s      p      d    tot
  1  0.000  0.034  0.000  0.034
  2  0.000  0.034  0.000  0.034
tot  0.000  0.069  0.000  0.069
 
band  14 # energy   18.28945467 # occ.  0.00000000
 
ion      s      p      d    tot
  1  0.017  0.008  0.000  0.025
  2  0.017  0.008  0.000  0.025
tot  0.033  0.017  0.000  0.050
 
band  15 # energy   23.97186460 # occ.  0.00000000
 
ion      s      p      d    tot
  1  0.013  0.030  0.000  0.043
  2  0.013  0.030  0.000  0.043
tot  0.027  0.059  0.000  0.086
 
band  16 # energy   25.17974208 # occ.  0.00000000
 
ion      s      p      d    tot
  1  0.000  0.081  0.000  0.081
  2  0.000  0.081  0.000  0.081
tot  0.000  0.163  0.000  0.163
 

 k-point    6 :    0.33333333 0.16666667 0.00000000     weight = 0.11111111

band   1 # energy   -4.88915077 # occ.  2.00000000
 
ion      s      p      d    tot
  1  0.208  0.013  0.000  0.221
  2  0.208  0.013  0.000  0.221
tot  0.416  0.027  0.000  0.443
 
band   2 # energy    1.34319457 # occ.  2.00000000
 
ion      s      p      d    tot
  1  0.126  0.104  0.000  0.230
  2  0.126  0.104  0.000  0.230
tot  0.253  0.208  0.000  0.461
 
band   3 # energy    3.77834923 # occ.  2.00000000
 
ion      s      p      d    tot
  1  0.034  0.168  0.000  0.203
  2  0.034  0.168  0.000  0.203
tot  0.069  0.336  0.000  0.405
 
band   4 # energy    4.03341441 # occ.  2.00000000
 
ion      s      p      d    tot
  1  0.000  0.201  0.000  0.201
  2  0.000  0.201  0.000  0.201
tot  0.000  0.403  0.000  0.403
 
band   5 # energy    7.67394064 # occ.  0.00000000
 
ion      s      p      d    tot
  1  0.040  0.087  0.000  0.128
  2  0.040  0.087  0.000  0.128
tot  0.081  0.174  0.000  0.255
 
band   6 # energy    9.78538904 # occ.  0.00000000
 
ion      s      p      d    tot
  1  0.067  0.078  0.000  0.145
  2  0.067  0.078  0.000  0.145
tot  0.134  0.155  0.000  0.289
 
band   7 # energy   10.24890791 # occ.  0.00000000
 
ion      s      p      d    tot
  1  0.028  0.101  0.000  0.129
  2  0.028  0.101  0.000  0.129
tot  0.056  0.203  0.000  0.259
 
band   8 # energy   10.82634877 # occ.  0.00000000
 
ion      s      p      d    tot
  1  0.000  0.140  0.000  0.140
  2  0.000  0.140  0.000  0.140
tot  0.000  0.279  0.000  0.279
 
band   9 # energy   14.81968946 # occ.  0.00000000
 
ion      s      p      d    tot
  1  0.000  0.023  0.000  0.023
  2  0.000  0.023  0.000  0.023
tot  0.000  0.046  0.000  0.046
 
band  10 # energy   14.88325280 # occ.  0.00000000
 
ion      s      p      d    tot
  1  0.090  0.134  0.000  0.224
  2  0.090  0.134  0.000  0.224
tot  0.180  0.269  0.000  0.448
 
band  11 # energy   16.03614630 # occ.  0.00000000
 
ion      s      p      d    tot
  1  0.025  0.054  0.000  0.079
  2  0.025  0.054  0.000  0.079
tot  0.049  0.108  0.000  0.158
 
band  12 # energy   18.50558767 # occ.  0.00000000
 
ion      s      p      d    tot
  1  0.021  0.090  0.000  0.111
  2  0.021  0.090  0.000  0.111
tot  0.042  0.179  0.000  0.221
 
band  13 # energy   19.46439832 # occ.  0.00000000
 
ion      s      p      d    tot
  1  0.000  0.043  0.000  0.043
  2  0.000  0.043  0.000  0.043
tot  0.000  0.086  0.000  0.086
 
band  14 # energy   21.00617706 # occ.  0.00000000
 
ion      s      p      d    tot
  1  0.018  0.031  0.000  0.049
  2  0.018  0.031  0.000  0.049
tot  0.035  0.063  0.000  0.098
 
band  15 # energy   21.69611978 # occ.  0.00000000
 
ion      s      p      d    tot
  1  0.000  0.050  0.000  0.050
  2  0.000  0.050  0.000  0.050
tot  0.000  0.101  0.000  0.101
 
band  16 # energy   22.68396428 # occ.  0.00000000
 
ion      s      p      d    tot
  1  0.017  0.055  0.000  0.072
  2  0.017  0.055  0.000  0.072
tot  0.034  0.109  0.000  0.144
 

 k-point    7 :    0.50000000 0.16666667 0.00000000     weight = 0.11111111

band   1 # energy   -3.68690671 # occ.  2.00000000
 
ion      s      p      d    tot
  1  0.217  0.019  0.000  0.236
  2  0.217  0.019  0.000  0.236
tot  0.434  0.039  0.000  0.473
 
band   2 # energy   -0.84366700 # occ.  2.00000000
 
ion      s      p      d    tot
  1  0.120  0.087  0.000  0.207
  2  0.120  0.087  0.000  0.207
tot  0.240  0.175  0.000  0.415
 
band   3 # energy    2.98744466 # occ.  2.00000000
 
ion      s      p      d    tot
  1  0.043  0.155  0.000  0.198
  2  0.043  0.155  0.000  0.198
tot  0.086  0.310  0.000  0.396
 
band   4 # energy    4.00606333 # occ.  2.00000000
 
ion      s      p      d    tot
  1  0.000  0.206  0.000  0.206
  2  0.000  0.206  0.000  0.206
tot  0.000  0.413  0.000  0.413
 
band   5 # energy    7.74396501 # occ.  0.00000000
 
ion      s      p      d    tot
  1  0.062  0.058  0.000  0.121
  2  0.062  0.058  0.000  0.121
tot  0.125  0.116  0.000  0.241
 
band   6 # energy    9.84565669 # occ.  0.00000000
 
ion      s      p      d    tot
  1  0.062  0.099  0.000  0.161
  2  0.062  0.099  0.000  0.161
tot  0.124  0.198  0.000  0.322
 
band   7 # energy   10.35777744 # occ.  0.00000000
 
ion      s      p      d    tot
  1  0.000  0.107  0.000  0.107
  2  0.000  0.107  0.000  0.107
tot  0.000  0.214  0.000  0.214
 
band   8 # energy   12.13637922 # occ.  0.00000000
 
ion      s      p      d    tot
  1  0.021  0.103  0.000  0.123
  2  0.021  0.103  0.000  0.123
tot  0.042  0.205  0.000  0.247
 
band   9 # energy   15.07108386 # occ.  0.00000000
 
ion      s      p      d    tot
  1  0.004  0.083  0.000  0.087
  2  0.004  0.083  0.000  0.087
tot  0.008  0.166  0.000  0.175
 
band  10 # energy   16.22118642 # occ.  0.00000000
 
ion      s      p      d    tot
  1  0.000  0.035  0.000  0.035
  2  0.000  0.035  0.000  0.035
tot  0.000  0.069  0.000  0.069
 
band  11 # energy   17.45152334 # occ.  0.00000000
 
ion      s      p      d    tot
  1  0.029  0.089  0.000  0.118
  2  0.029  0.089  0.000  0.118
tot  0.058  0.179  0.000  0.237
 
band  12 # energy   17.57618826 # occ.  0.00000000
 
ion      s      p      d    tot
  1  0.000  0.079  0.000  0.079
  2  0.000  0.079  0.000  0.079
tot  0.000  0.158  0.000  0.158
 
band  13 # energy   18.40217542 # occ.  0.00000000
 
ion      s      p      d    tot
  1  0.064  0.151  0.000  0.215
  2  0.064  0.151  0.000  0.215
tot  0.128  0.301  0.000  0.430
 
band  14 # energy   21.84338353 # occ.  0.00000000
 
ion      s      p      d    tot
  1  0.003  0.139  0.000  0.141
  2  0.003  0.139  0.000  0.141
tot  0.005  0.278  0.000  0.283
 
band  15 # energy   23.66883770 # occ.  0.00000000
 
ion      s      p      d    tot
  1  0.038  0.037  0.000  0.076
  2  0.038  0.037  0.000  0.076
tot  0.077  0.075  0.000  0.152
 
band  16 # energy   24.70229002 # occ.  0.00000000
 
ion      s      p      d    tot
  1  0.000  0.025  0.000  0.025
  2  0.000  0.025  0.000  0.025
tot  0.000  0.050  0.000  0.050
 

 k-point    8 :   -0.33333333 0.16666667 0.00000000     weight = 0.11111111

band   1 # energy   -4.07632065 # occ.  2.00000000
 
ion      s      p      d    tot
  1  0.212  0.018  0.000  0.230
  2  0.212  0.018  0.000  0.230
tot  0.423  0.037  0.000  0.460
 
band   2 # energy   -0.23845915 # occ.  2.00000000
 
ion      s      p      d    tot
  1  0.125  0.090  0.000  0.215
  2  0.125  0.090  0.000  0.215
tot  0.250  0.180  0.000  0.430
 
band   3 # energy    2.71137088 # occ.  2.00000000
 
ion      s      p      d    tot
  1  0.035  0.154  0.000  0.190
  2  0.035  0.154  0.000  0.190
tot  0.071  0.309  0.000  0.380
 
band   4 # energy    4.49097053 # occ.  2.00000000
 
ion      s      p      d    tot
  1  0.000  0.213  0.000  0.213
  2  0.000  0.213  0.000  0.213
tot  0.000  0.427  0.000  0.427
 
band   5 # energy    8.16751823 # occ.  0.00000000
 
ion      s      p      d    tot
  1  0.080  0.063  0.000  0.143
  2  0.080  0.063  0.000  0.143
tot  0.161  0.125  0.000  0.286
 
band   6 # energy    9.84272260 # occ.  0.00000000
 
ion      s      p      d    tot
  1  0.047  0.099  0.000  0.145
  2  0.047  0.099  0.000  0.145
tot  0.093  0.197  0.000  0.290
 
band   7 # energy    9.96573614 # occ.  0.00000000
 
ion      s      p      d    tot
  1  0.000  0.115  0.000  0.115
  2  0.000  0.115  0.000  0.115
tot  0.000  0.231  0.000  0.231
 
band   8 # energy   13.00060242 # occ.  0.00000000
 
ion      s      p      d    tot
  1  0.039  0.126  0.000  0.165
  2  0.039  0.126  0.000  0.165
tot  0.078  0.252  0.000  0.330
 
band   9 # energy   13.05675070 # occ.  0.00000000
 
ion      s      p      d    tot
  1  0.000  0.039  0.000  0.039
  2  0.000  0.039  0.000  0.039
tot  0.000  0.078  0.000  0.078
 
band  10 # energy   15.08953557 # occ.  0.00000000
 
ion      s      p      d    tot
  1  0.008  0.109  0.000  0.117
  2  0.008  0.109  0.000  0.117
tot  0.015  0.219  0.000  0.234
 
band  11 # energy   17.12757914 # occ.  0.00000000
 
ion      s      p      d    tot
  1  0.040  0.020  0.000  0.061
  2  0.040  0.020  0.000  0.061
tot  0.081  0.041  0.000  0.122
 
band  12 # energy   18.54908167 # occ.  0.00000000
 
ion      s      p      d    tot
  1  0.031  0.115  0.000  0.146
  2  0.031  0.115  0.000  0.146
tot  0.062  0.230  0.000  0.291
 
band  13 # energy   20.57432225 # occ.  0.00000000
 
ion      s      p      d    tot
  1  0.009  0.120  0.000  0.129
  2  0.009  0.120  0.000  0.129
tot  0.019  0.239  0.000  0.258
 
band  14 # energy   21.14915208 # occ.  0.00000000
 
ion      s      p      d    tot
  1  0.000  0.050  0.000  0.050
  2  0.000  0.050  0.000  0.050
tot  0.000  0.101  0.000  0.101
 
band  15 # energy   22.02433042 # occ.  0.00000000
 
ion      s      p      d    tot
  1  0.030  0.082  0.000  0.113
  2  0.030  0.082  0.000  0.113
tot  0.061  0.165  0.000  0.226
 
band  16 # energy   23.61234474 # occ.  0.00000000
 
ion      s      p      d    tot
  1  0.011  0.048  0.000  0.059
  2  0.011  0.048  0.000  0.059
tot  0.021  0.097  0.000  0.118
 

 k-point    9 :   -0.16666667 0.16666667 0.00000000     weight = 0.05555556

band   1 # energy   -5.24068266 # occ.  2.00000000
 
ion      s      p      d    tot
  1  0.209  0.010  0.000  0.219
  2  0.209  0.010  0.000  0.219
tot  0.418  0.020  0.000  0.438
 
band   2 # energy    2.06674795 # occ.  2.00000000
 
ion      s      p      d    tot
  1  0.122  0.113  0.000  0.235
  2  0.122  0.113  0.000  0.235
tot  0.245  0.226  0.000  0.471
 
band   3 # energy    3.34480034 # occ.  2.00000000
 
ion      s      p      d    tot
  1  0.012  0.168  0.000  0.180
  2  0.012  0.168  0.000  0.180
tot  0.024  0.337  0.000  0.361
 
band   4 # energy    5.23085778 # occ.  2.00000000
 
ion      s      p      d    tot
  1  0.000  0.221  0.000  0.221
  2  0.000  0.221  0.000  0.221
tot  0.000  0.441  0.000  0.441
 
band   5 # energy    8.78320303 # occ.  0.00000000
 
ion      s      p      d    tot
  1  0.095  0.091  0.000  0.186
  2  0.095  0.091  0.000  0.186
tot  0.190  0.182  0.000  0.373
 
band   6 # energy    9.30573486 # occ.  0.00000000
 
ion      s      p      d    tot
  1  0.000  0.150  0.000  0.150
  2  0.000  0.150  0.000  0.150
tot  0.000  0.299  0.000  0.299
 
band   7 # energy    9.57662177 # occ.  0.00000000
 
ion      s      p      d    tot
  1  0.031  0.121  0.000  0.152
  2  0.031  0.121  0.000  0.152
tot  0.062  0.243  0.000  0.304
 
band   8 # energy   11.37466494 # occ.  0.00000000
 
ion      s      p      d    tot
  1  0.070  0.094  0.000  0.164
  2  0.070  0.094  0.000  0.164
tot  0.140  0.188  0.000  0.328
 
band   9 # energy   11.81817165 # occ.  0.00000000
 
ion      s      p      d    tot
  1  0.000  0.001  0.000  0.001
  2  0.000  0.001  0.000  0.001
tot  0.000  0.002  0.000  0.002
 
band  10 # energy   15.14192179 # occ.  0.00000000
 
ion      s      p      d    tot
  1  0.063  0.086  0.000  0.148
  2  0.063  0.086  0.000  0.148
tot  0.125  0.171  0.000  0.297
 
band  11 # energy   16.09715947 # occ.  0.00000000
 
ion      s      p      d    tot
  1  0.028  0.101  0.000  0.129
  2  0.028  0.101  0.000  0.129
tot  0.056  0.202  0.000  0.258
 
band  12 # energy   17.14443082 # occ.  0.00000000
 
ion      s      p      d    tot
  1  0.019  0.003  0.000  0.023
  2  0.019  0.003  0.000  0.023
tot  0.038  0.007  0.000  0.045
 
band  13 # energy   19.04224383 # occ.  0.00000000
 
ion      s      p      d    tot
  1  0.011  0.030  0.000  0.041
  2  0.011  0.030  0.000  0.041
tot  0.022  0.060  0.000  0.082
 
band  14 # energy   21.29702830 # occ.  0.00000000
 
ion      s      p      d    tot
  1  0.015  0.061  0.000  0.076
  2  0.015  0.061  0.000  0.076
tot  0.029  0.123  0.000  0.152
 
band  15 # energy   21.74101080 # occ.  0.00000000
 
ion      s      p      d    tot
  1  0.000  0.031  0.000  0.031
  2  0.000  0.031  0.000  0.031
tot  0.000  0.063  0.000  0.063
 
band  16 # energy   24.39912474 # occ.  0.00000000
 
ion      s      p      d    tot
  1  0.001  0.106  0.000  0.107
  2  0.001  0.106  0.000  0.107
tot  0.003  0.212  0.000  0.214
 

 k-point   10 :    0.33333333 0.33333333 0.00000000     weight = 0.02777778

band   1 # energy   -4.28243885 # occ.  2.00000000
 
ion      s      p      d    tot
  1  0.203  0.021  0.000  0.224
  2  0.203  0.021  0.000  0.224
tot  0.407  0.042  0.000  0.449
 
band   2 # energy    0.78187023 # occ.  2.00000000
 
ion      s      p      d    tot
  1  0.175  0.079  0.000  0.254
  2  0.175  0.079  0.000  0.254
tot  0.349  0.158  0.000  0.507
 
band   3 # energy    3.35728127 # occ.  2.00000000
 
ion      s      p      d    tot
  1  0.000  0.197  0.000  0.197
  2  0.000  0.197  0.000  0.197
tot  0.000  0.395  0.000  0.395
 
band   4 # energy    3.35728132 # occ.  2.00000000
 
ion      s      p      d    tot
  1  0.000  0.197  0.000  0.197
  2  0.000  0.197  0.000  0.197
tot  0.000  0.395  0.000  0.395
 
band   5 # energy    6.41247535 # occ.  0.00000000
 
ion      s      p      d    tot
  1  0.052  0.056  0.000  0.108
  2  0.052  0.056  0.000  0.108
tot  0.104  0.112  0.000  0.216
 
band   6 # energy    7.66397230 # occ.  0.00000000
 
ion      s      p      d    tot
  1  0.043  0.030  0.000  0.073
  2  0.043  0.030  0.000  0.073
tot  0.087  0.060  0.000  0.146
 
band   7 # energy   13.02127264 # occ.  0.00000000
 
ion      s      p      d    tot
  1  0.000  0.166  0.000  0.166
  2  0.000  0.166  0.000  0.166
tot  0.000  0.332  0.000  0.332
 
band   8 # energy   13.02127268 # occ.  0.00000000
 
ion      s      p      d    tot
  1  0.000  0.166  0.000  0.166
  2  0.000  0.166  0.000  0.166
tot  0.000  0.332  0.000  0.332
 
band   9 # energy   15.58723485 # occ.  0.00000000
 
ion      s      p      d    tot
  1  0.135  0.140  0.000  0.275
  2  0.135  0.140  0.000  0.275
tot  0.270  0.280  0.000  0.550
 
band  10 # energy   15.62719467 # occ.  0.00000000
 
ion      s      p      d    tot
  1  0.000  0.000  0.000  0.000
  2  0.000  0.000  0.000  0.000
tot  0.000  0.000  0.000  0.000
 
band  11 # energy   18.70062844 # occ.  0.00000000
 
ion      s      p      d    tot
  1  0.007  0.165  0.000  0.172
  2  0.007  0.165  0.000  0.172
tot  0.014  0.331  0.000  0.344
 
band  12 # energy   19.21454394 # occ.  0.00000000
 
ion      s      p      d    tot
  1  0.000  0.045  0.000  0.045
  2  0.000  0.045  0.000  0.045
tot  0.000  0.090  0.000  0.090
 
band  13 # energy   19.21454395 # occ.  0.00000000
 
ion      s      p      d    tot
  1  0.000  0.045  0.000  0.045
  2  0.000  0.045  0.000  0.045
tot  0.000  0.090  0.000  0.090
 
band  14 # energy   20.72933053 # occ.  0.00000000
 
ion      s      p      d    tot
  1  0.005  0.003  0.000  0.008
  2  0.005  0.003  0.000  0.008
tot  0.010  0.005  0.000  0.015
 
band  15 # energy   21.94197797 # occ.  0.00000000
 
ion      s      p      d    tot
  1  0.000  0.000  0.000  0.000
  2  0.000  0.000  0.000  0.000
tot  0.000  0.000  0.000  0.000
 