       N       E                     dE             d eps       ncg     rms          ort
SDA:   1     0.818179836476E+02    0.81818E+02    0.00000E+00  6048   0.161E+03 0.000E+00
