       N       E                     dE             d eps       ncg     rms          rms(c)
DAV:   1    -0.549805363347E+01   -0.54981E+01   -0.29234E-01   768   0.374E+00    0.156E+00
DAV:   2    -0.548323338662E+01    0.14820E-01   -0.61046E-02   768   0.181E+00    0.339E-01
DAV:   3    -0.548260152990E+01    0.63186E-03   -0.28197E-03   936   0.336E-01    0.805E-02
DAV:   4    -0.548257678209E+01    0.24748E-04   -0.17525E-04   984   0.420E-02    0.210E-02
DAV:   5    -0.548257844872E+01   -0.16666E-05   -0.40590E-06   840   0.101E-02    0.571E-03
DAV:   6    -0.548257930549E+01   -0.85677E-06   -0.76709E-07  1032   0.563E-03
   1 F= -.54825793E+01 E0= -.54825793E+01  d E =-.548258E+01
       N       E                     dE             d eps       ncg     rms          rms(c)
DAV:   1    -0.549792171305E+01   -0.15343E-01   -0.34235E-01   768   0.395E+00    0.892E-01
DAV:   2    -0.548459639982E+01    0.13325E-01   -0.43395E-02   768   0.151E+00    0.286E-01
DAV:   3    -0.548325505166E+01    0.13413E-02   -0.31788E-03  1032   0.319E-01    0.230E-01
DAV:   4    -0.548303391587E+01    0.22114E-03   -0.51769E-04   984   0.647E-02    0.568E-02
DAV:   5    -0.548302715010E+01    0.67658E-05   -0.23889E-05   864   0.236E-02    0.160E-02
DAV:   6    -0.548302760231E+01   -0.45221E-06   -0.22698E-06  1056   0.818E-03
   2 F= -.54830276E+01 E0= -.54830276E+01  d E =-.448297E-03
       N       E                     dE             d eps       ncg     rms          rms(c)
DAV:   1    -0.548362272692E+01   -0.59558E-03   -0.13042E-02   768   0.766E-01    0.171E-01
DAV:   2    -0.548310870124E+01    0.51403E-03   -0.17107E-03   768   0.300E-01    0.544E-02
DAV:   3    -0.548305961588E+01    0.49085E-04   -0.11966E-04  1032   0.608E-02    0.432E-02
DAV:   4    -0.548305388038E+01    0.57355E-05   -0.19524E-05   984   0.130E-02    0.109E-02
DAV:   5    -0.548305417422E+01   -0.29384E-06   -0.68098E-07   744   0.453E-03
   3 F= -.54830542E+01 E0= -.54830542E+01  d E =-.474869E-03
