 vasp.5.4.1 24Jun15 (build Nov 25 2015 16:01:35) complex                        
  
 executed on         CrayXC-Intel date 2016.05.06  09:33:02
 running on   24 total cores
 distrk:  each k-point on   24 cores,    1 groups
 distr:  one band on NCORES_PER_BAND=   1 cores,   24 groups


--------------------------------------------------------------------------------------------------------


 INCAR:
 POTCAR:    PAW_PBE Cd 06Sep2000                  
 POTCAR:    PAW_PBE Te 08Apr2002                  

 ----------------------------------------------------------------------------- 
|                                                                             |
|           W    W    AA    RRRRR   N    N  II  N    N   GGGG   !!!           |
|           W    W   A  A   R    R  NN   N  II  NN   N  G    G  !!!           |
|           W    W  A    A  R    R  N N  N  II  N N  N  G       !!!           |
|           W WW W  AAAAAA  RRRRR   N  N N  II  N  N N  G  GGG   !            |
|           WW  WW  A    A  R   R   N   NN  II  N   NN  G    G                |
|           W    W  A    A  R    R  N    N  II  N    N   GGGG   !!!           |
|                                                                             |
|      For optimal performance we recommend to set                            |
|        NCORE= 4 - approx SQRT( number of cores)                             |
|      NCORE specifies how many cores store one orbital (NPAR=cpu/NCORE).     |
|      This setting can  greatly improve the performance of VASP for DFT.     |
|      The default, NPAR=number of cores might be grossly inefficient         |
|      on modern multi-core architectures or massively parallel machines.     |
|      Do your own testing !!!!                                               |
|      Unfortunately you need to use the default for GW and RPA calculations. |
|      (for HF NCORE is supported but not extensively tested yet)             |
|                                                                             |
 ----------------------------------------------------------------------------- 

 POTCAR:    PAW_PBE Cd 06Sep2000                  
   VRHFIN =Cd : s2 d10                                                          
   LEXCH  = PE                                                                  
   EATOM  =  1293.1815 eV,   95.0462 Ry                                         
                                                                                
   TITEL  = PAW_PBE Cd 06Sep2000                                                
   LULTRA =        F    use ultrasoft PP ?                                      
   IUNSCR =        1    unscreen: 0-lin 1-nonlin 2-no                           
   RPACOR =    2.000    partial core radius                                     
   POMASS =  112.411; ZVAL   =   12.000    mass and valenz                      
   RCORE  =    2.300    outmost cutoff radius                                   
   RWIGS  =    2.980; RWIGS  =    1.577    wigner-seitz radius (au A)           
   ENMAX  =  274.336; ENMIN  =  205.752 eV                                      
   RCLOC  =    2.054    cutoff for local pot                                    
   LCOR   =        T    correct aug charges                                     
   LPAW   =        T    paw PP                                                  
   EAUG   =  456.106                                                            
   DEXC   =    0.000                                                            
   RMAX   =    2.358    core radius for proj-oper                               
   RAUG   =    1.300    factor for augmentation sphere                          
   RDEP   =    2.450    radius for radial grids                                 
   RDEPT  =    1.955    core radius for aug-charge                              
                                                                                
   Atomic configuration                                                         
   12 entries                                                                   
     n  l   j            E        occ.                                          
     1  0  0.50    -26519.7817   2.0000                                         
     2  0  0.50     -3936.9612   2.0000                                         
     2  1  1.50     -3532.2230   6.0000                                         
     3  0  0.50      -733.7908   2.0000                                         
     3  1  1.50      -601.0792   6.0000                                         
     3  2  2.50      -393.5307  10.0000                                         
     4  0  0.50      -105.8977   2.0000                                         
     4  1  1.50       -66.9488   6.0000                                         
     4  2  2.50       -11.7331  10.0000                                         
     5  0  0.50        -5.6592   2.0000                                         
     5  1  0.50        -1.3606   0.0000                                         
     4  3  2.50        -1.3606   0.0000                                         
   Description                                                                  
     l       E           TYP  RCUT    TYP  RCUT                                 
     2    -11.7331479     23  2.300                                             
     2    -13.0937305     23  2.300                                             
     0     -5.6591502     23  2.300                                             
     0     -1.5561433     23  2.300                                             
     1     -2.7211652     23  2.300                                             
     1      8.3548275     23  2.300                                             
  local pseudopotential read in
  partial core-charges read in
  partial kinetic energy density read in
  atomic valenz-charges read in
  non local Contribution for L=           2  read in
    real space projection operators read in
  non local Contribution for L=           2  read in
    real space projection operators read in
  non local Contribution for L=           0  read in
    real space projection operators read in
  non local Contribution for L=           0  read in
    real space projection operators read in
  non local Contribution for L=           1  read in
    real space projection operators read in
  non local Contribution for L=           1  read in
    real space projection operators read in
    PAW grid and wavefunctions read in
 
   number of l-projection  operators is LMAX  =           6
   number of lm-projection operators is LMMAX =          18
 
 POTCAR:    PAW_PBE Te 08Apr2002                  
   VRHFIN =Te: s2p4                                                             
   LEXCH  = PE                                                                  
   EATOM  =   223.2721 eV,   16.4100 Ry                                         
                                                                                
   TITEL  = PAW_PBE Te 08Apr2002                                                
   LULTRA =        F    use ultrasoft PP ?                                      
   IUNSCR =        1    unscreen: 0-lin 1-nonlin 2-no                           
   RPACOR =    2.200    partial core radius                                     
   POMASS =  127.600; ZVAL   =    6.000    mass and valenz                      
   RCORE  =    2.300    outmost cutoff radius                                   
   RWIGS  =    2.900; RWIGS  =    1.535    wigner-seitz radius (au A)           
   ENMAX  =  174.982; ENMIN  =  131.236 eV                                      
   ICORE  =        3    local potential                                         
   LCOR   =        T    correct aug charges                                     
   LPAW   =        T    paw PP                                                  
   EAUG   =  368.792                                                            
   DEXC   =    0.000                                                            
   RMAX   =    2.345    core radius for proj-oper                               
   RAUG   =    1.300    factor for augmentation sphere                          
   RDEP   =    2.397    radius for radial grids                                 
   RDEPT  =    2.174    core radius for aug-charge                              
                                                                                
   Atomic configuration                                                         
   13 entries                                                                   
     n  l   j            E        occ.                                          
     1  0  0.50    -31621.2075   2.0000                                         
     2  0  0.50     -4848.7941   2.0000                                         
     2  1  1.50     -4352.1960   6.0000                                         
     3  0  0.50      -964.9612   2.0000                                         
     3  1  1.50      -803.6179   6.0000                                         
     3  2  2.50      -559.8710  10.0000                                         
     4  0  0.50      -164.3522   2.0000                                         
     4  1  1.50      -114.3756   6.0000                                         
     4  2  2.50       -41.6483  10.0000                                         
     5  0  0.50       -15.1072   2.0000                                         
     5  1  0.50        -5.9526   4.0000                                         
     5  2  1.50        -5.4423   0.0000                                         
     4  3  2.50        -5.4423   0.0000                                         
   Description                                                                  
     l       E           TYP  RCUT    TYP  RCUT                                 
     0    -15.1072389     23  2.300                                             
     0    -16.4678215     23  2.300                                             
     1     -5.9526306     23  2.300                                             
     1     -2.4873968     23  2.300                                             
     2     -5.4423304     23  2.300                                             
     3     -1.3605826     23  2.300                                             
  local pseudopotential read in
  partial core-charges read in
  partial kinetic energy density read in
  atomic valenz-charges read in
  non local Contribution for L=           0  read in
    real space projection operators read in
  non local Contribution for L=           0  read in
    real space projection operators read in
  non local Contribution for L=           1  read in
    real space projection operators read in
  non local Contribution for L=           1  read in
    real space projection operators read in
  non local Contribution for L=           2  read in
    real space projection operators read in
    PAW grid and wavefunctions read in
 
   number of l-projection  operators is LMAX  =           5
   number of lm-projection operators is LMMAX =          13
 

 ----------------------------------------------------------------------------- 
|                                                                             |
|  ADVICE TO THIS USER RUNNING 'VASP/VAMP'   (HEAR YOUR MASTER'S VOICE ...):  |
|                                                                             |
|      You enforced a specific xc-type in the INCAR file,                     |
|      a different type was found on the POTCAR file                          |
|          I HOPE YOU KNOW, WHAT YOU ARE  DOING                               |
|                                                                             |
 ----------------------------------------------------------------------------- 

  PAW_PBE Cd 06Sep2000                  :
 energy of atom  1       EATOM=-1293.1815
 kinetic energy error for atom=    0.0063 (will be added to EATOM!!)
  PAW_PBE Te 08Apr2002                  :
 energy of atom  2       EATOM= -223.2721
 kinetic energy error for atom=    0.0007 (will be added to EATOM!!)
 
 
 POSCAR: CdTe (ICSD, 295K, Rabadanov 2001)       
  positions in direct lattice
  velocities in cartesian coordinates
 exchange correlation table for  LEXCH =       14
   RHO(1)=    0.500       N(1)  =     2000
   RHO(2)=  100.500       N(2)  =     4000
 


--------------------------------------------------------------------------------------------------------


 ion  position               nearest neighbor table
   1  0.000  0.000  0.000-   2 2.81   2 2.81   2 2.81   2 2.81
   2  0.250  0.250  0.250-   1 2.81   1 2.81   1 2.81   1 2.81
 
  LATTYP: Found a face centered cubic cell.
 ALAT       =     6.4827000000
  
  Lattice vectors:
  
 A1 = (   3.2413500000,   3.2413500000,   0.0000000000)
 A2 = (   3.2413500000,   0.0000000000,  -3.2413500000)
 A3 = (   0.0000000000,   3.2413500000,  -3.2413500000)


Analysis of symmetry for initial positions (statically):
=====================================================================
 Subroutine PRICEL returns:
 Original cell was already a primitive cell.
 

 Routine SETGRP: Setting up the symmetry group for a 
 face centered cubic supercell.


 Subroutine GETGRP returns: Found 24 space group operations
 (whereof 24 operations were pure point group operations)
 out of a pool of 48 trial point group operations.


The static configuration has the point symmetry T_d .


Analysis of symmetry for dynamics (positions and initial velocities):
=====================================================================
 Subroutine PRICEL returns:
 Original cell was already a primitive cell.
 

 Routine SETGRP: Setting up the symmetry group for a 
 face centered cubic supercell.


 Subroutine GETGRP returns: Found 24 space group operations
 (whereof 24 operations were pure point group operations)
 out of a pool of 48 trial point group operations.


The dynamic configuration has the point symmetry T_d .


 Subroutine INISYM returns: Found 24 space group operations
 (whereof 24 operations are pure point group operations),
 and found     1 'primitive' translations

 
 
 KPOINTS: Automatic mesh                          

Automatic generation of k-mesh.
Space group operators:
 irot       det(A)        alpha          n_x          n_y          n_z        tau_x        tau_y        tau_z
    1     1.000000     0.000000     1.000000     0.000000     0.000000     0.000000     0.000000     0.000000
    2     1.000000   120.000000    -0.577350    -0.577350     0.577350     0.000000     0.000000     0.000000
    3     1.000000   120.000000     0.577350     0.577350    -0.577350     0.000000     0.000000     0.000000
    4    -1.000000    90.000000    -1.000000     0.000000     0.000000     0.000000     0.000000     0.000000
    5    -1.000000   180.000000     0.707107     0.707107     0.000000     0.000000     0.000000     0.000000
    6    -1.000000    90.000000     0.000000     1.000000     0.000000     0.000000     0.000000     0.000000
    7     1.000000   180.000000     1.000000     0.000000     0.000000     0.000000     0.000000     0.000000
    8     1.000000   120.000000     0.577350     0.577350     0.577350     0.000000     0.000000     0.000000
    9     1.000000   120.000000    -0.577350     0.577350     0.577350     0.000000     0.000000     0.000000
   10    -1.000000    90.000000     1.000000     0.000000     0.000000     0.000000     0.000000     0.000000
   11    -1.000000    90.000000     0.000000     0.000000     1.000000     0.000000     0.000000     0.000000
   12    -1.000000   180.000000     0.707107     0.000000    -0.707107     0.000000     0.000000     0.000000
   13     1.000000   120.000000     0.577350    -0.577350    -0.577350     0.000000     0.000000     0.000000
   14     1.000000   120.000000     0.577350    -0.577350     0.577350     0.000000     0.000000     0.000000
   15     1.000000   180.000000     0.000000     0.000000     1.000000     0.000000     0.000000     0.000000
   16    -1.000000    90.000000     0.000000    -1.000000     0.000000     0.000000     0.000000     0.000000
   17    -1.000000   180.000000     0.000000    -0.707107     0.707107     0.000000     0.000000     0.000000
   18    -1.000000    90.000000     0.000000     0.000000    -1.000000     0.000000     0.000000     0.000000
   19     1.000000   120.000000    -0.577350    -0.577350    -0.577350     0.000000     0.000000     0.000000
   20     1.000000   180.000000     0.000000     1.000000     0.000000     0.000000     0.000000     0.000000
   21     1.000000   120.000000    -0.577350     0.577350    -0.577350     0.000000     0.000000     0.000000
   22    -1.000000   180.000000     0.707107    -0.707107     0.000000     0.000000     0.000000     0.000000
   23    -1.000000   180.000000     0.000000     0.707107     0.707107     0.000000     0.000000     0.000000
   24    -1.000000   180.000000     0.707107     0.000000     0.707107     0.000000     0.000000     0.000000
 
 Subroutine IBZKPT returns following result:
 ===========================================
 
 Found     16 irreducible k-points:
 
 Following reciprocal coordinates:
            Coordinates               Weight
  0.000000  0.000000  0.000000      1.000000
  0.166667  0.000000  0.000000      8.000000
  0.333333  0.000000  0.000000      8.000000
  0.500000  0.000000  0.000000      4.000000
  0.166667  0.166667  0.000000      6.000000
  0.333333  0.166667  0.000000     24.000000
  0.500000  0.166667  0.000000     24.000000
 -0.333333  0.166667  0.000000     24.000000
 -0.166667  0.166667  0.000000     12.000000
  0.333333  0.333333  0.000000      6.000000
  0.500000  0.333333  0.000000     24.000000
 -0.333333  0.333333  0.000000     12.000000
  0.500000  0.500000  0.000000      3.000000
  0.500000  0.333333  0.166667     24.000000
 -0.333333  0.333333  0.166667     24.000000
 -0.333333  0.500000  0.166667     12.000000
 
 Following cartesian coordinates:
            Coordinates               Weight
  0.000000  0.000000  0.000000      1.000000
  0.166667  0.166667  0.166667      8.000000
  0.333333  0.333333  0.333333      8.000000
  0.500000  0.500000  0.500000      4.000000
  0.333333  0.000000  0.000000      6.000000
  0.500000  0.166667  0.166667     24.000000
  0.666667  0.333333  0.333333     24.000000
 -0.166667 -0.500000 -0.500000     24.000000
  0.000000 -0.333333 -0.333333     12.000000
  0.666667  0.000000  0.000000      6.000000
  0.833333  0.166667  0.166667     24.000000
  0.000000 -0.666667 -0.666667     12.000000
  1.000000  0.000000  0.000000      3.000000
  0.666667  0.333333  0.000000     24.000000
 -0.166667 -0.500000 -0.833333     24.000000
  0.000000 -0.666667 -1.000000     12.000000
 


--------------------------------------------------------------------------------------------------------




 Dimension of arrays:
   k-points           NKPTS =     16   k-points in BZ     NKDIM =     16   number of bands    NBANDS=     24
   number of dos      NEDOS =    301   number of ions     NIONS =      2
   non local maximal  LDIM  =      6   non local SUM 2l+1 LMDIM =     18
   total plane-waves  NPLWV =  46656
   max r-space proj   IRMAX =      1   max aug-charges    IRDMAX=  40037
   dimension x,y,z NGX =    36 NGY =   36 NGZ =   36
   dimension x,y,z NGXF=    72 NGYF=   72 NGZF=   72
   support grid    NGXF=    72 NGYF=   72 NGZF=   72
   ions per type =               1   1
 NGX,Y,Z   is equivalent  to a cutoff of  13.06, 13.06, 13.06 a.u.
 NGXF,Y,Z  is equivalent  to a cutoff of  26.11, 26.11, 26.11 a.u.


 I would recommend the setting:
   dimension x,y,z NGX =    33 NGY =   33 NGZ =   33
 SYSTEM =  Name                                    
 POSCAR =  CdTe (ICSD, 295K, Rabadanov 2001)       

 Startparameter for this run:
   NWRITE =      2    write-flag & timer
   PREC   = accura    normal or accurate (medium, high low for compatibility)
   ISTART =      1    job   : 0-new  1-cont  2-samecut
   ICHARG =      0    charge: 1-file 2-atom 10-const
   ISPIN  =      1    spin polarized calculation?
   LNONCOLLINEAR =      F non collinear calculations
   LSORBIT =      F    spin-orbit coupling
   INIWAV =      1    electr: 0-lowe 1-rand  2-diag
   LASPH  =      F    aspherical Exc in radial PAW
   METAGGA=      F    non-selfconsistent MetaGGA calc.

 Electronic Relaxation 1
   ENCUT  =  500.0 eV  36.75 Ry    6.06 a.u.   8.36  8.36  8.36*2*pi/ulx,y,z
   ENINI  =  500.0     initial cutoff
   ENAUG  =  456.1 eV  augmentation charge cutoff
   NELM   =     60;   NELMIN=  2; NELMDL=  0     # of ELM steps 
   EDIFF  = 0.1E-05   stopping-criterion for ELM
   LREAL  =      F    real-space projection
   NLSPLINE    = F    spline interpolate recip. space projectors
   LCOMPAT=      F    compatible to vasp.4.4
   GGA_COMPAT  = T    GGA compatible to vasp.4.4-vasp.4.6
   LMAXPAW     = -100 max onsite density
   LMAXMIX     =    2 max onsite mixed and CHGCAR
   VOSKOWN=      0    Vosko Wilk Nusair interpolation
   ROPT   =    0.00000   0.00000
 Ionic relaxation
   EDIFFG = -.5E-02   stopping-criterion for IOM
   NSW    =    100    number of steps for IOM
   NBLOCK =      1;   KBLOCK =    100    inner block; outer block 
   IBRION =      2    ionic relax: 0-MD 1-quasi-New 2-CG
   NFREE  =      1    steps in history (QN), initial steepest desc. (CG)
   ISIF   =      3    stress and relaxation
   IWAVPR =     11    prediction:  0-non 1-charg 2-wave 3-comb
   ISYM   =      2    0-nonsym 1-usesym 2-fastsym
   LCORR  =      T    Harris-Foulkes like correction to forces

   POTIM  = 0.5000    time-step for ionic-motion
   TEIN   =    0.0    initial temperature
   TEBEG  =    0.0;   TEEND  =   0.0 temperature during run
   SMASS  =  -3.00    Nose mass-parameter (am)
   estimated Nose-frequenzy (Omega)   =  0.10E-29 period in steps =****** mass=  -0.480E-27a.u.
   SCALEE = 1.0000    scale energy and forces
   NPACO  =    256;   APACO  = 16.0  distance and # of slots for P.C.
   PSTRESS=    0.0 pullay stress

  Mass of Ions in am
   POMASS = 112.41127.60
  Ionic Valenz
   ZVAL   =  12.00  6.00
  Atomic Wigner-Seitz radii
   RWIGS  =  -1.00 -1.00
  virtual crystal weights 
   VCA    =   1.00  1.00
   NELECT =      18.0000    total number of electrons
   NUPDOWN=      -1.0000    fix difference up-down

 DOS related values:
   EMIN   =  10.00;   EMAX   =-10.00  energy-range for DOS
   EFERMI =   0.00
   ISMEAR =     0;   SIGMA  =   0.01  broadening in eV -4-tet -1-fermi 0-gaus

 Electronic relaxation 2 (details)
   IALGO  =     38    algorithm
   LDIAG  =      T    sub-space diagonalisation (order eigenvalues)
   LSUBROT=      F    optimize rotation matrix (better conditioning)
   TURBO    =      0    0=normal 1=particle mesh
   IRESTART =      0    0=no restart 2=restart with 2 vectors
   NREBOOT  =      0    no. of reboots
   NMIN     =      0    reboot dimension
   EREF     =   0.00    reference energy to select bands
   IMIX   =      4    mixing-type and parameters
     AMIX     =   0.40;   BMIX     =  1.00
     AMIX_MAG =   1.60;   BMIX_MAG =  1.00
     AMIN     =   0.01
     WC   =   100.;   INIMIX=   1;  MIXPRE=   1;  MAXMIX= -45

 Intra band minimization:
   WEIMIN = 0.0010     energy-eigenvalue tresh-hold
   EBREAK =  0.10E-07  absolut break condition
   DEPER  =   0.30     relativ break condition  

   TIME   =   0.40     timestep for ELM

  volume/ion in A,a.u.               =      34.05       229.81
  Fermi-wavevector in a.u.,A,eV,Ry     =   1.050581  1.985311 15.017042  1.103721
  Thomas-Fermi vector in A             =   2.185590
 
 Write flags
   LWAVE  =      T    write WAVECAR
   LCHARG =      T    write CHGCAR
   LVTOT  =      F    write LOCPOT, total local potential
   LVHAR  =      F    write LOCPOT, Hartree potential only
   LELF   =      F    write electronic localiz. function (ELF)
   LORBIT =     10    0 simple, 1 ext, 2 COOP (PROOUT)


 Dipole corrections
   LMONO  =      F    monopole corrections only (constant potential shift)
   LDIPOL =      F    correct potential (dipole corrections)
   IDIPOL =      0    1-x, 2-y, 3-z, 4-all directions 
   EPSILON=  1.0000000 bulk dielectric constant

 Core level calculations are selected ICORELEVEL =  1
 Exchange correlation treatment:
   GGA     =    PS    GGA type
   LEXCH   =    14    internal setting for exchange type
   VOSKOWN=      0    Vosko Wilk Nusair interpolation
   LHFCALC =     F    Hartree Fock is set to
   LHFONE  =     F    Hartree Fock one center treatment
   AEXX    =    0.0000 exact exchange contribution

 Linear response parameters
   LEPSILON=     F    determine dielectric tensor
   LRPA    =     F    only Hartree local field effects (RPA)
   LNABLA  =     F    use nabla operator in PAW spheres
   LVEL    =     F    velocity operator in full k-point grid
   LINTERFAST=   F  fast interpolation
   KINTER  =     0    interpolate to denser k-point grid
   CSHIFT  =0.1000    complex shift for real part using Kramers Kronig
   OMEGAMAX=  -1.0    maximum frequency
   DEG_THRESHOLD= 0.2000000E-02 threshold for treating states as degnerate
   RTIME   =    0.100 relaxation time in fs

 Orbital magnetization related:
   ORBITALMAG=     F  switch on orbital magnetization
   LCHIMAG   =     F  perturbation theory with respect to B field
   DQ        =  0.001000  dq finite difference perturbation B field



--------------------------------------------------------------------------------------------------------


 conjugate gradient relaxation of ions
 charge density and potential will be updated during run
 non-spin polarized calculation
 Variant of blocked Davidson
 Davidson routine will perform the subspace rotation
 perform sub-space diagonalisation
    after iterative eigenvector-optimisation
 modified Broyden-mixing scheme, WC =      100.0
 initial mixing is a Kerker type mixing with AMIX =  0.4000 and BMIX =      1.0000
 Hartree-type preconditioning will be used
 using additional bands           15
 reciprocal scheme for non local part
 use partial core corrections
 calculate Harris-corrections to forces 
   (improved forces if not selfconsistent)
 use gradient corrections 
 use of overlap-Matrix (Vanderbilt PP)
 Gauss-broadening in eV      SIGMA  =   0.01


--------------------------------------------------------------------------------------------------------


  energy-cutoff  :      500.00
  volume of cell :       68.11
      direct lattice vectors                 reciprocal lattice vectors
     3.241350000  3.241350000  0.000000000     0.154256714  0.154256714  0.154256714
     3.241350000  0.000000000 -3.241350000     0.154256714 -0.154256714 -0.154256714
     0.000000000  3.241350000 -3.241350000    -0.154256714  0.154256714 -0.154256714

  length of vectors
     4.583961130  4.583961130  4.583961130     0.267180466  0.267180466  0.267180466


 
 old parameters found on file WAVECAR:
  energy-cutoff  :      500.00
  volume of cell :       68.11
      direct lattice vectors                 reciprocal lattice vectors
     3.241350000  3.241350000  0.000000000     0.154256714  0.154256714  0.154256714
     3.241350000  0.000000000 -3.241350000     0.154256714 -0.154256714 -0.154256714
     0.000000000  3.241350000 -3.241350000    -0.154256714  0.154256714 -0.154256714

  length of vectors

 
 k-points in units of 2pi/SCALE and weight: Automatic mesh                          
   0.00000000  0.00000000  0.00000000       0.005
   0.16666667  0.16666667  0.16666667       0.037
   0.33333333  0.33333333  0.33333333       0.037
   0.50000000  0.50000000  0.50000000       0.019
   0.33333333  0.00000000  0.00000000       0.028
   0.50000000  0.16666667  0.16666667       0.111
   0.66666667  0.33333333  0.33333333       0.111
  -0.16666667 -0.50000000 -0.50000000       0.111
   0.00000000 -0.33333333 -0.33333333       0.056
   0.66666667  0.00000000  0.00000000       0.028
   0.83333333  0.16666667  0.16666667       0.111
   0.00000000 -0.66666667 -0.66666667       0.056
   1.00000000  0.00000000  0.00000000       0.014
   0.66666667  0.33333333  0.00000000       0.111
  -0.16666667 -0.50000000 -0.83333333       0.111
   0.00000000 -0.66666667 -1.00000000       0.056
 
 k-points in reciprocal lattice and weights: Automatic mesh                          
   0.00000000  0.00000000  0.00000000       0.005
   0.16666667  0.00000000  0.00000000       0.037
   0.33333333  0.00000000  0.00000000       0.037
   0.50000000  0.00000000  0.00000000       0.019
   0.16666667  0.16666667  0.00000000       0.028
   0.33333333  0.16666667  0.00000000       0.111
   0.50000000  0.16666667  0.00000000       0.111
  -0.33333333  0.16666667  0.00000000       0.111
  -0.16666667  0.16666667  0.00000000       0.056
   0.33333333  0.33333333  0.00000000       0.028
   0.50000000  0.33333333  0.00000000       0.111
  -0.33333333  0.33333333  0.00000000       0.056
   0.50000000  0.50000000  0.00000000       0.014
   0.50000000  0.33333333  0.16666667       0.111
  -0.33333333  0.33333333  0.16666667       0.111
  -0.33333333  0.50000000  0.16666667       0.056
 
 position of ions in fractional coordinates (direct lattice) 
   0.00000000  0.00000000  0.00000000
   0.25000000  0.25000000  0.25000000
 
 position of ions in cartesian coordinates  (Angst):
   0.00000000  0.00000000  0.00000000
   1.62067500  1.62067500 -1.62067500
 


--------------------------------------------------------------------------------------------------------


 k-point  1 :   0.0000 0.0000 0.0000  plane waves:    1759
 k-point  2 :   0.1667 0.0000 0.0000  plane waves:    1747
 k-point  3 :   0.3333 0.0000 0.0000  plane waves:    1730
 k-point  4 :   0.5000 0.0000 0.0000  plane waves:    1718
 k-point  5 :   0.1667 0.1667 0.0000  plane waves:    1736
 k-point  6 :   0.3333 0.1667 0.0000  plane waves:    1729
 k-point  7 :   0.5000 0.1667 0.0000  plane waves:    1739
 k-point  8 :  -0.3333 0.1667 0.0000  plane waves:    1732
 k-point  9 :  -0.1667 0.1667 0.0000  plane waves:    1735
 k-point 10 :   0.3333 0.3333 0.0000  plane waves:    1728
 k-point 11 :   0.5000 0.3333 0.0000  plane waves:    1723
 k-point 12 :  -0.3333 0.3333 0.0000  plane waves:    1726
 k-point 13 :   0.5000 0.5000 0.0000  plane waves:    1724
 k-point 14 :   0.5000 0.3333 0.1667  plane waves:    1724
 k-point 15 :  -0.3333 0.3333 0.1667  plane waves:    1726
 k-point 16 :  -0.3333 0.5000 0.1667  plane waves:    1722

 maximum and minimum number of plane-waves per node :      1759     1718

 maximum number of plane-waves:      1759
 maximum index in each direction: 
   IXMAX=    8   IYMAX=    8   IZMAX=    8
   IXMIN=   -8   IYMIN=   -8   IZMIN=   -8

 NGX is ok and might be reduce to  34
 NGY is ok and might be reduce to  34
 NGZ is ok and might be reduce to  34

 serial   3D FFT for wavefunctions
 parallel 3D FFT for charge:
    minimum data exchange during FFTs selected (reduces bandwidth)


 total amount of memory used by VASP on root node    42249. kBytes
========================================================================

   base      :      30000. kBytes
   nonl-proj :       8240. kBytes
   fftplans  :        737. kBytes
   grid      :       2775. kBytes
   one-center:         31. kBytes
   wavefun   :        466. kBytes
 
     INWAV:  cpu time    0.0560: real time    0.0563
 Broyden mixing: mesh for mixing (old mesh)
   NGX = 17   NGY = 17   NGZ = 17
  (NGX  = 72   NGY  = 72   NGZ  = 72)
  gives a total of   4913 points

 charge density for first step will be calculated from the start-wavefunctions


--------------------------------------------------------------------------------------------------------


 Maximum index for augmentation-charges         1676 (set IRDMAX)


--------------------------------------------------------------------------------------------------------


 initial charge from wavefunction
 First call to EWALD:  gamma=   0.434
 Maximum number of real-space cells 3x 3x 3
 Maximum number of reciprocal cells 3x 3x 3

 FEWALD executed in parallel
    FEWALD:  cpu time    0.0000: real time    0.0014


----------------------------------------- Iteration    1(   1)  ---------------------------------------


    POTLOK:  cpu time    0.0120: real time    0.0105
    SETDIJ:  cpu time    0.0040: real time    0.0030
     EDDAV:  cpu time    0.1800: real time    0.1810
       DOS:  cpu time    0.0000: real time    0.0003
    CHARGE:  cpu time    0.0160: real time    0.0168
    MIXING:  cpu time    0.0000: real time    0.0008
    --------------------------------------------
      LOOP:  cpu time    0.2160: real time    0.2646

 eigenvalue-minimisations  :   768
 total energy-change (2. order) :-0.5498054E+01  (-0.2923393E-01)
 number of electron      17.9999997 magnetization 
 augmentation part        4.5295857 magnetization 

 Broyden mixing:
  rms(total) = 0.15625E+00    rms(broyden)= 0.15625E+00
  rms(prec ) = 0.21200E+00
  weight for this iteration     100.00

 Free energy of the ion-electron system (eV)
  ---------------------------------------------------
  alpha Z        PSCENC =        50.17222034
  Ewald energy   TEWEN  =     -1044.83138452
  -Hartree energ DENC   =      -505.45411455
  -exchange      EXHF   =         0.00000000
  -V(xc)+E(xc)   XCENC  =       -20.58149771
  PAW double counting   =      1708.81083112    -1637.82770868
  entropy T*S    EENTRO =        -0.00000000
  eigenvalues    EBANDS =       -71.99181536
  atomic energy  EATOM  =      1516.20541573
  Solvation  Ediel_sol  =         0.00000000
  ---------------------------------------------------
  free energy    TOTEN  =        -5.49805363 eV

  energy without entropy =       -5.49805363  energy(sigma->0) =       -5.49805363


--------------------------------------------------------------------------------------------------------




----------------------------------------- Iteration    1(   2)  ---------------------------------------


    POTLOK:  cpu time    0.0080: real time    0.0088
    SETDIJ:  cpu time    0.0000: real time    0.0027
     EDDAV:  cpu time    0.1800: real time    0.1771
       DOS:  cpu time    0.0000: real time    0.0001
    CHARGE:  cpu time    0.0160: real time    0.0165
    MIXING:  cpu time    0.0000: real time    0.0007
    --------------------------------------------
      LOOP:  cpu time    0.2080: real time    0.2103

 eigenvalue-minimisations  :   768
 total energy-change (2. order) : 0.1482025E-01  (-0.6104605E-02)
 number of electron      17.9999996 magnetization 
 augmentation part        4.5570141 magnetization 

 Broyden mixing:
  rms(total) = 0.33904E-01    rms(broyden)= 0.33904E-01
  rms(prec ) = 0.45586E-01
  weight for this iteration     100.00

 eigenvalues of (default mixing * dielectric matrix)
  average eigenvalue GAMMA=   1.2542
  1.2542

 Free energy of the ion-electron system (eV)
  ---------------------------------------------------
  alpha Z        PSCENC =        50.17222034
  Ewald energy   TEWEN  =     -1044.83138452
  -Hartree energ DENC   =      -502.91289349
  -exchange      EXHF   =         0.00000000
  -V(xc)+E(xc)   XCENC  =       -20.66431342
  PAW double counting   =      1714.25632475    -1643.07508552
  entropy T*S    EENTRO =        -0.00000000
  eigenvalues    EBANDS =       -74.63351725
  atomic energy  EATOM  =      1516.20541573
  Solvation  Ediel_sol  =         0.00000000
  ---------------------------------------------------
  free energy    TOTEN  =        -5.48323339 eV

  energy without entropy =       -5.48323339  energy(sigma->0) =       -5.48323339


--------------------------------------------------------------------------------------------------------




----------------------------------------- Iteration    1(   3)  ---------------------------------------


    POTLOK:  cpu time    0.0080: real time    0.0088
    SETDIJ:  cpu time    0.0000: real time    0.0027
     EDDAV:  cpu time    0.2280: real time    0.2263
       DOS:  cpu time    0.0000: real time    0.0001
    CHARGE:  cpu time    0.0160: real time    0.0167
    MIXING:  cpu time    0.0000: real time    0.0005
    --------------------------------------------
      LOOP:  cpu time    0.2560: real time    0.2763

 eigenvalue-minimisations  :   936
 total energy-change (2. order) : 0.6318567E-03  (-0.2819666E-03)
 number of electron      17.9999996 magnetization 
 augmentation part        4.5614635 magnetization 

 Broyden mixing:
  rms(total) = 0.80486E-02    rms(broyden)= 0.80481E-02
  rms(prec ) = 0.10478E-01
  weight for this iteration     100.00

 eigenvalues of (default mixing * dielectric matrix)
  average eigenvalue GAMMA=   1.5519
  1.1899  1.9139

 Free energy of the ion-electron system (eV)
  ---------------------------------------------------
  alpha Z        PSCENC =        50.17222034
  Ewald energy   TEWEN  =     -1044.83138452
  -Hartree energ DENC   =      -502.35523494
  -exchange      EXHF   =         0.00000000
  -V(xc)+E(xc)   XCENC  =       -20.68267747
  PAW double counting   =      1716.08306348    -1644.87023619
  entropy T*S    EENTRO =        -0.00000000
  eigenvalues    EBANDS =       -75.20376796
  atomic energy  EATOM  =      1516.20541573
  Solvation  Ediel_sol  =         0.00000000
  ---------------------------------------------------
  free energy    TOTEN  =        -5.48260153 eV

  energy without entropy =       -5.48260153  energy(sigma->0) =       -5.48260153


--------------------------------------------------------------------------------------------------------




----------------------------------------- Iteration    1(   4)  ---------------------------------------


    POTLOK:  cpu time    0.0080: real time    0.0088
    SETDIJ:  cpu time    0.0040: real time    0.0027
     EDDAV:  cpu time    0.2440: real time    0.2455
       DOS:  cpu time    0.0000: real time    0.0001
    CHARGE:  cpu time    0.0160: real time    0.0166
    MIXING:  cpu time    0.0000: real time    0.0005
    --------------------------------------------
      LOOP:  cpu time    0.2760: real time    0.2789

 eigenvalue-minimisations  :   984
 total energy-change (2. order) : 0.2474781E-04  (-0.1752488E-04)
 number of electron      17.9999996 magnetization 
 augmentation part        4.5608541 magnetization 

 Broyden mixing:
  rms(total) = 0.21047E-02    rms(broyden)= 0.21047E-02
  rms(prec ) = 0.24769E-02
  weight for this iteration     100.00

 eigenvalues of (default mixing * dielectric matrix)
  average eigenvalue GAMMA=   1.4241
  1.2973  1.2973  1.6779

 Free energy of the ion-electron system (eV)
  ---------------------------------------------------
  alpha Z        PSCENC =        50.17222034
  Ewald energy   TEWEN  =     -1044.83138452
  -Hartree energ DENC   =      -502.29879574
  -exchange      EXHF   =         0.00000000
  -V(xc)+E(xc)   XCENC  =       -20.68383070
  PAW double counting   =      1716.07164025    -1644.86020512
  entropy T*S    EENTRO =        -0.00000000
  eigenvalues    EBANDS =       -75.25763703
  atomic energy  EATOM  =      1516.20541573
  Solvation  Ediel_sol  =         0.00000000
  ---------------------------------------------------
  free energy    TOTEN  =        -5.48257678 eV

  energy without entropy =       -5.48257678  energy(sigma->0) =       -5.48257678


--------------------------------------------------------------------------------------------------------




----------------------------------------- Iteration    1(   5)  ---------------------------------------


    POTLOK:  cpu time    0.0080: real time    0.0088
    SETDIJ:  cpu time    0.0040: real time    0.0027
     EDDAV:  cpu time    0.2000: real time    0.1995
       DOS:  cpu time    0.0000: real time    0.0001
    CHARGE:  cpu time    0.0160: real time    0.0165
    MIXING:  cpu time    0.0000: real time    0.0005
    --------------------------------------------
      LOOP:  cpu time    0.2320: real time    0.6766

 eigenvalue-minimisations  :   840
 total energy-change (2. order) :-0.1666631E-05  (-0.4058978E-06)
 number of electron      17.9999996 magnetization 
 augmentation part        4.5608685 magnetization 

 Broyden mixing:
  rms(total) = 0.57103E-03    rms(broyden)= 0.57102E-03
  rms(prec ) = 0.84032E-03
  weight for this iteration     100.00

 eigenvalues of (default mixing * dielectric matrix)
  average eigenvalue GAMMA=   1.5316
  1.1337  1.1337  1.9295  1.9295

 Free energy of the ion-electron system (eV)
  ---------------------------------------------------
  alpha Z        PSCENC =        50.17222034
  Ewald energy   TEWEN  =     -1044.83138452
  -Hartree energ DENC   =      -502.28450295
  -exchange      EXHF   =         0.00000000
  -V(xc)+E(xc)   XCENC  =       -20.68375455
  PAW double counting   =      1715.59520023    -1644.38130150
  entropy T*S    EENTRO =        -0.00000000
  eigenvalues    EBANDS =       -75.27447123
  atomic energy  EATOM  =      1516.20541573
  Solvation  Ediel_sol  =         0.00000000
  ---------------------------------------------------
  free energy    TOTEN  =        -5.48257845 eV

  energy without entropy =       -5.48257845  energy(sigma->0) =       -5.48257845


--------------------------------------------------------------------------------------------------------




----------------------------------------- Iteration    1(   6)  ---------------------------------------


    POTLOK:  cpu time    0.0120: real time    0.0088
    SETDIJ:  cpu time    0.0000: real time    0.0027
     EDDAV:  cpu time    0.2600: real time    0.2584
       DOS:  cpu time    0.0000: real time    0.0001
    --------------------------------------------
      LOOP:  cpu time    0.3160: real time    0.3202

 eigenvalue-minimisations  :  1032
 total energy-change (2. order) :-0.8567688E-06  (-0.7670870E-07)
 number of electron      17.9999996 magnetization 
 augmentation part        4.5608685 magnetization 

 Free energy of the ion-electron system (eV)
  ---------------------------------------------------
  alpha Z        PSCENC =        50.17222034
  Ewald energy   TEWEN  =     -1044.83138452
  -Hartree energ DENC   =      -502.28264069
  -exchange      EXHF   =         0.00000000
  -V(xc)+E(xc)   XCENC  =       -20.68359409
  PAW double counting   =      1715.21990869    -1644.00511663
  entropy T*S    EENTRO =        -0.00000000
  eigenvalues    EBANDS =       -75.27738814
  atomic energy  EATOM  =      1516.20541573
  Solvation  Ediel_sol  =         0.00000000
  ---------------------------------------------------
  free energy    TOTEN  =        -5.48257931 eV

  energy without entropy =       -5.48257931  energy(sigma->0) =       -5.48257931


--------------------------------------------------------------------------------------------------------




 the core state eigenenergies are
   1-  1s -26513.8919  2s  -3931.0631  2p  -3526.3197  3s   -727.8864  3p   -595.1758
       3d   -387.6324  4s    -99.9747  4p    -61.0186
   2-  1s -31612.9794  2s  -4840.5622  2p  -4343.9576  3s   -956.7818  3p   -795.4395
       3d   -551.6894  4s   -156.2923  4p   -106.3323  4d    -33.6591
 
 E-fermi :   2.3072     XC(G=0):  -8.7758     alpha+bet : -7.4227


 k-point     1 :       0.0000    0.0000    0.0000
  band No.  band energies     occupation 
      1      -8.9994      2.00000
      2      -6.0496      2.00000
      3      -6.0496      2.00000
      4      -6.0496      2.00000
      5      -5.7855      2.00000
      6      -5.7855      2.00000
      7       2.2080      2.00000
      8       2.2080      2.00000
      9       2.2080      2.00000
     10       2.8657      0.00000
     11       6.7511      0.00000
     12       6.7511      0.00000
     13       6.7511      0.00000
     14       9.5046      0.00000
     15      11.5492      0.00000
     16      11.5492      0.00000
     17      12.1965      0.00000
     18      12.1965      0.00000
     19      12.1965      0.00000
     20      14.5173      0.00000
     21      21.9225      0.00000
     22      21.9225      0.00000
     23      21.9225      0.00000
     24      22.9175      0.00000

 k-point     2 :       0.1667    0.0000    0.0000
  band No.  band energies     occupation 
      1      -8.8979      2.00000
      2      -6.0307      2.00000
      3      -6.0307      2.00000
      4      -5.9678      2.00000
      5      -5.7868      2.00000
      6      -5.7868      2.00000
      7       0.4334      2.00000
      8       1.9770      2.00000
      9       1.9770      2.00000
     10       3.9856      0.00000
     11       6.8503      0.00000
     12       7.0914      0.00000
     13       7.0914      0.00000
     14      10.5065      0.00000
     15      10.6259      0.00000
     16      10.6259      0.00000
     17      11.8519      0.00000
     18      14.0252      0.00000
     19      14.0252      0.00000
     20      16.2460      0.00000
     21      19.3170      0.00000
     22      19.3170      0.00000
     23      19.8391      0.00000
     24      22.0884      0.00000

 k-point     3 :       0.3333    0.0000    0.0000
  band No.  band energies     occupation 
      1      -8.6941      2.00000
      2      -5.9982      2.00000
      3      -5.9982      2.00000
      4      -5.7828      2.00000
      5      -5.7828      2.00000
      6      -5.6905      2.00000
      7      -1.4155      2.00000
      8       1.5920      2.00000
      9       1.5920      2.00000
     10       4.0487      0.00000
     11       7.3735      0.00000
     12       7.3735      0.00000
     13       8.3670      0.00000
     14      10.1321      0.00000
     15      11.0347      0.00000
     16      11.0347      0.00000
     17      14.3145      0.00000
     18      15.8811      0.00000
     19      15.8811      0.00000
     20      16.5470      0.00000
     21      16.9756      0.00000
     22      16.9756      0.00000
     23      19.4986      0.00000
     24      22.4784      0.00000

 k-point     4 :       0.5000    0.0000    0.0000
  band No.  band energies     occupation 
      1      -8.5938      2.00000
      2      -5.9856      2.00000
      3      -5.9856      2.00000
      4      -5.7765      2.00000
      5      -5.7765      2.00000
      6      -5.4395      2.00000
      7      -2.2638      2.00000
      8       1.4251      2.00000
      9       1.4251      2.00000
     10       3.9371      0.00000
     11       7.3351      0.00000
     12       7.3351      0.00000
     13       9.1388      0.00000
     14      10.7269      0.00000
     15      12.4644      0.00000
     16      12.4644      0.00000
     17      13.4956      0.00000
     18      13.7975      0.00000
     19      13.7975      0.00000
     20      18.1093      0.00000
     21      19.6008      0.00000
     22      19.6008      0.00000
     23      20.3079      0.00000
     24      20.6145      0.00000

 k-point     5 :       0.1667    0.1667    0.0000
  band No.  band energies     occupation 
      1      -8.8644      2.00000
      2      -6.0115      2.00000
      3      -6.0115      2.00000
      4      -5.9692      2.00000
      5      -5.7940      2.00000
      6      -5.7778      2.00000
      7       0.4279      2.00000
      8       1.5941      2.00000
      9       1.5941      2.00000
     10       4.6413      0.00000
     11       5.8297      0.00000
     12       7.7057      0.00000
     13       7.7057      0.00000
     14       9.2978      0.00000
     15      11.2766      0.00000
     16      11.7902      0.00000
     17      12.9565      0.00000
     18      12.9565      0.00000
     19      13.5742      0.00000
     20      17.2474      0.00000
     21      19.1485      0.00000
     22      19.1485      0.00000
     23      19.6464      0.00000
     24      20.5331      0.00000

 k-point     6 :       0.3333    0.1667    0.0000
  band No.  band energies     occupation 
      1      -8.6957      2.00000
      2      -5.9863      2.00000
      3      -5.9747      2.00000
      4      -5.8387      2.00000
      5      -5.7719      2.00000
      6      -5.7149      2.00000
      7      -0.9572      2.00000
      8       1.0647      2.00000
      9       1.1820      2.00000
     10       5.0092      0.00000
     11       6.1730      0.00000
     12       7.8429      0.00000
     13       8.2722      0.00000
     14      10.0206      0.00000
     15      11.8685      0.00000
     16      11.9266      0.00000
     17      13.8045      0.00000
     18      14.9078      0.00000
     19      16.0447      0.00000
     20      16.1206      0.00000
     21      16.3240      0.00000
     22      19.3573      0.00000
     23      19.8632      0.00000
     24      20.1701      0.00000

 k-point     7 :       0.5000    0.1667    0.0000
  band No.  band energies     occupation 
      1      -8.5636      2.00000
      2      -5.9715      2.00000
      3      -5.9591      2.00000
      4      -5.8023      2.00000
      5      -5.7735      2.00000
      6      -5.4157      2.00000
      7      -2.0498      2.00000
      8       0.5323      2.00000
      9       1.1000      2.00000
     10       4.9144      0.00000
     11       6.8296      0.00000
     12       8.0890      0.00000
     13       8.7042      0.00000
     14      10.9210      0.00000
     15      12.1165      0.00000
     16      12.5570      0.00000
     17      13.4319      0.00000
     18      14.0733      0.00000
     19      16.6323      0.00000
     20      17.4120      0.00000
     21      17.9719      0.00000
     22      19.0894      0.00000
     23      19.9559      0.00000
     24      20.2919      0.00000

 k-point     8 :      -0.3333    0.1667    0.0000
  band No.  band energies     occupation 
      1      -8.5961      2.00000
      2      -5.9732      2.00000
      3      -5.9726      2.00000
      4      -5.7892      2.00000
      5      -5.7883      2.00000
      6      -5.4999      2.00000
      7      -1.7834      2.00000
      8       0.3960      2.00000
      9       1.4007      2.00000
     10       4.9707      0.00000
     11       7.0730      0.00000
     12       7.7853      0.00000
     13       8.4732      0.00000
     14      10.6266      0.00000
     15      11.2850      0.00000
     16      12.4653      0.00000
     17      13.5776      0.00000
     18      15.3008      0.00000
     19      16.4097      0.00000
     20      16.5156      0.00000
     21      17.6034      0.00000
     22      19.2365      0.00000
     23      20.1406      0.00000
     24      21.0736      0.00000

 k-point     9 :      -0.1667    0.1667    0.0000
  band No.  band energies     occupation 
      1      -8.7625      2.00000
      2      -6.0091      2.00000
      3      -5.9947      2.00000
      4      -5.8408      2.00000
      5      -5.7955      2.00000
      6      -5.7630      2.00000
      7      -0.5486      2.00000
      8       0.9362      2.00000
      9       1.8556      2.00000
     10       4.8105      0.00000
     11       6.8217      0.00000
     12       7.3220      0.00000
     13       7.6312      0.00000
     14       9.8703      0.00000
     15      11.1045      0.00000
     16      11.8672      0.00000
     17      12.9659      0.00000
     18      14.1806      0.00000
     19      15.9795      0.00000
     20      16.3432      0.00000
     21      18.3234      0.00000
     22      19.3387      0.00000
     23      19.3550      0.00000
     24      19.9350      0.00000

 k-point    10 :       0.3333    0.3333    0.0000
  band No.  band energies     occupation 
      1      -8.5974      2.00000
      2      -5.9289      2.00000
      3      -5.9289      2.00000
      4      -5.8796      2.00000
      5      -5.7623      2.00000
      6      -5.6010      2.00000
      7      -1.3071      2.00000
      8       0.6930      2.00000
      9       0.6930      2.00000
     10       4.8529      0.00000
     11       5.2745      0.00000
     12       9.4552      0.00000
     13       9.6585      0.00000
     14       9.6585      0.00000
     15      12.4578      0.00000
     16      14.0723      0.00000
     17      15.1275      0.00000
     18      15.1275      0.00000
     19      15.3631      0.00000
     20      15.8298      0.00000
     21      15.8298      0.00000
     22      17.1289      0.00000
     23      17.3428      0.00000
     24      21.6753      0.00000

 k-point    11 :       0.5000    0.3333    0.0000
  band No.  band energies     occupation 
      1      -8.5016      2.00000
      2      -5.9281      2.00000
      3      -5.9074      2.00000
      4      -5.8531      2.00000
      5      -5.7633      2.00000
      6      -5.3504      2.00000
      7      -1.9332      2.00000
      8       0.0220      2.00000
      9       0.5590      2.00000
     10       4.9438      0.00000
     11       5.8404      0.00000
     12       9.1074      0.00000
     13       9.8506      0.00000
     14      11.2112      0.00000
     15      12.8629      0.00000
     16      13.6294      0.00000
     17      14.2570      0.00000
     18      14.5644      0.00000
     19      16.5217      0.00000
     20      16.9329      0.00000
     21      17.4550      0.00000
     22      17.6086      0.00000
     23      18.3876      0.00000
     24      19.2278      0.00000

 k-point    12 :      -0.3333    0.3333    0.0000
  band No.  band energies     occupation 
      1      -8.5020      2.00000
      2      -5.9477      2.00000
      3      -5.9269      2.00000
      4      -5.8138      2.00000
      5      -5.7809      2.00000
      6      -5.2882      2.00000
      7      -1.9699      2.00000
      8      -0.4404      2.00000
      9       0.8711      2.00000
     10       5.1741      0.00000
     11       7.2609      0.00000
     12       8.9985      0.00000
     13       9.1139      0.00000
     14       9.6045      0.00000
     15      11.1568      0.00000
     16      14.3065      0.00000
     17      14.8359      0.00000
     18      15.7003      0.00000
     19      16.2453      0.00000
     20      16.5188      0.00000
     21      17.7108      0.00000
     22      19.4905      0.00000
     23      19.5662      0.00000
     24      19.7978      0.00000

 k-point    13 :       0.5000    0.5000    0.0000
  band No.  band energies     occupation 
      1      -8.4699      2.00000
      2      -5.8935      2.00000
      3      -5.8837      2.00000
      4      -5.8837      2.00000
      5      -5.7545      2.00000
      6      -5.3034      2.00000
      7      -2.1399      2.00000
      8       0.3237      2.00000
      9       0.3237      2.00000
     10       4.6973      0.00000
     11       4.8041      0.00000
     12      10.9276      0.00000
     13      11.2719      0.00000
     14      11.2719      0.00000
     15      13.0220      0.00000
     16      13.7227      0.00000
     17      13.7227      0.00000
     18      14.1787      0.00000
     19      15.9212      0.00000
     20      17.6204      0.00000
     21      17.8586      0.00000
     22      17.8586      0.00000
     23      18.2508      0.00000
     24      18.3460      0.00000

 k-point    14 :       0.5000    0.3333    0.1667
  band No.  band energies     occupation 
      1      -8.5650      2.00000
      2      -5.9530      2.00000
      3      -5.9455      2.00000
      4      -5.8282      2.00000
      5      -5.7729      2.00000
      6      -5.4763      2.00000
      7      -1.6159      2.00000
      8       0.1066      2.00000
      9       0.8733      2.00000
     10       5.7240      0.00000
     11       6.2613      0.00000
     12       7.4243      0.00000
     13       9.5527      0.00000
     14      10.3289      0.00000
     15      12.4130      0.00000
     16      13.5870      0.00000
     17      13.6908      0.00000
     18      14.3759      0.00000
     19      16.0574      0.00000
     20      17.0232      0.00000
     21      17.4751      0.00000
     22      18.4571      0.00000
     23      19.9361      0.00000
     24      20.4796      0.00000

 k-point    15 :      -0.3333    0.3333    0.1667
  band No.  band energies     occupation 
      1      -8.5020      2.00000
      2      -5.9454      2.00000
      3      -5.9305      2.00000
      4      -5.8107      2.00000
      5      -5.7827      2.00000
      6      -5.2874      2.00000
      7      -2.0074      2.00000
      8      -0.2120      2.00000
      9       0.5871      2.00000
     10       5.8562      0.00000
     11       6.7447      0.00000
     12       7.8898      0.00000
     13       9.4064      0.00000
     14      10.0984      0.00000
     15      12.6084      0.00000
     16      13.3799      0.00000
     17      13.7502      0.00000
     18      16.0522      0.00000
     19      16.5266      0.00000
     20      16.7570      0.00000
     21      17.7341      0.00000
     22      18.6344      0.00000
     23      19.6913      0.00000
     24      20.3425      0.00000

 k-point    16 :      -0.3333    0.5000    0.1667
  band No.  band energies     occupation 
      1      -8.4712      2.00000
      2      -5.9173      2.00000
      3      -5.9157      2.00000
      4      -5.8344      2.00000
      5      -5.7727      2.00000
      6      -5.2397      2.00000
      7      -2.0511      2.00000
      8      -0.0336      2.00000
      9       0.0572      2.00000
     10       5.8651      0.00000
     11       5.8956      0.00000
     12       8.8152      0.00000
     13       9.0930      0.00000
     14      11.7192      0.00000
     15      13.2495      0.00000
     16      13.4831      0.00000
     17      13.6091      0.00000
     18      15.9948      0.00000
     19      16.8755      0.00000
     20      17.3464      0.00000
     21      17.3943      0.00000
     22      17.4998      0.00000
     23      17.6635      0.00000
     24      20.4215      0.00000


--------------------------------------------------------------------------------------------------------


 soft charge-density along one line, spin component           1
         0         1         2         3         4         5         6         7         8         9
 total charge-density along one line
 
 pseudopotential strength for first ion, spin component:           1
-17.936   0.000   0.000   0.000  -0.000 -17.977   0.000   0.000
  0.000 -17.936   0.000  -0.000  -0.000   0.000 -17.977   0.000
  0.000   0.000 -17.937   0.000  -0.000   0.000   0.000 -17.978
  0.000  -0.000   0.000 -17.936   0.000   0.000  -0.000   0.000
 -0.000  -0.000  -0.000   0.000 -17.937  -0.000  -0.000  -0.000
-17.977   0.000   0.000   0.000  -0.000 -17.998   0.000   0.000
  0.000 -17.977   0.000  -0.000  -0.000   0.000 -17.998   0.000
  0.000   0.000 -17.978   0.000  -0.000   0.000   0.000 -17.999
  0.000  -0.000   0.000 -17.977   0.000   0.000  -0.000   0.000
 -0.000  -0.000  -0.000   0.000 -17.978  -0.000  -0.000  -0.000
  0.000  -0.000  -0.000  -0.000  -0.000   0.000  -0.000  -0.000
  0.000  -0.000  -0.000  -0.000  -0.000   0.000  -0.000  -0.000
 -0.000   0.000  -0.000   0.003  -0.000  -0.000   0.000  -0.000
  0.003  -0.000  -0.000  -0.000  -0.000   0.003  -0.000  -0.000
 -0.000   0.003  -0.000   0.000   0.000  -0.000   0.003  -0.000
 -0.000   0.000  -0.000   0.003  -0.000  -0.000   0.000  -0.000
  0.003  -0.000  -0.000  -0.000  -0.000   0.002  -0.000  -0.000
 -0.000   0.003  -0.000   0.000   0.000  -0.000   0.002  -0.000
 total augmentation occupancy for first ion, spin component:           1
  4.086  -0.000   0.000   0.000  -0.000  -2.030   0.000  -0.000  -0.000   0.000   0.000  -0.000   0.000   0.528  -0.000  -0.000
 -0.000   4.086   0.000   0.000   0.000   0.000  -2.030  -0.000  -0.000   0.000   0.000   0.000   0.000  -0.000   0.528   0.000
  0.000   0.000   2.535  -0.000  -0.000  -0.000  -0.000  -0.536   0.000   0.000  -0.000   0.000  -0.000   0.000   0.000   0.000
  0.000   0.000   0.000   4.086   0.000   0.000  -0.000   0.000  -2.030   0.000  -0.000  -0.000   0.528  -0.000   0.000  -0.073
 -0.000   0.000  -0.000  -0.000   2.535  -0.000   0.000   0.000   0.000  -0.536   0.000  -0.000   0.000   0.000  -0.000   0.000
 -2.030   0.000  -0.000   0.000  -0.000   1.969  -0.000   0.000   0.000   0.000   0.000   0.000   0.000  -0.505   0.000   0.000
  0.000  -2.030   0.000  -0.000   0.000  -0.000   1.969   0.000   0.000   0.000   0.000   0.000  -0.000   0.000  -0.505  -0.000
  0.000   0.000  -0.536  -0.000   0.000  -0.000   0.000   0.529  -0.000  -0.000   0.000   0.000   0.000   0.000  -0.000  -0.000
  0.000  -0.000   0.000  -2.030   0.000  -0.000   0.000   0.000   1.969   0.000   0.000  -0.000  -0.505   0.000  -0.000   0.084
 -0.000  -0.000   0.000   0.000  -0.536   0.000   0.000  -0.000  -0.000   0.529  -0.000   0.000   0.000   0.000  -0.000  -0.000
  0.000   0.000  -0.000  -0.000   0.000   0.000   0.000   0.000   0.000  -0.000   2.825  -0.705   0.000   0.000  -0.000   0.000
 -0.000   0.000   0.000  -0.000  -0.000  -0.000  -0.000   0.000   0.000   0.000  -0.705   0.216   0.000   0.000   0.000   0.000
  0.000  -0.000   0.000   0.528  -0.000  -0.000  -0.000   0.000  -0.505   0.000   0.000   0.000   0.208  -0.000  -0.000  -0.035
  0.528  -0.000   0.000   0.000   0.000  -0.505   0.000   0.000   0.000   0.000  -0.000   0.000  -0.000   0.208   0.000   0.000
 -0.000   0.528  -0.000   0.000   0.000   0.000  -0.505  -0.000  -0.000  -0.000  -0.000   0.000  -0.000   0.000   0.208   0.000
 -0.000   0.000  -0.000  -0.073   0.000   0.000   0.000   0.000   0.084  -0.000   0.000   0.000  -0.035  -0.000   0.000   0.007
 -0.073  -0.000   0.000  -0.000  -0.000   0.084   0.000  -0.000   0.000   0.000  -0.000  -0.000   0.000  -0.035  -0.000  -0.000
  0.000  -0.073   0.000  -0.000  -0.000   0.000   0.084   0.000   0.000   0.000   0.000  -0.000   0.000   0.000  -0.035   0.000


------------------------ aborting loop because EDIFF is reached ----------------------------------------


 


 total charge     
 
# of ion     s       p       d       tot
----------------------------------------
  1        0.473   0.319   9.527  10.319
  2        1.351   2.047   0.021   3.420
------------------------------------------------
tot        1.824   2.367   9.549  13.739
 
    CHARGE:  cpu time    0.0160: real time    0.0166
    FORLOC:  cpu time    0.0000: real time    0.0006
    FORNL :  cpu time    0.0120: real time    0.0133
    STRESS:  cpu time    0.1520: real time    0.1518
    FORCOR:  cpu time    0.0080: real time    0.0090
    FORHAR:  cpu time    0.0040: real time    0.0019
    MIXING:  cpu time    0.0000: real time    0.0005
    OFIELD:  cpu time    0.0000: real time    0.0000

  FORCE on cell =-STRESS in cart. coord.  units (eV):
  Direction    XX          YY          ZZ          XY          YZ          ZX
  --------------------------------------------------------------------------------------
  Alpha Z    50.17222    50.17222    50.17222
  Ewald    -348.27726  -348.27726  -348.27726     0.00000     0.00000     0.00000
  Hartree   167.42497   167.42497   167.42497     0.00000    -0.00000    -0.00000
  E(xc)     -86.29318   -86.29318   -86.29318    -0.00000     0.00000     0.00000
  Local     -17.80675   -17.80675   -17.80675     0.00001    -0.00001    -0.00001
  n-local    22.60576    27.93206    27.04450    -1.75786    -3.05486    -1.14696
  augment     6.27259     6.27259     6.27259    -0.00001     0.00001     0.00001
  Kinetic   200.33732   203.88180   204.10803    -1.62882    -3.09614    -1.23696
  Fock        0.00000     0.00000     0.00000     0.00000     0.00000     0.00000
  -------------------------------------------------------------------------------------
  Total       0.12908     0.12908     0.12908     0.00000     0.00000    -0.00000
  in kB       3.03651     3.03651     3.03651     0.00000     0.00000    -0.00000
  external pressure =        3.04 kB  Pullay stress =        0.00 kB


 VOLUME and BASIS-vectors are now :
 -----------------------------------------------------------------------------
  energy-cutoff  :      500.00
  volume of cell :       68.11
      direct lattice vectors                 reciprocal lattice vectors
     3.241350000  3.241350000  0.000000000     0.154256714  0.154256714  0.154256714
     3.241350000  0.000000000 -3.241350000     0.154256714 -0.154256714 -0.154256714
     0.000000000  3.241350000 -3.241350000    -0.154256714  0.154256714 -0.154256714

  length of vectors
     4.583961130  4.583961130  4.583961130     0.267180466  0.267180466  0.267180466


 FORCES acting on ions
    electron-ion (+dipol)            ewald-force                    non-local-force                 convergence-correction
 -----------------------------------------------------------------------------------------------
   -.329E-06 -.330E-06 0.330E-06   -.744E-14 -.454E-14 0.998E-14   0.173E-16 0.173E-16 -.139E-16   -.817E-09 -.817E-09 0.817E-09
   0.158E-06 0.164E-06 -.164E-06   0.759E-14 0.606E-14 -.102E-13   -.711E-16 -.416E-16 0.125E-15   0.636E-09 0.636E-09 -.636E-09
 -----------------------------------------------------------------------------------------------
   -.172E-06 -.166E-06 0.166E-06   0.152E-15 0.152E-14 -.238E-15   -.538E-16 -.243E-16 0.111E-15   -.181E-09 -.181E-09 0.181E-09
 
 
 POSITION                                       TOTAL-FORCE (eV/Angst)
 -----------------------------------------------------------------------------------
      0.00000      0.00000      0.00000        -0.000000     -0.000000     -0.000000
      1.62068      1.62068     -1.62068         0.000000      0.000000      0.000000
 -----------------------------------------------------------------------------------
    total drift:                               -0.000000     -0.000000      0.000000


--------------------------------------------------------------------------------------------------------



  FREE ENERGIE OF THE ION-ELECTRON SYSTEM (eV)
  ---------------------------------------------------
  free  energy   TOTEN  =        -5.48257931 eV

  energy  without entropy=       -5.48257931  energy(sigma->0) =       -5.48257931
 


--------------------------------------------------------------------------------------------------------


    POTLOK:  cpu time    0.0120: real time    0.0127


--------------------------------------------------------------------------------------------------------




--------------------------------------------------------------------------------------------------------


    WAVPRE:  cpu time    0.0000: real time    0.0025
 FEWALD executed in parallel
    FEWALD:  cpu time    0.0000: real time    0.0001
    GENKIN:  cpu time    0.0120: real time    0.0097
    ORTHCH:  cpu time    0.0080: real time    0.0070
     LOOP+:  cpu time    2.5962: real time    3.3645


----------------------------------------- Iteration    2(   1)  ---------------------------------------


    POTLOK:  cpu time    0.0080: real time    0.0088
    SETDIJ:  cpu time    0.0040: real time    0.0028
     EDDAV:  cpu time    0.1800: real time    0.1767
       DOS:  cpu time    0.0000: real time    0.0002
    CHARGE:  cpu time    0.0160: real time    0.0166
    MIXING:  cpu time    0.0000: real time    0.0004
    --------------------------------------------
      LOOP:  cpu time    0.2120: real time    0.2219

 eigenvalue-minimisations  :   768
 total energy-change (2. order) :-0.1534326E-01  (-0.3423468E-01)
 number of electron      17.9999999 magnetization 
 augmentation part        4.5876821 magnetization 

 Broyden mixing:
  rms(total) = 0.89159E-01    rms(broyden)= 0.89152E-01
  rms(prec ) = 0.16850E+00
  weight for this iteration     100.00

 Free energy of the ion-electron system (eV)
  ---------------------------------------------------
  alpha Z        PSCENC =        49.70646422
  Ewald energy   TEWEN  =     -1041.58822018
  -Hartree energ DENC   =      -500.71892669
  -exchange      EXHF   =         0.00000000
  -V(xc)+E(xc)   XCENC  =       -20.82138810
  PAW double counting   =      1715.12556088    -1643.91016924
  entropy T*S    EENTRO =        -0.00000000
  eigenvalues    EBANDS =       -79.49665834
  atomic energy  EATOM  =      1516.20541573
  Solvation  Ediel_sol  =         0.00000000
  ---------------------------------------------------
  free energy    TOTEN  =        -5.49792171 eV

  energy without entropy =       -5.49792171  energy(sigma->0) =       -5.49792171


--------------------------------------------------------------------------------------------------------




----------------------------------------- Iteration    2(   2)  ---------------------------------------


    POTLOK:  cpu time    0.0080: real time    0.0087
    SETDIJ:  cpu time    0.0040: real time    0.0027
     EDDAV:  cpu time    0.1800: real time    0.1772
       DOS:  cpu time    0.0000: real time    0.0001
    CHARGE:  cpu time    0.0120: real time    0.0166
    MIXING:  cpu time    0.0040: real time    0.0004
    --------------------------------------------
      LOOP:  cpu time    0.2080: real time    0.2112

 eigenvalue-minimisations  :   768
 total energy-change (2. order) : 0.1332531E-01  (-0.4339516E-02)
 number of electron      17.9999999 magnetization 
 augmentation part        4.5661991 magnetization 

 Broyden mixing:
  rms(total) = 0.28590E-01    rms(broyden)= 0.28589E-01
  rms(prec ) = 0.50734E-01
  weight for this iteration     100.00

 eigenvalues of (default mixing * dielectric matrix)
  average eigenvalue GAMMA=   0.9148
  0.9148

 Free energy of the ion-electron system (eV)
  ---------------------------------------------------
  alpha Z        PSCENC =        49.70646422
  Ewald energy   TEWEN  =     -1041.58822018
  -Hartree energ DENC   =      -503.10621855
  -exchange      EXHF   =         0.00000000
  -V(xc)+E(xc)   XCENC  =       -20.74380153
  PAW double counting   =      1710.45414962    -1639.28956350
  entropy T*S    EENTRO =        -0.00000000
  eigenvalues    EBANDS =       -77.12282221
  atomic energy  EATOM  =      1516.20541573
  Solvation  Ediel_sol  =         0.00000000
  ---------------------------------------------------
  free energy    TOTEN  =        -5.48459640 eV

  energy without entropy =       -5.48459640  energy(sigma->0) =       -5.48459640


--------------------------------------------------------------------------------------------------------




----------------------------------------- Iteration    2(   3)  ---------------------------------------


    POTLOK:  cpu time    0.0080: real time    0.0088
    SETDIJ:  cpu time    0.0040: real time    0.0027
     EDDAV:  cpu time    0.2560: real time    0.2559
       DOS:  cpu time    0.0040: real time    0.0001
    CHARGE:  cpu time    0.0160: real time    0.0166
    MIXING:  cpu time    0.0000: real time    0.0004
    --------------------------------------------
      LOOP:  cpu time    0.2880: real time    0.3121

 eigenvalue-minimisations  :  1032
 total energy-change (2. order) : 0.1341348E-02  (-0.3178767E-03)
 number of electron      17.9999999 magnetization 
 augmentation part        4.5622153 magnetization 

 Broyden mixing:
  rms(total) = 0.23007E-01    rms(broyden)= 0.23007E-01
  rms(prec ) = 0.25945E-01
  weight for this iteration     100.00

 eigenvalues of (default mixing * dielectric matrix)
  average eigenvalue GAMMA=   1.6645
  1.3047  2.0243

 Free energy of the ion-electron system (eV)
  ---------------------------------------------------
  alpha Z        PSCENC =        49.70646422
  Ewald energy   TEWEN  =     -1041.58822018
  -Hartree energ DENC   =      -503.78507641
  -exchange      EXHF   =         0.00000000
  -V(xc)+E(xc)   XCENC  =       -20.72270556
  PAW double counting   =      1708.71017271    -1637.50134209
  entropy T*S    EENTRO =        -0.00000000
  eigenvalues    EBANDS =       -76.50796348
  atomic energy  EATOM  =      1516.20541573
  Solvation  Ediel_sol  =         0.00000000
  ---------------------------------------------------
  free energy    TOTEN  =        -5.48325505 eV

  energy without entropy =       -5.48325505  energy(sigma->0) =       -5.48325505


--------------------------------------------------------------------------------------------------------




----------------------------------------- Iteration    2(   4)  ---------------------------------------


    POTLOK:  cpu time    0.0080: real time    0.0088
    SETDIJ:  cpu time    0.0000: real time    0.0027
     EDDAV:  cpu time    0.2440: real time    0.2425
       DOS:  cpu time    0.0000: real time    0.0001
    CHARGE:  cpu time    0.0160: real time    0.0166
    MIXING:  cpu time    0.0000: real time    0.0005
    --------------------------------------------
      LOOP:  cpu time    0.2680: real time    0.2785

 eigenvalue-minimisations  :   984
 total energy-change (2. order) : 0.2211358E-03  (-0.5176936E-04)
 number of electron      17.9999999 magnetization 
 augmentation part        4.5624677 magnetization 

 Broyden mixing:
  rms(total) = 0.56805E-02    rms(broyden)= 0.56805E-02
  rms(prec ) = 0.65350E-02
  weight for this iteration     100.00

 eigenvalues of (default mixing * dielectric matrix)
  average eigenvalue GAMMA=   1.4397
  2.1431  0.8243  1.3517

 Free energy of the ion-electron system (eV)
  ---------------------------------------------------
  alpha Z        PSCENC =        49.70646422
  Ewald energy   TEWEN  =     -1041.58822018
  -Hartree energ DENC   =      -504.02191916
  -exchange      EXHF   =         0.00000000
  -V(xc)+E(xc)   XCENC  =       -20.71758218
  PAW double counting   =      1707.73116639    -1636.46552182
  entropy T*S    EENTRO =        -0.00000000
  eigenvalues    EBANDS =       -76.33283692
  atomic energy  EATOM  =      1516.20541573
  Solvation  Ediel_sol  =         0.00000000
  ---------------------------------------------------
  free energy    TOTEN  =        -5.48303392 eV

  energy without entropy =       -5.48303392  energy(sigma->0) =       -5.48303392


--------------------------------------------------------------------------------------------------------




----------------------------------------- Iteration    2(   5)  ---------------------------------------


    POTLOK:  cpu time    0.0080: real time    0.0088
    SETDIJ:  cpu time    0.0040: real time    0.0027
     EDDAV:  cpu time    0.2080: real time    0.2096
       DOS:  cpu time    0.0000: real time    0.0001
    CHARGE:  cpu time    0.0160: real time    0.0166
    MIXING:  cpu time    0.0040: real time    0.0005
    --------------------------------------------
      LOOP:  cpu time    0.2480: real time    0.2436

 eigenvalue-minimisations  :   864
 total energy-change (2. order) : 0.6765769E-05  (-0.2388911E-05)
 number of electron      17.9999999 magnetization 
 augmentation part        4.5621609 magnetization 

 Broyden mixing:
  rms(total) = 0.16026E-02    rms(broyden)= 0.16026E-02
  rms(prec ) = 0.18259E-02
  weight for this iteration     100.00

 eigenvalues of (default mixing * dielectric matrix)
  average eigenvalue GAMMA=   1.6552
  1.1703  1.1945  2.1280  2.1280

 Free energy of the ion-electron system (eV)
  ---------------------------------------------------
  alpha Z        PSCENC =        49.70646422
  Ewald energy   TEWEN  =     -1041.58822018
  -Hartree energ DENC   =      -504.07146725
  -exchange      EXHF   =         0.00000000
  -V(xc)+E(xc)   XCENC  =       -20.71706033
  PAW double counting   =      1707.42701021    -1636.15808907
  entropy T*S    EENTRO =        -0.00000000
  eigenvalues    EBANDS =       -76.28708048
  atomic energy  EATOM  =      1516.20541573
  Solvation  Ediel_sol  =         0.00000000
  ---------------------------------------------------
  free energy    TOTEN  =        -5.48302715 eV

  energy without entropy =       -5.48302715  energy(sigma->0) =       -5.48302715


--------------------------------------------------------------------------------------------------------




----------------------------------------- Iteration    2(   6)  ---------------------------------------


    POTLOK:  cpu time    0.0040: real time    0.0088
    SETDIJ:  cpu time    0.0040: real time    0.0027
     EDDAV:  cpu time    0.2600: real time    0.2625
       DOS:  cpu time    0.0000: real time    0.0001
    --------------------------------------------
      LOOP:  cpu time    0.3160: real time    0.3239

 eigenvalue-minimisations  :  1056
 total energy-change (2. order) :-0.4522140E-06  (-0.2269802E-06)
 number of electron      17.9999999 magnetization 
 augmentation part        4.5621609 magnetization 

 Free energy of the ion-electron system (eV)
  ---------------------------------------------------
  alpha Z        PSCENC =        49.70646422
  Ewald energy   TEWEN  =     -1041.58822018
  -Hartree energ DENC   =      -504.07454413
  -exchange      EXHF   =         0.00000000
  -V(xc)+E(xc)   XCENC  =       -20.71704200
  PAW double counting   =      1707.27528635    -1636.00809805
  entropy T*S    EENTRO =        -0.00000000
  eigenvalues    EBANDS =       -76.28228954
  atomic energy  EATOM  =      1516.20541573
  Solvation  Ediel_sol  =         0.00000000
  ---------------------------------------------------
  free energy    TOTEN  =        -5.48302760 eV

  energy without entropy =       -5.48302760  energy(sigma->0) =       -5.48302760


--------------------------------------------------------------------------------------------------------




 the core state eigenenergies are
   1-  1s -26513.9561  2s  -3931.1250  2p  -3526.3818  3s   -727.9484  3p   -595.2378
       3d   -387.6943  4s   -100.0370  4p    -61.0812
   2-  1s -31613.0561  2s  -4840.6376  2p  -4344.0332  3s   -956.8548  3p   -795.5126
       3d   -551.7627  4s   -156.3613  4p   -106.4008  4d    -33.7262
 
 E-fermi :   2.2219     XC(G=0):  -8.7353     alpha+bet : -7.3538


 k-point     1 :       0.0000    0.0000    0.0000
  band No.  band energies     occupation 
      1      -9.0310      2.00000
      2      -6.1026      2.00000
      3      -6.1026      2.00000
      4      -6.1026      2.00000
      5      -5.8455      2.00000
      6      -5.8455      2.00000
      7       2.1233      2.00000
      8       2.1233      2.00000
      9       2.1233      2.00000
     10       2.7533      0.00000
     11       6.6732      0.00000
     12       6.6732      0.00000
     13       6.6732      0.00000
     14       9.4067      0.00000
     15      11.4481      0.00000
     16      11.4481      0.00000
     17      12.1082      0.00000
     18      12.1082      0.00000
     19      12.1082      0.00000
     20      14.4075      0.00000
     21      21.7939      0.00000
     22      21.7939      0.00000
     23      21.7939      0.00000
     24      22.7344      0.00000

 k-point     2 :       0.1667    0.0000    0.0000
  band No.  band energies     occupation 
      1      -8.9316      2.00000
      2      -6.0843      2.00000
      3      -6.0843      2.00000
      4      -6.0218      2.00000
      5      -5.8467      2.00000
      6      -5.8467      2.00000
      7       0.3606      2.00000
      8       1.8968      2.00000
      9       1.8968      2.00000
     10       3.8789      0.00000
     11       6.7610      0.00000
     12       7.0092      0.00000
     13       7.0092      0.00000
     14      10.4104      0.00000
     15      10.5366      0.00000
     16      10.5366      0.00000
     17      11.7541      0.00000
     18      13.9202      0.00000
     19      13.9202      0.00000
     20      16.1268      0.00000
     21      19.1761      0.00000
     22      19.1761      0.00000
     23      19.6597      0.00000
     24      21.9590      0.00000

 k-point     3 :       0.3333    0.0000    0.0000
  band No.  band energies     occupation 
      1      -8.7323      2.00000
      2      -6.0526      2.00000
      3      -6.0526      2.00000
      4      -5.8428      2.00000
      5      -5.8428      2.00000
      6      -5.7499      2.00000
      7      -1.4628      2.00000
      8       1.5185      2.00000
      9       1.5185      2.00000
     10       3.9530      0.00000
     11       7.2907      0.00000
     12       7.2907      0.00000
     13       8.2562      0.00000
     14      10.0453      0.00000
     15      10.9390      0.00000
[...]
      4      -5.8842      2.00000
      5      -5.8197      2.00000
      6      -5.7620      2.00000
      7      -1.0034      2.00000
      8       1.0120      2.00000
      9       1.1289      2.00000
     10       4.9262      0.00000
     11       6.1052      0.00000
     12       7.7753      0.00000
     13       8.1959      0.00000
     14       9.9356      0.00000
     15      11.7893      0.00000
     16      11.8454      0.00000
     17      13.7065      0.00000
     18      14.8222      0.00000
     19      15.9454      0.00000
     20      16.0148      0.00000
     21      16.2158      0.00000
     22      19.2269      0.00000
     23      19.7517      0.00000
     24      20.0501      0.00000

 k-point     7 :       0.5000    0.1667    0.0000
  band No.  band energies     occupation 
      1      -8.5964      2.00000
      2      -6.0150      2.00000
      3      -6.0030      2.00000
      4      -5.8493      2.00000
      5      -5.8213      2.00000
      6      -5.4693      2.00000
      7      -2.0789      2.00000
      8       0.4851      2.00000
      9       1.0477      2.00000
     10       4.8351      0.00000
     11       6.7642      0.00000
     12       8.0173      0.00000
     13       8.6212      0.00000
     14      10.8378      0.00000
     15      12.0284      0.00000
     16      12.4697      0.00000
     17      13.3233      0.00000
     18      13.9791      0.00000
     19      16.5173      0.00000
     20      17.3006      0.00000
     21      17.8700      0.00000
     22      18.9817      0.00000
     23      19.8382      0.00000
     24      20.1798      0.00000

 k-point     8 :      -0.3333    0.1667    0.0000
  band No.  band energies     occupation 
      1      -8.6284      2.00000
      2      -6.0168      2.00000
      3      -6.0161      2.00000
      4      -5.8366      2.00000
      5      -5.8356      2.00000
      6      -5.5512      2.00000
      7      -1.8170      2.00000
      8       0.3511      2.00000
      9       1.3443      2.00000
     10       4.8885      0.00000
     11       7.0091      0.00000
     12       7.7157      0.00000
     13       8.3853      0.00000
     14      10.5515      0.00000
     15      11.2034      0.00000
     16      12.3775      0.00000
     17      13.4735      0.00000
     18      15.2034      0.00000
     19      16.3051      0.00000
     20      16.3965      0.00000
     21      17.4956      0.00000
     22      19.1314      0.00000
     23      20.0228      0.00000
     24      20.9402      0.00000

 k-point     9 :      -0.1667    0.1667    0.0000
  band No.  band energies     occupation 
      1      -8.7919      2.00000
      2      -6.0519      2.00000
      3      -6.0378      2.00000
      4      -5.8853      2.00000
      5      -5.8427      2.00000
      6      -5.8106      2.00000
      7      -0.5992      2.00000
      8       0.8867      2.00000
      9       1.7927      2.00000
     10       4.7218      0.00000
     11       6.7503      0.00000
     12       7.2548      0.00000
     13       7.5620      0.00000
     14       9.8024      0.00000
     15      11.0227      0.00000
     16      11.7802      0.00000
     17      12.8842      0.00000
     18      14.0937      0.00000
     19      15.8708      0.00000
     20      16.2485      0.00000
     21      18.2131      0.00000
     22      19.2043      0.00000
     23      19.2410      0.00000
     24      19.8197      0.00000

 k-point    10 :       0.3333    0.3333    0.0000
  band No.  band energies     occupation 
      1      -8.6297      2.00000
      2      -5.9735      2.00000
      3      -5.9735      2.00000
      4      -5.9239      2.00000
      5      -5.8102      2.00000
      6      -5.6498      2.00000
      7      -1.3519      2.00000
      8       0.6462      2.00000
      9       0.6462      2.00000
     10       4.7939      0.00000
     11       5.2055      0.00000
     12       9.3644      0.00000
     13       9.5688      0.00000
     14       9.5688      0.00000
     15      12.3764      0.00000
     16      13.9658      0.00000
     17      15.0418      0.00000
     18      15.0418      0.00000
     19      15.2732      0.00000
     20      15.7196      0.00000
     21      15.7196      0.00000
     22      17.0316      0.00000
     23      17.2105      0.00000
     24      21.5570      0.00000

 k-point    11 :       0.5000    0.3333    0.0000
  band No.  band energies     occupation 
      1      -8.5355      2.00000
      2      -5.9723      2.00000
      3      -5.9525      2.00000
      4      -5.8987      2.00000
      5      -5.8113      2.00000
      6      -5.4052      2.00000
      7      -1.9675      2.00000
      8      -0.0166      2.00000
      9       0.5137      2.00000
     10       4.8822      0.00000
     11       5.7700      0.00000
     12       9.0206      0.00000
     13       9.7635      0.00000
     14      11.1056      0.00000
     15      12.7744      0.00000
     16      13.5215      0.00000
     17      14.1610      0.00000
     18      14.4742      0.00000
     19      16.4034      0.00000
     20      16.8340      0.00000
     21      17.3398      0.00000
     22      17.5093      0.00000
     23      18.2864      0.00000
     24      19.1141      0.00000

 k-point    12 :      -0.3333    0.3333    0.0000
  band No.  band energies     occupation 
      1      -8.5359      2.00000
      2      -5.9916      2.00000
      3      -5.9715      2.00000
      4      -5.8605      2.00000
      5      -5.8284      2.00000
      6      -5.3448      2.00000
      7      -2.0021      2.00000
      8      -0.4740      2.00000
      9       0.8218      2.00000
     10       5.1063      0.00000
     11       7.1764      0.00000
     12       8.9186      0.00000
     13       9.0261      0.00000
     14       9.5237      0.00000
     15      11.0787      0.00000
     16      14.2123      0.00000
     17      14.7414      0.00000
     18      15.5772      0.00000
     19      16.1368      0.00000
     20      16.4052      0.00000
     21      17.6059      0.00000
     22      19.3613      0.00000
     23      19.4651      0.00000
     24      19.6834      0.00000

 k-point    13 :       0.5000    0.5000    0.0000
  band No.  band energies     occupation 
      1      -8.5044      2.00000
      2      -5.9377      2.00000
      3      -5.9294      2.00000
      4      -5.9294      2.00000
      5      -5.8026      2.00000
      6      -5.3594      2.00000
      7      -2.1715      2.00000
      8       0.2815      2.00000
      9       0.2815      2.00000
     10       4.6461      0.00000
     11       4.7380      0.00000
     12      10.8187      0.00000
     13      11.1658      0.00000
     14      11.1658      0.00000
     15      12.9410      0.00000
     16      13.6296      0.00000
     17      13.6296      0.00000
     18      14.0541      0.00000
     19      15.8258      0.00000
     20      17.5126      0.00000
     21      17.7640      0.00000
     22      17.7640      0.00000
     23      18.1506      0.00000
     24      18.2366      0.00000

 k-point    14 :       0.5000    0.3333    0.1667
  band No.  band energies     occupation 
      1      -8.5978      2.00000
      2      -5.9970      2.00000
      3      -5.9895      2.00000
      4      -5.8744      2.00000
      5      -5.8206      2.00000
      6      -5.5279      2.00000
      7      -1.6545      2.00000
      8       0.0666      2.00000
      9       0.8242      2.00000
     10       5.6351      0.00000
     11       6.1968      0.00000
     12       7.3607      0.00000
     13       9.4629      0.00000
     14      10.2448      0.00000
     15      12.3198      0.00000
     16      13.4840      0.00000
     17      13.6046      0.00000
     18      14.2883      0.00000
     19      15.9462      0.00000
     20      16.9117      0.00000
     21      17.3664      0.00000
     22      18.3539      0.00000
     23      19.8103      0.00000
     24      20.3505      0.00000

 k-point    15 :      -0.3333    0.3333    0.1667
  band No.  band energies     occupation 
      1      -8.5359      2.00000
      2      -5.9895      2.00000
      3      -5.9750      2.00000
      4      -5.8575      2.00000
      5      -5.8301      2.00000
      6      -5.3441      2.00000
      7      -2.0385      2.00000
      8      -0.2492      2.00000
      9       0.5420      2.00000
     10       5.7701      0.00000
     11       6.6821      0.00000
     12       7.8092      0.00000
     13       9.3318      0.00000
     14      10.0061      0.00000
     15      12.5167      0.00000
     16      13.2814      0.00000
     17      13.6570      0.00000
     18      15.9387      0.00000
     19      16.4142      0.00000
     20      16.6550      0.00000
     21      17.6292      0.00000
     22      18.5231      0.00000
     23      19.5817      0.00000
     24      20.2110      0.00000

 k-point    16 :      -0.3333    0.5000    0.1667
  band No.  band energies     occupation 
      1      -8.5056      2.00000
      2      -5.9616      2.00000
      3      -5.9607      2.00000
      4      -5.8807      2.00000
      5      -5.8204      2.00000
      6      -5.2976      2.00000
      7      -2.0828      2.00000
      8      -0.0726      2.00000
      9       0.0198      2.00000
     10       5.7841      0.00000
     11       5.8347      0.00000
     12       8.7319      0.00000
     13       9.0135      0.00000
     14      11.6077      0.00000
     15      13.1505      0.00000
     16      13.3876      0.00000
     17      13.5103      0.00000
     18      15.9028      0.00000
     19      16.7590      0.00000
     20      17.2464      0.00000
     21      17.2774      0.00000
     22      17.3969      0.00000
     23      17.5589      0.00000
     24      20.3008      0.00000


--------------------------------------------------------------------------------------------------------


 soft charge-density along one line, spin component           1
         0         1         2         3         4         5         6         7         8         9
 total charge-density along one line
 
 pseudopotential strength for first ion, spin component:           1
-17.965   0.000   0.000   0.000  -0.000 -18.005   0.000   0.000
  0.000 -17.965   0.000   0.000  -0.000   0.000 -18.005   0.000
  0.000   0.000 -17.966   0.000   0.000   0.000   0.000 -18.007
  0.000   0.000   0.000 -17.965   0.000   0.000   0.000   0.000
 -0.000  -0.000   0.000   0.000 -17.966  -0.000  -0.000   0.000
-18.005   0.000   0.000   0.000  -0.000 -18.026   0.000   0.000
  0.000 -18.005   0.000   0.000  -0.000   0.000 -18.026   0.000
  0.000   0.000 -18.007   0.000   0.000   0.000   0.000 -18.027
  0.000   0.000   0.000 -18.005   0.000   0.000   0.000   0.000
 -0.000  -0.000   0.000   0.000 -18.007  -0.000  -0.000   0.000
  0.000  -0.000  -0.000  -0.000   0.000   0.000  -0.000  -0.000
  0.000  -0.000  -0.000  -0.000   0.000   0.000  -0.000  -0.000
 -0.000   0.000  -0.000   0.003  -0.000  -0.000   0.000  -0.000
  0.003  -0.000  -0.000  -0.000  -0.000   0.003  -0.000  -0.000
 -0.000   0.003  -0.000   0.000   0.000  -0.000   0.003  -0.000
 -0.000   0.000  -0.000   0.003  -0.000  -0.000   0.000  -0.000
  0.003  -0.000  -0.000  -0.000  -0.000   0.002  -0.000  -0.000
 -0.000   0.003  -0.000   0.000   0.000  -0.000   0.002  -0.000
 total augmentation occupancy for first ion, spin component:           1
  4.054   0.000  -0.000  -0.000   0.000  -1.995   0.000   0.000   0.000  -0.000  -0.000   0.000  -0.000   0.519  -0.000  -0.000
 -0.000   4.054   0.000  -0.000   0.000  -0.000  -1.995   0.000   0.000  -0.000   0.000   0.000  -0.000   0.000   0.519   0.000
  0.000  -0.000   2.527   0.000   0.000  -0.000   0.000  -0.526   0.000   0.000   0.000   0.000   0.000   0.000   0.000  -0.000
  0.000   0.000   0.000   4.054  -0.000   0.000   0.000  -0.000  -1.995   0.000   0.000   0.000   0.519  -0.000   0.000  -0.072
  0.000  -0.000   0.000  -0.000   2.527   0.000   0.000  -0.000   0.000  -0.526   0.000  -0.000  -0.000   0.000  -0.000   0.000
 -1.995   0.000  -0.000  -0.000  -0.000   1.932   0.000  -0.000   0.000  -0.000   0.000   0.000   0.000  -0.497   0.000   0.000
  0.000  -1.995  -0.000  -0.000   0.000   0.000   1.932  -0.000   0.000  -0.000   0.000  -0.000   0.000   0.000  -0.497  -0.000
  0.000   0.000  -0.526   0.000   0.000   0.000  -0.000   0.517  -0.000  -0.000   0.000   0.000  -0.000   0.000  -0.000   0.000
 -0.000   0.000   0.000  -1.995   0.000   0.000   0.000   0.000   1.932  -0.000   0.000  -0.000  -0.497  -0.000   0.000   0.083
  0.000   0.000  -0.000   0.000  -0.526   0.000  -0.000   0.000   0.000   0.517   0.000  -0.000  -0.000  -0.000  -0.000   0.000
  0.000  -0.000   0.000   0.000   0.000   0.000   0.000  -0.000   0.000   0.000   2.798  -0.693   0.000   0.000  -0.000   0.000
  0.000   0.000   0.000   0.000   0.000   0.000  -0.000   0.000  -0.000  -0.000  -0.693   0.212   0.000  -0.000   0.000   0.000
  0.000   0.000   0.000   0.519   0.000   0.000  -0.000   0.000  -0.497   0.000   0.000   0.000   0.205   0.000   0.000  -0.034
  0.519  -0.000   0.000   0.000   0.000  -0.497   0.000   0.000   0.000   0.000   0.000  -0.000   0.000   0.205   0.000  -0.000
  0.000   0.519   0.000  -0.000  -0.000  -0.000  -0.497   0.000   0.000  -0.000   0.000   0.000   0.000   0.000   0.205   0.000
 -0.000   0.000   0.000  -0.072   0.000  -0.000  -0.000  -0.000   0.083   0.000   0.000   0.000  -0.034  -0.000   0.000   0.007
 -0.072  -0.000   0.000   0.000   0.000   0.083   0.000  -0.000  -0.000   0.000  -0.000  -0.000   0.000  -0.034  -0.000   0.000
  0.000  -0.072   0.000  -0.000   0.000  -0.000   0.083   0.000  -0.000   0.000   0.000   0.000   0.000  -0.000  -0.034   0.000


------------------------ aborting loop because EDIFF is reached ----------------------------------------


 


 total charge     
 
# of ion     s       p       d       tot
----------------------------------------
  1        0.471   0.315   9.528  10.314
  2        1.352   2.044   0.021   3.416
------------------------------------------------
tot        1.823   2.359   9.548  13.730
 
    CHARGE:  cpu time    0.0160: real time    0.0165
    FORLOC:  cpu time    0.0000: real time    0.0006
    FORNL :  cpu time    0.0160: real time    0.0131
    STRESS:  cpu time    0.1520: real time    0.1512
    FORCOR:  cpu time    0.0080: real time    0.0090
    FORHAR:  cpu time    0.0040: real time    0.0020
    MIXING:  cpu time    0.0000: real time    0.0004
    OFIELD:  cpu time    0.0000: real time    0.0000

  FORCE on cell =-STRESS in cart. coord.  units (eV):
  Direction    XX          YY          ZZ          XY          YZ          ZX
  --------------------------------------------------------------------------------------
  Alpha Z    49.79675    49.79675    49.79675
  Ewald    -347.40630  -347.40630  -347.40630     0.00000    -0.00000     0.00000
  Hartree   167.91031   167.91031   167.91031     0.00000     0.00000     0.00000
  E(xc)     -86.25835   -86.25835   -86.25835    -0.00000    -0.00000    -0.00000
  Local     -18.70312   -18.70312   -18.70312     0.00001    -0.00002    -0.00001
  n-local    22.42936    27.78072    26.88577    -1.76204    -3.05442    -1.15074
  augment     6.25899     6.25899     6.25900    -0.00001     0.00001     0.00001
  Kinetic   200.24229   203.82707   204.03360    -1.63235    -3.09186    -1.23800
  Fock        0.00000     0.00000     0.00000     0.00000     0.00000     0.00000
  -------------------------------------------------------------------------------------
  Total      -0.00211    -0.00211    -0.00211     0.00000     0.00000    -0.00000
  in kB      -0.04930    -0.04930    -0.04930     0.00000     0.00000    -0.00000
  external pressure =       -0.05 kB  Pullay stress =        0.00 kB


 VOLUME and BASIS-vectors are now :
 -----------------------------------------------------------------------------
  energy-cutoff  :      500.00
  volume of cell :       68.62
      direct lattice vectors                 reciprocal lattice vectors
     3.249476187  3.249476187 -0.000000000     0.153870954  0.153870954  0.153870954
     3.249476187  0.000000000 -3.249476187     0.153870954 -0.153870954 -0.153870954
     0.000000000  3.249476187 -3.249476187    -0.153870954  0.153870954 -0.153870954

  length of vectors
     4.595453294  4.595453294  4.595453294     0.266512310  0.266512310  0.266512310


 FORCES acting on ions
    electron-ion (+dipol)            ewald-force                    non-local-force                 convergence-correction
 -----------------------------------------------------------------------------------------------
   0.523E-06 0.285E-06 0.102E-05   0.149E-14 0.118E-14 0.190E-14   0.278E-16 0.208E-16 -.312E-16   -.224E-07 -.224E-07 -.286E-07
   -.413E-06 -.178E-05 -.195E-05   -.212E-14 -.110E-14 -.229E-14   0.224E-15 0.111E-15 -.180E-15   -.817E-08 -.818E-08 -.780E-08
 -----------------------------------------------------------------------------------------------
   0.110E-06 -.150E-05 -.934E-06   -.632E-15 0.788E-16 -.392E-15   0.252E-15 0.132E-15 -.212E-15   -.306E-07 -.306E-07 -.364E-07
 
 
 POSITION                                       TOTAL-FORCE (eV/Angst)
 -----------------------------------------------------------------------------------
     -0.00000     -0.00000     -0.00000        -0.000000     -0.000000      0.000000
      1.62474      1.62474     -1.62474         0.000000      0.000000     -0.000000
 -----------------------------------------------------------------------------------
    total drift:                                0.000000     -0.000002     -0.000001


--------------------------------------------------------------------------------------------------------



  FREE ENERGIE OF THE ION-ELECTRON SYSTEM (eV)
  ---------------------------------------------------
  free  energy   TOTEN  =        -5.48305417 eV

  energy  without entropy=       -5.48305417  energy(sigma->0) =       -5.48305417
 
 d Force = 0.0000000E+00[ 0.000E+00, 0.000E+00]  d Energy = 0.2657190E-04-0.266E-04
 d Force = 0.0000000E+00[ 0.000E+00, 0.000E+00]  d Ewald  = 0.6302831E+00-0.630E+00


--------------------------------------------------------------------------------------------------------


    POTLOK:  cpu time    0.0120: real time    0.0126


--------------------------------------------------------------------------------------------------------




--------------------------------------------------------------------------------------------------------


  
 reached required accuracy - stopping structural energy minimisation
 writing wavefunctions
     LOOP+:  cpu time    1.4921: real time    2.4866
    4ORBIT:  cpu time    0.0000: real time    0.0000
 


 total charge     
 
# of ion     s       p       d       tot
----------------------------------------
  1        0.471   0.315   9.528  10.314
  2        1.352   2.044   0.021   3.416
------------------------------------------------
tot        1.823   2.359   9.548  13.730
 

 total amount of memory used by VASP on root node    42249. kBytes
========================================================================

   base      :      30000. kBytes
   nonl-proj :       8240. kBytes
   fftplans  :        737. kBytes
   grid      :       2775. kBytes
   one-center:         31. kBytes
   wavefun   :        466. kBytes
 
  
  
 General timing and accounting informations for this job:
 ========================================================
  
                  Total CPU time used (sec):        8.553
                            User time (sec):        6.904
                          System time (sec):        1.648
                         Elapsed time (sec):       11.197
  
                   Maximum memory used (kb):       31452.
                   Average memory used (kb):           0.
  
                          Minor page faults:         8868
                          Major page faults:            0
                 Voluntary context switches:         1676
