PROCAR new format
# of k-points:   16         # of bands:  24         # of ions:   2

 k-point    1 :    0.00000000 0.00000000 0.00000000     weight = 0.00462963

band   1 # energy   -9.02459619 # occ.  2.00000000
 
ion      s      p      d    tot
  1  0.062  0.000  0.000  0.062
  2  0.571  0.000  0.000  0.571
tot  0.632  0.000  0.000  0.632
 
band   2 # energy   -6.09149593 # occ.  2.00000000
 
ion      s      p      d    tot
  1  0.000  0.000  0.904  0.904
  2  0.000  0.020  0.001  0.021
tot  0.000  0.021  0.905  0.925
 
band   3 # energy   -6.09149577 # occ.  2.00000000
 
ion      s      p      d    tot
  1  0.000  0.000  0.904  0.904
  2  0.000  0.020  0.001  0.021
tot  0.000  0.021  0.905  0.925
 
band   4 # energy   -6.09149535 # occ.  2.00000000
 
ion      s      p      d    tot
  1  0.000  0.000  0.904  0.904
  2  0.000  0.020  0.001  0.021
tot  0.000  0.021  0.905  0.925
 
band   5 # energy   -5.83304370 # occ.  2.00000000
 
ion      s      p      d    tot
  1  0.000  0.000  0.946  0.946
  2  0.000  0.000  0.001  0.001
tot  0.000  0.000  0.947  0.947
 
band   6 # energy   -5.83304221 # occ.  2.00000000
 
ion      s      p      d    tot
  1  0.000  0.000  0.946  0.946
  2  0.000  0.000  0.001  0.001
tot  0.000  0.000  0.947  0.947
 
band   7 # energy    2.13997302 # occ.  2.00000000
 
ion      s      p      d    tot
  1  0.000  0.027  0.078  0.104
  2  0.000  0.494  0.001  0.494
tot  0.000  0.521  0.078  0.599
 
band   8 # energy    2.13997978 # occ.  2.00000000
 
ion      s      p      d    tot
  1  0.000  0.027  0.078  0.104
  2  0.000  0.494  0.001  0.494
tot  0.000  0.521  0.078  0.599
 
band   9 # energy    2.13997991 # occ.  2.00000000
 
ion      s      p      d    tot
  1  0.000  0.027  0.078  0.104
  2  0.000  0.494  0.001  0.494
tot  0.000  0.521  0.078  0.599
 
band  10 # energy    2.77543753 # occ.  0.00000000
 
ion      s      p      d    tot
  1  0.309  0.000  0.000  0.309
  2  0.238  0.000  0.000  0.238
tot  0.547  0.000  0.000  0.547
 
band  11 # energy    6.68841014 # occ.  0.00000000
 
ion      s      p      d    tot
  1  0.000  0.242  0.001  0.243
  2  0.000  0.008  0.091  0.099
tot  0.000  0.250  0.092  0.342
 
band  12 # energy    6.68841021 # occ.  0.00000000
 
ion      s      p      d    tot
  1  0.000  0.242  0.001  0.243
  2  0.000  0.008  0.091  0.099
tot  0.000  0.250  0.092  0.342
 
band  13 # energy    6.68841049 # occ.  0.00000000
 
ion      s      p      d    tot
  1  0.000  0.242  0.001  0.243
  2  0.000  0.008  0.091  0.099
tot  0.000  0.250  0.092  0.342
 
band  14 # energy    9.42637182 # occ.  0.00000000
 
ion      s      p      d    tot
  1  0.235  0.000  0.000  0.235
  2  0.006  0.000  0.000  0.006
tot  0.241  0.000  0.000  0.241
 
band  15 # energy   11.46780365 # occ.  0.00000000
 
ion      s      p      d    tot
  1  0.000  0.000  0.099  0.099
  2  0.000  0.000  0.238  0.238
tot  0.000  0.000  0.337  0.337
 
band  16 # energy   11.46780375 # occ.  0.00000000
 
ion      s      p      d    tot
  1  0.000  0.000  0.099  0.099
  2  0.000  0.000  0.238  0.238
tot  0.000  0.000  0.337  0.337
 
band  17 # energy   12.12576450 # occ.  0.00000000
 
ion      s      p      d    tot
  1  0.000  0.034  0.029  0.064
  2  0.000  0.008  0.016  0.024
tot  0.000  0.043  0.045  0.088
 
band  18 # energy   12.12576458 # occ.  0.00000000
 
ion      s      p      d    tot
  1  0.000  0.034  0.029  0.064
  2  0.000  0.008  0.016  0.024
tot  0.000  0.043  0.045  0.088
 
band  19 # energy   12.12576708 # occ.  0.00000000
 
ion      s      p      d    tot
  1  0.000  0.034  0.029  0.064
  2  0.000  0.008  0.016  0.024
tot  0.000  0.043  0.045  0.088
 
band  20 # energy   14.43019811 # occ.  0.00000000
 
ion      s      p      d    tot
  1  0.047  0.000  0.000  0.047
  2  0.017  0.000  0.000  0.017
tot  0.064  0.000  0.000  0.064
 
band  21 # energy   21.81909779 # occ.  0.00000000
 
ion      s      p      d    tot
  1  0.000  0.000  0.000  0.000
  2  0.000  0.000  0.000  0.000
tot  0.000  0.000  0.000  0.000
 
band  22 # energy   21.81910325 # occ.  0.00000000
 
ion      s      p      d    tot
  1  0.000  0.000  0.000  0.000
  2  0.000  0.000  0.000  0.000
tot  0.000  0.000  0.000  0.000
 
band  23 # energy   21.81910367 # occ.  0.00000000
 
ion      s      p      d    tot
  1  0.000  0.000  0.000  0.000
  2  0.000  0.000  0.000  0.000
tot  0.000  0.000  0.000  0.000
 
band  24 # energy   22.77022779 # occ.  0.00000000
 
ion      s      p      d    tot
  1  0.000  0.101  0.024  0.125
  2  0.000  0.054  0.705  0.759
tot  0.000  0.155  0.729  0.883
 

 k-point    2 :    0.16666667 0.00000000 0.00000000     weight = 0.03703704

band   1 # energy   -8.92482961 # occ.  2.00000000
 
ion      s      p      d    tot
  1  0.052  0.002  0.017  0.072
  2  0.575  0.000  0.000  0.576
tot  0.627  0.003  0.017  0.647
 
band   2 # energy   -6.07302764 # occ.  2.00000000
 
ion      s      p      d    tot
  1  0.000  0.000  0.907  0.908
  2  0.000  0.019  0.001  0.020
tot  0.000  0.020  0.908  0.928
 
band   3 # energy   -6.07302758 # occ.  2.00000000
 
ion      s      p      d    tot
  1  0.000  0.000  0.907  0.908
  2  0.000  0.019  0.001  0.020
tot  0.000  0.020  0.908  0.928
 
band   4 # energy   -6.01046813 # occ.  2.00000000
 
ion      s      p      d    tot
  1  0.005  0.000  0.886  0.891
  2  0.006  0.019  0.001  0.026
tot  0.011  0.019  0.887  0.917
 
band   5 # energy   -5.83423568 # occ.  2.00000000
 
ion      s      p      d    tot
  1  0.000  0.000  0.946  0.946
  2  0.000  0.000  0.001  0.001
tot  0.000  0.000  0.947  0.947
 
band   6 # energy   -5.83423422 # occ.  2.00000000
 
ion      s      p      d    tot
  1  0.000  0.000  0.946  0.946
  2  0.000  0.000  0.001  0.001
tot  0.000  0.000  0.947  0.947
 
band   7 # energy    0.37497957 # occ.  2.00000000
 
ion      s      p      d    tot
  1  0.121  0.025  0.057  0.203
  2  0.074  0.267  0.002  0.342
tot  0.195  0.292  0.059  0.545
 
band   8 # energy    1.91260742 # occ.  2.00000000
 
ion      s      p      d    tot
  1  0.000  0.039  0.069  0.108
  2  0.000  0.471  0.001  0.472
tot  0.000  0.510  0.070  0.580
 
band   9 # energy    1.91260757 # occ.  2.00000000
 
ion      s      p      d    tot
  1  0.000  0.039  0.069  0.108
  2  0.000  0.471  0.001  0.472
tot  0.000  0.510  0.070  0.580
 
band  10 # energy    3.89987414 # occ.  0.00000000
 
ion      s      p      d    tot
  1  0.216  0.031  0.005  0.252
  2  0.133  0.136  0.008  0.277
tot  0.349  0.167  0.014  0.529
 
band  11 # energy    6.77866092 # occ.  0.00000000
 
ion      s      p      d    tot
  1  0.048  0.123  0.013  0.184
  2  0.016  0.106  0.060  0.182
tot  0.064  0.229  0.072  0.366
 
band  12 # energy    7.02529675 # occ.  0.00000000
 
ion      s      p      d    tot
  1  0.000  0.229  0.006  0.235
  2  0.000  0.030  0.090  0.119
tot  0.000  0.259  0.096  0.354
 
band  13 # energy    7.02529701 # occ.  0.00000000
 
ion      s      p      d    tot
  1  0.000  0.229  0.006  0.235
  2  0.000  0.030  0.090  0.119
tot  0.000  0.259  0.096  0.354
 
band  14 # energy   10.42972779 # occ.  0.00000000
 
ion      s      p      d    tot
  1  0.120  0.061  0.004  0.184
  2  0.003  0.008  0.011  0.023
tot  0.123  0.069  0.015  0.207
 
band  15 # energy   10.55417908 # occ.  0.00000000
 
ion      s      p      d    tot
  1  0.000  0.007  0.076  0.083
  2  0.000  0.001  0.148  0.149
tot  0.000  0.008  0.224  0.232
 
band  16 # energy   10.55417923 # occ.  0.00000000
 
ion      s      p      d    tot
  1  0.000  0.007  0.076  0.083
  2  0.000  0.001  0.148  0.149
tot  0.000  0.008  0.224  0.232
 
band  17 # energy   11.77365248 # occ.  0.00000000
 
ion      s      p      d    tot
  1  0.053  0.053  0.026  0.131
  2  0.005  0.004  0.024  0.032
tot  0.057  0.056  0.050  0.164
 
band  18 # energy   13.94086424 # occ.  0.00000000
 
ion      s      p      d    tot
  1  0.000  0.028  0.047  0.075
  2  0.000  0.009  0.120  0.129
tot  0.000  0.036  0.168  0.204
 
band  19 # energy   13.94086437 # occ.  0.00000000
 
ion      s      p      d    tot
  1  0.000  0.028  0.047  0.075
  2  0.000  0.009  0.120  0.129
tot  0.000  0.036  0.168  0.204
 
band  20 # energy   16.15098276 # occ.  0.00000000
 
ion      s      p      d    tot
  1  0.026  0.023  0.008  0.057
  2  0.011  0.006  0.009  0.026
tot  0.037  0.029  0.017  0.083
 
band  21 # energy   19.20364960 # occ.  0.00000000
 
ion      s      p      d    tot
  1  0.000  0.028  0.065  0.093
  2  0.000  0.033  0.225  0.258
tot  0.000  0.061  0.290  0.350
 
band  22 # energy   19.20365516 # occ.  0.00000000
 
ion      s      p      d    tot
  1  0.000  0.028  0.065  0.093
  2  0.000  0.033  0.225  0.258
tot  0.000  0.061  0.290  0.350
 
band  23 # energy   19.69483464 # occ.  0.00000000
 
ion      s      p      d    tot
  1  0.016  0.087  0.041  0.143
  2  0.017  0.115  0.285  0.417
tot  0.033  0.201  0.326  0.560
 
band  24 # energy   21.98430763 # occ.  0.00000000
 
ion      s      p      d    tot
  1  0.000  0.000  0.000  0.000
  2  0.000  0.000  0.000  0.000
tot  0.000  0.000  0.000  0.000
 

 k-point    3 :    0.33333333 0.00000000 0.00000000     weight = 0.03703704

band   1 # energy   -8.72461237 # occ.  2.00000000
 
ion      s      p      d    tot
  1  0.029  0.007  0.066  0.102
  2  0.580  0.000  0.000  0.581
tot  0.610  0.008  0.066  0.683
 
band   2 # energy   -6.04124977 # occ.  2.00000000
 
ion      s      p      d    tot
  1  0.000  0.000  0.912  0.913
  2  0.000  0.017  0.001  0.018
tot  0.000  0.017  0.913  0.931
 
band   3 # energy   -6.04124962 # occ.  2.00000000
 
ion      s      p      d    tot
  1  0.000  0.000  0.912  0.913
  2  0.000  0.017  0.001  0.018
tot  0.000  0.017  0.913  0.931
 
band   4 # energy   -5.83032310 # occ.  2.00000000
 
ion      s      p      d    tot
  1  0.000  0.000  0.947  0.947
  2  0.000  0.000  0.001  0.001
tot  0.000  0.000  0.947  0.947
 
band   5 # energy   -5.83032041 # occ.  2.00000000
 
ion      s      p      d    tot
  1  0.000  0.000  0.947  0.947
  2  0.000  0.000  0.001  0.001
tot  0.000  0.000  0.947  0.947
 
band   6 # energy   -5.73754340 # occ.  2.00000000
 
ion      s      p      d    tot
  1  0.011  0.001  0.851  0.863
  2  0.035  0.012  0.001  0.048
tot  0.046  0.013  0.852  0.910
 
band   7 # energy   -1.45337163 # occ.  2.00000000
 
ion      s      p      d    tot
  1  0.146  0.027  0.037  0.211
  2  0.040  0.229  0.002  0.271
tot  0.187  0.257  0.039  0.482
 
band   8 # energy    1.53292273 # occ.  2.00000000
 
ion      s      p      d    tot
  1  0.000  0.055  0.054  0.109
  2  0.000  0.445  0.001  0.446
tot  0.000  0.500  0.056  0.555
 
band   9 # energy    1.53292293 # occ.  2.00000000
 
ion      s      p      d    tot
  1  0.000  0.055  0.054  0.109
  2  0.000  0.445  0.001  0.446
tot  0.000  0.500  0.056  0.555
 
band  10 # energy    3.97181339 # occ.  0.00000000
 
ion      s      p      d    tot
  1  0.236  0.039  0.005  0.280
  2  0.102  0.057  0.024  0.184
tot  0.339  0.096  0.029  0.464
 
band  11 # energy    7.30690106 # occ.  0.00000000
 
ion      s      p      d    tot
  1  0.000  0.181  0.022  0.203
  2  0.000  0.038  0.089  0.127
tot  0.000  0.219  0.112  0.331
 
band  12 # energy    7.30690118 # occ.  0.00000000
 
ion      s      p      d    tot
  1  0.000  0.181  0.022  0.203
  2  0.000  0.038  0.089  0.127
tot  0.000  0.219  0.112  0.331
 
band  13 # energy    8.27825602 # occ.  0.00000000
 
ion      s      p      d    tot
  1  0.035  0.057  0.015  0.107
  2  0.024  0.248  0.025  0.297
tot  0.059  0.305  0.040  0.404
 
band  14 # energy   10.06276886 # occ.  0.00000000
 
ion      s      p      d    tot
  1  0.083  0.016  0.013  0.112
  2  0.011  0.005  0.011  0.027
tot  0.094  0.021  0.024  0.139
 
band  15 # energy   10.95783459 # occ.  0.00000000
 
ion      s      p      d    tot
  1  0.000  0.040  0.062  0.103
  2  0.000  0.019  0.150  0.169
tot  0.000  0.059  0.212  0.271
 
band  16 # energy   10.95783464 # occ.  0.00000000
 
ion      s      p      d    tot
  1  0.000  0.040  0.062  0.103
  2  0.000  0.019  0.150  0.169
tot  0.000  0.059  0.212  0.271
 
band  17 # energy   14.20346544 # occ.  0.00000000
 
ion      s      p      d    tot
  1  0.034  0.228  0.010  0.272
  2  0.006  0.064  0.018  0.087
tot  0.040  0.291  0.028  0.359
 
band  18 # energy   15.78275220 # occ.  0.00000000
 
ion      s      p      d    tot
  1  0.000  0.054  0.036  0.090
  2  0.000  0.019  0.239  0.257
tot  0.000  0.073  0.274  0.348
 
band  19 # energy   15.78275225 # occ.  0.00000000
 
ion      s      p      d    tot
  1  0.000  0.054  0.036  0.090
  2  0.000  0.019  0.239  0.257
tot  0.000  0.073  0.274  0.348
 
band  20 # energy   16.42542476 # occ.  0.00000000
 
ion      s      p      d    tot
  1  0.052  0.014  0.038  0.104
  2  0.042  0.050  0.233  0.325
tot  0.095  0.064  0.270  0.429
 
band  21 # energy   16.87399616 # occ.  0.00000000
 
ion      s      p      d    tot
  1  0.000  0.004  0.086  0.090
  2  0.000  0.038  0.094  0.132
tot  0.000  0.042  0.180  0.222
 
band  22 # energy   16.87400074 # occ.  0.00000000
 
ion      s      p      d    tot
  1  0.000  0.004  0.086  0.090
  2  0.000  0.038  0.094  0.132
tot  0.000  0.042  0.180  0.222
 
band  23 # energy   19.38735326 # occ.  0.00000000
 
ion      s      p      d    tot
  1  0.010  0.042  0.013  0.065
  2  0.007  0.012  0.011  0.030
tot  0.017  0.055  0.023  0.095
 
band  24 # energy   22.37302726 # occ.  0.00000000
 
ion      s      p      d    tot
  1  0.000  0.000  0.000  0.000
  2  0.000  0.000  0.000  0.000
tot  0.000  0.000  0.000  0.000
 

 k-point    4 :    0.50000000 0.00000000 0.00000000     weight = 0.01851852

band   1 # energy   -8.62611392 # occ.  2.00000000
 
ion      s      p      d    tot
  1  0.017  0.010  0.098  0.125
  2  0.579  0.000  0.000  0.579
tot  0.596  0.010  0.098  0.704
 
band   2 # energy   -6.02890423 # occ.  2.00000000
 
ion      s      p      d    tot
  1  0.000  0.000  0.914  0.915
  2  0.000  0.016  0.001  0.017
tot  0.000  0.016  0.915  0.931
 
band   3 # energy   -6.02890400 # occ.  2.00000000
 
ion      s      p      d    tot
  1  0.000  0.000  0.914  0.915
  2  0.000  0.016  0.001  0.017
tot  0.000  0.016  0.915  0.931
 
band   4 # energy   -5.82421039 # occ.  2.00000000
 
ion      s      p      d    tot
  1  0.000  0.000  0.948  0.948
  2  0.000  0.000  0.001  0.001
tot  0.000  0.000  0.949  0.949
 
band   5 # energy   -5.82420786 # occ.  2.00000000
 
ion      s      p      d    tot
  1  0.000  0.000  0.948  0.948
  2  0.000  0.000  0.001  0.001
tot  0.000  0.000  0.949  0.949
 
band   6 # energy   -5.49307341 # occ.  2.00000000
 
ion      s      p      d    tot
  1  0.006  0.002  0.852  0.860
  2  0.068  0.001  0.001  0.070
tot  0.074  0.002  0.853  0.929
 
band   7 # energy   -2.28877128 # occ.  2.00000000
 
ion      s      p      d    tot
  1  0.166  0.026  0.000  0.192
  2  0.007  0.228  0.001  0.237
tot  0.174  0.254  0.001  0.429
 
band   8 # energy    1.36824435 # occ.  2.00000000
 
ion      s      p      d    tot
  1  0.000  0.061  0.048  0.109
  2  0.000  0.436  0.001  0.438
tot  0.000  0.497  0.049  0.546
 
band   9 # energy    1.36824457 # occ.  2.00000000
 
ion      s      p      d    tot
  1  0.000  0.061  0.048  0.109
  2  0.000  0.436  0.001  0.438
tot  0.000  0.497  0.049  0.546
 
band  10 # energy    3.86203514 # occ.  0.00000000
 
ion      s      p      d    tot
  1  0.245  0.031  0.009  0.285
  2  0.098  0.044  0.027  0.169
tot  0.343  0.075  0.036  0.454
 
band  11 # energy    7.27025729 # occ.  0.00000000
 
ion      s      p      d    tot
  1  0.000  0.154  0.031  0.185
  2  0.000  0.033  0.090  0.123
tot  0.000  0.187  0.121  0.308
 
band  12 # energy    7.27025734 # occ.  0.00000000
 
ion      s      p      d    tot
  1  0.000  0.154  0.031  0.185
  2  0.000  0.033  0.090  0.123
tot  0.000  0.187  0.121  0.308
 
band  13 # energy    9.06557147 # occ.  0.00000000
 
ion      s      p      d    tot
  1  0.000  0.035  0.024  0.059
  2  0.001  0.165  0.002  0.168
tot  0.001  0.200  0.026  0.227
 
band  14 # energy   10.63065069 # occ.  0.00000000
 
ion      s      p      d    tot
  1  0.115  0.001  0.000  0.116
  2  0.004  0.211  0.009  0.224
tot  0.120  0.211  0.009  0.340
 
band  15 # energy   12.37790741 # occ.  0.00000000
 
ion      s      p      d    tot
  1  0.000  0.097  0.022  0.120
  2  0.000  0.035  0.166  0.201
tot  0.000  0.132  0.188  0.321
 
band  16 # energy   12.37790748 # occ.  0.00000000
 
ion      s      p      d    tot
  1  0.000  0.097  0.022  0.120
  2  0.000  0.035  0.166  0.201
tot  0.000  0.132  0.188  0.321
 
band  17 # energy   13.37903818 # occ.  0.00000000
 
ion      s      p      d    tot
  1  0.026  0.207  0.014  0.246
  2  0.073  0.004  0.107  0.185
tot  0.099  0.211  0.122  0.431
 
band  18 # energy   13.70481473 # occ.  0.00000000
 
ion      s      p      d    tot
  1  0.000  0.009  0.104  0.112
  2  0.000  0.036  0.181  0.217
tot  0.000  0.045  0.285  0.330
 
band  19 # energy   13.70481477 # occ.  0.00000000
 
ion      s      p      d    tot
  1  0.000  0.009  0.104  0.112
  2  0.000  0.036  0.181  0.217
tot  0.000  0.045  0.285  0.330
 
band  20 # energy   17.99238900 # occ.  0.00000000
 
ion      s      p      d    tot
  1  0.000  0.153  0.003  0.156
  2  0.009  0.038  0.097  0.145
tot  0.009  0.192  0.101  0.301
 
band  21 # energy   19.49583453 # occ.  0.00000000
 
ion      s      p      d    tot
  1  0.000  0.018  0.015  0.034
  2  0.000  0.028  0.049  0.077
tot  0.000  0.046  0.064  0.110
 
band  22 # energy   19.49583910 # occ.  0.00000000
 
ion      s      p      d    tot
  1  0.000  0.018  0.015  0.034
  2  0.000  0.028  0.049  0.077
tot  0.000  0.046  0.064  0.110
 
band  23 # energy   20.17652081 # occ.  0.00000000
 
ion      s      p      d    tot
  1  0.085  0.000  0.079  0.163
  2  0.003  0.007  0.364  0.375
tot  0.088  0.007  0.443  0.538
 
band  24 # energy   20.49635762 # occ.  0.00000000
 
ion      s      p      d    tot
  1  0.000  0.004  0.073  0.077
  2  0.000  0.010  0.349  0.359
tot  0.000  0.014  0.422  0.436
 

 k-point    5 :    0.16666667 0.16666667 0.00000000     weight = 0.02777778

band   1 # energy   -8.89190190 # occ.  2.00000000
 
ion      s      p      d    tot
  1  0.048  0.003  0.023  0.075
  2  0.577  0.000  0.000  0.577
tot  0.625  0.004  0.023  0.652
 
band   2 # energy   -6.05428922 # occ.  2.00000000
 
ion      s      p      d    tot
  1  0.000  0.000  0.910  0.911
  2  0.000  0.018  0.001  0.019
tot  0.000  0.018  0.911  0.930
 
band   3 # energy   -6.05428918 # occ.  2.00000000
 
ion      s      p      d    tot
  1  0.000  0.000  0.910  0.911
  2  0.000  0.018  0.001  0.019
tot  0.000  0.018  0.911  0.930
 
band   4 # energy   -6.01149473 # occ.  2.00000000
 
ion      s      p      d    tot
  1  0.006  0.000  0.877  0.883
  2  0.007  0.021  0.000  0.029
tot  0.013  0.021  0.877  0.912
 
band   5 # energy   -5.84129172 # occ.  2.00000000
 
ion      s      p      d    tot
  1  0.000  0.000  0.942  0.942
  2  0.001  0.000  0.001  0.002
tot  0.001  0.000  0.943  0.945
 
band   6 # energy   -5.82544141 # occ.  2.00000000
 
ion      s      p      d    tot
  1  0.000  0.000  0.947  0.947
  2  0.000  0.000  0.001  0.001
tot  0.000  0.000  0.948  0.948
 
band   7 # energy    0.36554156 # occ.  2.00000000
 
ion      s      p      d    tot
  1  0.153  0.013  0.063  0.229
  2  0.090  0.249  0.002  0.341
tot  0.243  0.262  0.065  0.570
 
band   8 # energy    1.53563239 # occ.  2.00000000
 
ion      s      p      d    tot
  1  0.000  0.053  0.058  0.111
  2  0.000  0.433  0.002  0.435
tot  0.000  0.486  0.060  0.546
 
band   9 # energy    1.53563248 # occ.  2.00000000
 
ion      s      p      d    tot
  1  0.000  0.053  0.058  0.111
  2  0.000  0.433  0.002  0.435
tot  0.000  0.486  0.060  0.546
 
band  10 # energy    4.54832303 # occ.  0.00000000
 
ion      s      p      d    tot
  1  0.203  0.008  0.016  0.227
  2  0.104  0.245  0.004  0.353
tot  0.307  0.253  0.020  0.580
 
band  11 # energy    5.77222796 # occ.  0.00000000
 
ion      s      p      d    tot
  1  0.037  0.164  0.004  0.205
  2  0.019  0.000  0.063  0.083
tot  0.056  0.164  0.067  0.288
 
band  12 # energy    7.63246949 # occ.  0.00000000
 
ion      s      p      d    tot
  1  0.000  0.211  0.011  0.222
  2  0.000  0.076  0.091  0.167
tot  0.000  0.287  0.102  0.389
 
band  13 # energy    7.63246969 # occ.  0.00000000
 
ion      s      p      d    tot
  1  0.000  0.211  0.011  0.222
  2  0.000  0.076  0.091  0.167
tot  0.000  0.287  0.102  0.389
 
band  14 # energy    9.23300675 # occ.  0.00000000
 
ion      s      p      d    tot
  1  0.000  0.007  0.064  0.071
  2  0.009  0.010  0.087  0.106
tot  0.009  0.017  0.151  0.177
 
band  15 # energy   11.18809429 # occ.  0.00000000
 
ion      s      p      d    tot
  1  0.157  0.093  0.005  0.255
  2  0.000  0.006  0.029  0.035
tot  0.157  0.099  0.033  0.290
 
band  16 # energy   11.70882726 # occ.  0.00000000
 
ion      s      p      d    tot
  1  0.000  0.000  0.088  0.088
  2  0.000  0.000  0.248  0.248
tot  0.000  0.000  0.335  0.335
 
band  17 # energy   12.88170474 # occ.  0.00000000
 
ion      s      p      d    tot
  1  0.000  0.038  0.034  0.071
  2  0.000  0.005  0.020  0.025
tot  0.000  0.042  0.054  0.096
 
band  18 # energy   12.88170755 # occ.  0.00000000
 
ion      s      p      d    tot
  1  0.000  0.038  0.034  0.071
  2  0.000  0.005  0.020  0.025
tot  0.000  0.042  0.054  0.096
 
band  19 # energy   13.49077511 # occ.  0.00000000
 
ion      s      p      d    tot
  1  0.013  0.005  0.044  0.062
  2  0.006  0.003  0.127  0.135
tot  0.019  0.008  0.171  0.197
 
band  20 # energy   17.14677530 # occ.  0.00000000
 
ion      s      p      d    tot
  1  0.015  0.035  0.016  0.066
  2  0.009  0.008  0.059  0.076
tot  0.024  0.042  0.075  0.142
 
band  21 # energy   19.02634922 # occ.  0.00000000
 
ion      s      p      d    tot
  1  0.000  0.053  0.056  0.109
  2  0.000  0.061  0.318  0.379
tot  0.000  0.114  0.375  0.488
 
band  22 # energy   19.02635556 # occ.  0.00000000
 
ion      s      p      d    tot
  1  0.000  0.053  0.056  0.109
  2  0.000  0.061  0.318  0.379
tot  0.000  0.114  0.375  0.488
 
band  23 # energy   19.54307346 # occ.  0.00000000
 
ion      s      p      d    tot
  1  0.000  0.000  0.076  0.076
  2  0.000  0.000  0.098  0.098
tot  0.000  0.000  0.174  0.174
 
band  24 # energy   20.38161031 # occ.  0.00000000
 
ion      s      p      d    tot
  1  0.027  0.087  0.033  0.147
  2  0.028  0.131  0.112  0.270
tot  0.055  0.217  0.145  0.417
 

 k-point    6 :    0.33333333 0.16666667 0.00000000     weight = 0.11111111

band   1 # energy   -8.72619209 # occ.  2.00000000
 
ion      s      p      d    tot
  1  0.029  0.008  0.064  0.101
  2  0.581  0.000  0.000  0.581
tot  0.610  0.008  0.064  0.682
 
band   2 # energy   -6.02954954 # occ.  2.00000000
 
ion      s      p      d    tot
  1  0.000  0.000  0.913  0.913
  2  0.000  0.016  0.001  0.017
tot  0.001  0.017  0.913  0.931
 
band   3 # energy   -6.01829520 # occ.  2.00000000
 
ion      s      p      d    tot
  1  0.000  0.001  0.917  0.917
  2  0.000  0.015  0.001  0.016
tot  0.000  0.016  0.918  0.934
 
band   4 # energy   -5.88415847 # occ.  2.00000000
 
ion      s      p      d    tot
  1  0.003  0.000  0.914  0.917
  2  0.004  0.007  0.001  0.012
tot  0.007  0.008  0.915  0.929
 
band   5 # energy   -5.81968373 # occ.  2.00000000
 
ion      s      p      d    tot
  1  0.000  0.000  0.948  0.948
  2  0.000  0.000  0.001  0.001
tot  0.000  0.000  0.949  0.949
 
band   6 # energy   -5.76204579 # occ.  2.00000000
 
ion      s      p      d    tot
  1  0.009  0.000  0.872  0.882
  2  0.027  0.009  0.001  0.037
tot  0.036  0.009  0.873  0.919
 
band   7 # energy   -1.00336040 # occ.  2.00000000
 
ion      s      p      d    tot
  1  0.165  0.019  0.052  0.235
  2  0.057  0.229  0.002  0.288
tot  0.222  0.248  0.054  0.524
 
band   8 # energy    1.01203510 # occ.  2.00000000
 
ion      s      p      d    tot
  1  0.022  0.058  0.047  0.126
  2  0.007  0.376  0.003  0.387
tot  0.029  0.434  0.050  0.513
 
band   9 # energy    1.12892674 # occ.  2.00000000
 
ion      s      p      d    tot
  1  0.000  0.065  0.045  0.110
  2  0.000  0.410  0.002  0.412
tot  0.000  0.475  0.047  0.521
 
band  10 # energy    4.92624373 # occ.  0.00000000
 
ion      s      p      d    tot
  1  0.201  0.029  0.015  0.245
  2  0.061  0.174  0.025  0.260
tot  0.262  0.204  0.039  0.506
 
band  11 # energy    6.10517974 # occ.  0.00000000
 
ion      s      p      d    tot
  1  0.043  0.129  0.012  0.184
  2  0.035  0.073  0.048  0.156
tot  0.078  0.202  0.060  0.340
 
band  12 # energy    7.77534835 # occ.  0.00000000
 
ion      s      p      d    tot
  1  0.001  0.095  0.033  0.128
  2  0.009  0.072  0.073  0.154
tot  0.009  0.167  0.106  0.282
 
band  13 # energy    8.19586462 # occ.  0.00000000
 
ion      s      p      d    tot
  1  0.000  0.178  0.021  0.199
  2  0.000  0.091  0.092  0.183
tot  0.000  0.269  0.114  0.382
 
band  14 # energy    9.93562590 # occ.  0.00000000
 
ion      s      p      d    tot
  1  0.012  0.071  0.042  0.124
  2  0.011  0.120  0.076  0.207
tot  0.023  0.191  0.118  0.332
 
band  15 # energy   11.78934660 # occ.  0.00000000
 
ion      s      p      d    tot
  1  0.058  0.051  0.023  0.132
  2  0.002  0.005  0.052  0.059
tot  0.060  0.056  0.075  0.191
 
band  16 # energy   11.84536195 # occ.  0.00000000
 
ion      s      p      d    tot
  1  0.000  0.028  0.063  0.091
  2  0.000  0.012  0.203  0.216
tot  0.000  0.041  0.266  0.307
 
band  17 # energy   13.70654944 # occ.  0.00000000
 
ion      s      p      d    tot
  1  0.040  0.159  0.018  0.217
  2  0.003  0.022  0.046  0.071
tot  0.043  0.182  0.063  0.287
 
band  18 # energy   14.82224391 # occ.  0.00000000
 
ion      s      p      d    tot
  1  0.000  0.045  0.019  0.064
  2  0.000  0.001  0.109  0.111
tot  0.000  0.046  0.128  0.174
 
band  19 # energy   15.94535321 # occ.  0.00000000
 
ion      s      p      d    tot
  1  0.016  0.026  0.031  0.074
  2  0.009  0.027  0.154  0.190
tot  0.025  0.053  0.186  0.264
 
band  20 # energy   16.01484649 # occ.  0.00000000
 
ion      s      p      d    tot
  1  0.000  0.022  0.106  0.128
  2  0.000  0.053  0.173  0.226
tot  0.000  0.076  0.279  0.355
 
band  21 # energy   16.21579128 # occ.  0.00000000
 
ion      s      p      d    tot
  1  0.019  0.029  0.056  0.105
  2  0.021  0.027  0.170  0.218
tot  0.040  0.056  0.226  0.323
 
band  22 # energy   19.22689381 # occ.  0.00000000
 
ion      s      p      d    tot
  1  0.001  0.095  0.019  0.114
  2  0.004  0.085  0.290  0.380
tot  0.005  0.180  0.309  0.494
 
band  23 # energy   19.75166806 # occ.  0.00000000
 
ion      s      p      d    tot
  1  0.000  0.019  0.069  0.088
  2  0.000  0.020  0.196  0.215
tot  0.000  0.038  0.265  0.303
 
band  24 # energy   20.05010953 # occ.  0.00000000
 
ion      s      p      d    tot
  1  0.015  0.029  0.024  0.068
  2  0.001  0.056  0.036  0.093
tot  0.016  0.085  0.059  0.160
 

 k-point    7 :    0.50000000 0.16666667 0.00000000     weight = 0.11111111

band   1 # energy   -8.59640895 # occ.  2.00000000
 
ion      s      p      d    tot
  1  0.013  0.011  0.107  0.130
  2  0.579  0.000  0.000  0.579
tot  0.592  0.011  0.107  0.709
 
band   2 # energy   -6.01499899 # occ.  2.00000000
 
ion      s      p      d    tot
  1  0.000  0.000  0.916  0.916
  2  0.000  0.014  0.001  0.015
tot  0.000  0.015  0.917  0.932
 
band   3 # energy   -6.00295389 # occ.  2.00000000
 
ion      s      p      d    tot
  1  0.000  0.001  0.919  0.920
  2  0.000  0.014  0.001  0.015
tot  0.000  0.015  0.920  0.935
 
band   4 # energy   -5.84927697 # occ.  2.00000000
 
ion      s      p      d    tot
  1  0.000  0.000  0.942  0.942
  2  0.000  0.001  0.001  0.002
tot  0.000  0.001  0.942  0.944
 
band   5 # energy   -5.82126448 # occ.  2.00000000
 
ion      s      p      d    tot
  1  0.000  0.000  0.948  0.948
  2  0.000  0.000  0.001  0.001
tot  0.000  0.000  0.949  0.949
 
band   6 # energy   -5.46929834 # occ.  2.00000000
 
ion      s      p      d    tot
  1  0.007  0.002  0.839  0.848
  2  0.073  0.003  0.001  0.077
tot  0.080  0.005  0.840  0.925
 
band   7 # energy   -2.07890134 # occ.  2.00000000
 
ion      s      p      d    tot
  1  0.184  0.021  0.010  0.214
  2  0.013  0.226  0.002  0.241
tot  0.196  0.247  0.012  0.455
 
band   8 # energy    0.48509998 # occ.  2.00000000
 
ion      s      p      d    tot
  1  0.035  0.059  0.040  0.134
  2  0.011  0.339  0.003  0.353
tot  0.045  0.398  0.043  0.486
 
band   9 # energy    1.04770269 # occ.  2.00000000
 
ion      s      p      d    tot
  1  0.000  0.068  0.040  0.108
  2  0.000  0.411  0.001  0.413
tot  0.000  0.479  0.041  0.520
 
band  10 # energy    4.83511040 # occ.  0.00000000
 
ion      s      p      d    tot
  1  0.195  0.039  0.015  0.249
  2  0.061  0.134  0.030  0.226
tot  0.257  0.174  0.045  0.475
 
band  11 # energy    6.76420146 # occ.  0.00000000
 
ion      s      p      d    tot
  1  0.028  0.094  0.027  0.149
  2  0.009  0.083  0.061  0.153
tot  0.037  0.178  0.087  0.302
 
band  12 # energy    8.01731719 # occ.  0.00000000
 
ion      s      p      d    tot
  1  0.000  0.148  0.031  0.178
  2  0.000  0.067  0.093  0.160
tot  0.000  0.215  0.124  0.339
 
band  13 # energy    8.62123420 # occ.  0.00000000
 
ion      s      p      d    tot
  1  0.021  0.080  0.030  0.131
  2  0.018  0.158  0.050  0.226
tot  0.039  0.238  0.079  0.357
 
band  14 # energy   10.83784131 # occ.  0.00000000
 
ion      s      p      d    tot
  1  0.009  0.077  0.028  0.113
  2  0.002  0.112  0.035  0.149
tot  0.011  0.189  0.063  0.262
 
band  15 # energy   12.02841633 # occ.  0.00000000
 
ion      s      p      d    tot
  1  0.057  0.032  0.026  0.114
  2  0.008  0.074  0.043  0.124
tot  0.065  0.106  0.068  0.239
 
band  16 # energy   12.46971748 # occ.  0.00000000
 
ion      s      p      d    tot
  1  0.000  0.089  0.031  0.120
  2  0.000  0.028  0.192  0.220
tot  0.000  0.117  0.223  0.340
 
band  17 # energy   13.32326496 # occ.  0.00000000
 
ion      s      p      d    tot