  12  12   1   0
  0.2070820E+02  0.6290120E-09  0.6273890E-09  0.6297040E-09  0.5000000E-15
  1.000000000000000E-004
  CAR 
 Name                                    
     10.63953865    -22.34399118  301      1.30107677      1.00000000
    -22.344  0.0000E+00  0.0000E+00
    -22.234  0.0000E+00  0.0000E+00
    -22.124  0.0000E+00  0.0000E+00
    -22.014  0.0000E+00  0.0000E+00
    -21.904  0.0000E+00  0.0000E+00
    -21.794  0.0000E+00  0.0000E+00
    -21.684  0.0000E+00  0.0000E+00
    -21.574  0.0000E+00  0.0000E+00
    -21.464  0.0000E+00  0.0000E+00
    -21.354  0.0000E+00  0.0000E+00
    -21.245  0.0000E+00  0.0000E+00
    -21.135  0.0000E+00  0.0000E+00
    -21.025  0.0000E+00  0.0000E+00
    -20.915  0.0000E+00  0.0000E+00
    -20.805  0.1819E+02  0.2000E+01
    -20.695  0.0000E+00  0.2000E+01
    -20.585  0.0000E+00  0.2000E+01
    -20.475  0.0000E+00  0.2000E+01
    -20.365  0.0000E+00  0.2000E+01
    -20.255  0.0000E+00  0.2000E+01
    -20.145  0.0000E+00  0.2000E+01
    -20.035  0.0000E+00  0.2000E+01
    -19.925  0.0000E+00  0.2000E+01
    -19.815  0.0000E+00  0.2000E+01
    -19.705  0.0000E+00  0.2000E+01
    -19.595  0.0000E+00  0.2000E+01
    -19.485  0.0000E+00  0.2000E+01
    -19.375  0.0000E+00  0.2000E+01
    -19.266  0.0000E+00  0.2000E+01
    -19.156  0.0000E+00  0.2000E+01
    -19.046  0.0000E+00  0.2000E+01
    -18.936  0.0000E+00  0.2000E+01
    -18.826  0.0000E+00  0.2000E+01
    -18.716  0.0000E+00  0.2000E+01
    -18.606  0.0000E+00  0.2000E+01
    -18.496  0.0000E+00  0.2000E+01
    -18.386  0.0000E+00  0.2000E+01
    -18.276  0.0000E+00  0.2000E+01
    -18.166  0.0000E+00  0.2000E+01
    -18.056  0.0000E+00  0.2000E+01
    -17.946  0.0000E+00  0.2000E+01
    -17.836  0.0000E+00  0.2000E+01
    -17.726  0.0000E+00  0.2000E+01
    -17.616  0.0000E+00  0.2000E+01
    -17.506  0.0000E+00  0.2000E+01
    -17.396  0.0000E+00  0.2000E+01
    -17.287  0.0000E+00  0.2000E+01
    -17.177  0.6938E+00  0.2076E+01
    -17.067  0.7093E+02  0.1180E+02
    -16.957  0.0000E+00  0.1200E+02
    -16.847  0.0000E+00  0.1200E+02
    -16.737  0.0000E+00  0.1200E+02
    -16.627  0.0000E+00  0.1200E+02
    -16.517  0.0000E+00  0.1200E+02
    -16.407  0.0000E+00  0.1200E+02
    -16.297  0.0000E+00  0.1200E+02
    -16.187  0.0000E+00  0.1200E+02
    -16.077  0.0000E+00  0.1200E+02
    -15.967  0.0000E+00  0.1200E+02
    -15.857  0.0000E+00  0.1200E+02
    -15.747  0.0000E+00  0.1200E+02
    -15.637  0.0000E+00  0.1200E+02
    -15.527  0.0000E+00  0.1200E+02
    -15.417  0.0000E+00  0.1200E+02
    -15.308  0.0000E+00  0.1200E+02
    -15.198  0.0000E+00  0.1200E+02
    -15.088  0.0000E+00  0.1200E+02
    -14.978  0.0000E+00  0.1200E+02
    -14.868  0.0000E+00  0.1200E+02
    -14.758  0.0000E+00  0.1200E+02
    -14.648  0.0000E+00  0.1200E+02
    -14.538  0.0000E+00  0.1200E+02
    -14.428  0.0000E+00  0.1200E+02
    -14.318  0.0000E+00  0.1200E+02
    -14.208  0.0000E+00  0.1200E+02
    -14.098  0.0000E+00  0.1200E+02
    -13.988  0.0000E+00  0.1200E+02
    -13.878  0.0000E+00  0.1200E+02
    -13.768  0.0000E+00  0.1200E+02
    -13.658  0.0000E+00  0.1200E+02
    -13.548  0.0000E+00  0.1200E+02
    -13.438  0.0000E+00  0.1200E+02
    -13.328  0.2968E+01  0.1233E+02
    -13.219  0.2442E+01  0.1400E+02
    -13.109  0.0000E+00  0.1400E+02
    -12.999  0.0000E+00  0.1400E+02
    -12.889  0.0000E+00  0.1400E+02
    -12.779  0.0000E+00  0.1400E+02
    -12.669  0.0000E+00  0.1400E+02
    -12.559  0.0000E+00  0.1400E+02
    -12.449  0.0000E+00  0.1400E+02
    -12.339  0.9650E-01  0.1401E+02
    -12.229  0.1731E+01  0.1426E+02
    -12.119  0.4389E+01  0.1479E+02
    -12.009  0.5142E+01  0.1551E+02
    -11.899  0.3536E+01  0.1605E+02
    -11.789  0.6335E+01  0.1684E+02
    -11.679  0.4387E+01  0.1750E+02
    -11.569  0.2475E+01  0.1799E+02
    -11.459  0.5623E+01  0.1865E+02
    -11.349  0.5237E+01  0.1970E+02
    -11.240  0.5895E+00  0.2000E+02
    -11.130  0.0000E+00  0.2000E+02
    -11.020  0.0000E+00  0.2000E+02
    -10.910  0.0000E+00  0.2000E+02
    -10.800  0.0000E+00  0.2000E+02
    -10.690  0.0000E+00  0.2000E+02
    -10.580  0.0000E+00  0.2000E+02
    -10.470  0.0000E+00  0.2000E+02
    -10.360  0.0000E+00  0.2000E+02
    -10.250  0.0000E+00  0.2000E+02
    -10.140  0.0000E+00  0.2000E+02
    -10.030  0.0000E+00  0.2000E+02
     -9.920  0.0000E+00  0.2000E+02
     -9.810  0.0000E+00  0.2000E+02
     -9.700  0.0000E+00  0.2000E+02
     -9.590  0.0000E+00  0.2000E+02
     -9.480  0.0000E+00  0.2000E+02
     -9.370  0.0000E+00  0.2000E+02
     -9.261  0.1020E+01  0.2011E+02
     -9.151  0.8826E+01  0.2197E+02
     -9.041  0.1496E+02  0.2364E+02
     -8.931  0.0000E+00  0.2400E+02
     -8.821  0.0000E+00  0.2400E+02
     -8.711  0.0000E+00  0.2400E+02
     -8.601  0.0000E+00  0.2400E+02
     -8.491  0.0000E+00  0.2400E+02
     -8.381  0.0000E+00  0.2400E+02
     -8.271  0.0000E+00  0.2400E+02
     -8.161  0.0000E+00  0.2400E+02
     -8.051  0.1788E-01  0.2400E+02
     -7.941  0.7770E-10  0.2401E+02
     -7.831  0.5053E+00  0.2406E+02
     -7.721  0.1010E+01  0.2418E+02
     -7.611  0.1590E+00  0.2419E+02
     -7.501  0.5053E+00  0.2431E+02
     -7.391  0.2007E+01  0.2453E+02
     -7.282  0.1581E+01  0.2471E+02
     -7.172  0.1011E+01  0.2489E+02
     -7.062  0.1024E+02  0.2602E+02
     -6.952  0.2359E+01  0.2712E+02
     -6.842  0.1347E+01  0.2744E+02
     -6.732  0.2006E+01  0.2766E+02
     -6.622  0.6322E+00  0.2775E+02
     -6.512  0.5053E+00  0.2782E+02
     -6.402  0.1011E+01  0.2794E+02
     -6.292  0.6431E-13  0.2794E+02
     -6.182  0.5053E+00  0.2799E+02
     -6.072  0.2861E-11  0.2799E+02
     -5.962  0.8422E-01  0.2800E+02
     -5.852  0.0000E+00  0.2800E+02
     -5.742  0.0000E+00  0.2800E+02
     -5.632  0.0000E+00  0.2800E+02
     -5.522  0.0000E+00  0.2800E+02
     -5.412  0.0000E+00  0.2800E+02
     -5.303  0.0000E+00  0.2800E+02
     -5.193  0.0000E+00  0.2800E+02
     -5.083  0.0000E+00  0.2800E+02
     -4.973  0.0000E+00  0.2800E+02
     -4.863  0.2312E-08  0.2800E+02
     -4.753  0.2358E+02  0.3059E+02
     -4.643  0.8422E-01  0.3200E+02
     -4.533  0.0000E+00  0.3200E+02
     -4.423  0.0000E+00  0.3200E+02
     -4.313  0.0000E+00  0.3200E+02
     -4.203  0.0000E+00  0.3200E+02
     -4.093  0.0000E+00  0.3200E+02
     -3.983  0.0000E+00  0.3200E+02
     -3.873  0.0000E+00  0.3200E+02
     -3.763  0.0000E+00  0.3200E+02
     -3.653  0.0000E+00  0.3200E+02
     -3.543  0.0000E+00  0.3200E+02
     -3.433  0.0000E+00  0.3200E+02
     -3.323  0.0000E+00  0.3200E+02
     -3.214  0.0000E+00  0.3200E+02
     -3.104  0.0000E+00  0.3200E+02
     -2.994  0.0000E+00  0.3200E+02
     -2.884  0.1589E-15  0.3200E+02
     -2.774  0.1163E+01  0.3213E+02
     -2.664  0.3238E+01  0.3252E+02
     -2.554  0.2249E+01  0.3285E+02
     -2.444  0.1523E+01  0.3305E+02
     -2.334  0.1845E+01  0.3332E+02
     -2.224  0.2831E+01  0.3383E+02
     -2.114  0.4066E+01  0.3434E+02
     -2.004  0.2671E+01  0.3474E+02
     -1.894  0.8578E+00  0.3495E+02
     -1.784  0.4675E-17  0.3500E+02
     -1.674  0.2523E+00  0.3503E+02
     -1.564  0.2114E+01  0.3526E+02
     -1.454  0.3425E+01  0.3580E+02
     -1.344  0.6940E+01  0.3685E+02
     -1.235  0.3279E+01  0.3763E+02
     -1.125  0.3575E+01  0.3819E+02
     -1.015  0.4893E+01  0.3881E+02
     -0.905  0.3855E+01  0.3936E+02
     -0.795  0.7210E+01  0.4028E+02
     -0.685  0.6781E+01  0.4129E+02
     -0.575  0.4530E+01  0.4192E+02
     -0.465  0.9576E+01  0.4310E+02
     -0.355  0.7151E+01  0.4411E+02
     -0.245  0.6514E+01  0.4517E+02
     -0.135  0.8145E+01  0.4615E+02
     -0.025  0.7222E+01  0.4728E+02
      0.085  0.6693E+01  0.4812E+02
      0.195  0.3920E+01  0.4887E+02
      0.305  0.3149E+01  0.4928E+02
      0.415  0.3390E+00  0.4932E+02
      0.525  0.2336E+01  0.4961E+02
      0.635  0.4119E+00  0.4967E+02
      0.744  0.6992E+00  0.4984E+02
      0.854  0.4216E+00  0.4989E+02
      0.964  0.4208E+00  0.4995E+02
      1.074  0.3330E+00  0.4999E+02
      1.184  0.0000E+00  0.4999E+02
      1.294  0.8422E-01  0.5000E+02
      1.404  0.0000E+00  0.5000E+02
      1.514  0.0000E+00  0.5000E+02
      1.624  0.0000E+00  0.5000E+02
      1.734  0.0000E+00  0.5000E+02
      1.844  0.0000E+00  0.5000E+02
      1.954  0.0000E+00  0.5000E+02
      2.064  0.0000E+00  0.5000E+02
      2.174  0.0000E+00  0.5000E+02
      2.284  0.0000E+00  0.5000E+02
      2.394  0.0000E+00  0.5000E+02
      2.504  0.0000E+00  0.5000E+02
      2.614  0.0000E+00  0.5000E+02
      2.723  0.0000E+00  0.5000E+02
      2.833  0.0000E+00  0.5000E+02
      2.943  0.0000E+00  0.5000E+02
      3.053  0.0000E+00  0.5000E+02
      3.163  0.0000E+00  0.5000E+02
      3.273  0.1605E-02  0.5000E+02
      3.383  0.3036E-01  0.5002E+02
      3.493  0.6812E+00  0.5017E+02
      3.603  0.2357E+00  0.5026E+02
      3.713  0.1218E+01  0.5042E+02
      3.823  0.9249E+00  0.5067E+02
      3.933  0.6079E+00  0.5080E+02
      4.043  0.8086E+00  0.5095E+02
      4.153  0.7570E+00  0.5106E+02
      4.263  0.9584E-04  0.5106E+02
      4.373  0.1179E+01  0.5122E+02
      4.483  0.1024E+01  0.5133E+02
      4.593  0.1295E+01  0.5161E+02
      4.703  0.1180E+01  0.5191E+02
      4.812  0.2864E+01  0.5231E+02
      4.922  0.2809E+01  0.5275E+02
      5.032  0.1357E+01  0.5293E+02
      5.142  0.3369E+00  0.5298E+02
      5.252  0.1684E+00  0.5300E+02
      5.362  0.0000E+00  0.5300E+02
      5.472  0.0000E+00  0.5300E+02
      5.582  0.8422E-01  0.5301E+02
      5.692  0.1684E+00  0.5303E+02
      5.802  0.3986E+00  0.5307E+02
      5.912  0.2404E+01  0.5338E+02
      6.022  0.3459E+01  0.5382E+02
      6.132  0.2019E+01  0.5422E+02
      6.242  0.2975E+01  0.5464E+02
      6.352  0.2879E+01  0.5505E+02
      6.462  0.2943E+01  0.5546E+02
      6.572  0.2197E+01  0.5580E+02
      6.682  0.2011E+01  0.5620E+02
      6.791  0.3361E+01  0.5668E+02
      6.901  0.4117E+01  0.5737E+02
      7.011  0.4308E+01  0.5794E+02
      7.121  0.3531E+01  0.5849E+02
      7.231  0.4372E+01  0.5907E+02
      7.341  0.4019E+01  0.5973E+02
      7.451  0.2791E+01  0.6021E+02
      7.561  0.2885E+01  0.6064E+02
      7.671  0.3892E+01  0.6117E+02
      7.781  0.2993E+01  0.6173E+02
      7.891  0.4039E+01  0.6239E+02
      8.001  0.2788E+01  0.6277E+02
      8.111  0.2966E+01  0.6319E+02
      8.221  0.1378E+01  0.6345E+02
      8.331  0.1228E+01  0.6373E+02
      8.441  0.2509E+00  0.6381E+02
      8.551  0.2611E+00  0.6387E+02
      8.661  0.5053E+00  0.6394E+02
      8.770  0.3369E+00  0.6397E+02
      8.880  0.1684E+00  0.6399E+02
      8.990  0.1006E-01  0.6399E+02
      9.100  0.0000E+00  0.6400E+02
      9.210  0.0000E+00  0.6400E+02
      9.320  0.0000E+00  0.6400E+02
      9.430  0.0000E+00  0.6400E+02
      9.540  0.0000E+00  0.6400E+02
      9.650  0.0000E+00  0.6400E+02
      9.760  0.0000E+00  0.6400E+02
      9.870  0.0000E+00  0.6400E+02
      9.980  0.0000E+00  0.6400E+02
     10.090  0.0000E+00  0.6400E+02
     10.200  0.0000E+00  0.6400E+02
     10.310  0.0000E+00  0.6400E+02
     10.420  0.0000E+00  0.6400E+02
     10.530  0.0000E+00  0.6400E+02
     10.640  0.0000E+00  0.6400E+02
     10.63953865    -22.34399118  301      1.30107677      1.00000000
    -22.344  0.0000E+00  0.0000E+00  0.0000E+00
    -22.234  0.0000E+00  0.0000E+00  0.0000E+00
    -22.124  0.0000E+00  0.0000E+00  0.0000E+00
    -22.014  0.0000E+00  0.0000E+00  0.0000E+00
    -21.904  0.0000E+00  0.0000E+00  0.0000E+00
    -21.794  0.0000E+00  0.0000E+00  0.0000E+00
    -21.684  0.0000E+00  0.0000E+00  0.0000E+00
    -21.574  0.0000E+00  0.0000E+00  0.0000E+00
    -21.464  0.0000E+00  0.0000E+00  0.0000E+00
    -21.354  0.0000E+00  0.0000E+00  0.0000E+00
    -21.245  0.0000E+00  0.0000E+00  0.0000E+00
    -21.135  0.0000E+00  0.0000E+00  0.0000E+00
    -21.025  0.0000E+00  0.0000E+00  0.0000E+00
    -20.915  0.0000E+00  0.0000E+00  0.0000E+00
    -20.805  0.1096E+01  0.3342E+00  0.0000E+00
    -20.695  0.0000E+00  0.0000E+00  0.0000E+00
    -20.585  0.0000E+00  0.0000E+00  0.0000E+00
    -20.475  0.0000E+00  0.0000E+00  0.0000E+00
    -20.365  0.0000E+00  0.0000E+00  0.0000E+00
    -20.255  0.0000E+00  0.0000E+00  0.0000E+00
    -20.145  0.0000E+00  0.0000E+00  0.0000E+00
    -20.035  0.0000E+00  0.0000E+00  0.0000E+00
    -19.925  0.0000E+00  0.0000E+00  0.0000E+00
    -19.815  0.0000E+00  0.0000E+00  0.0000E+00
    -19.705  0.0000E+00  0.0000E+00  0.0000E+00
    -19.595  0.0000E+00  0.0000E+00  0.0000E+00
    -19.485  0.0000E+00  0.0000E+00  0.0000E+00
    -19.375  0.0000E+00  0.0000E+00  0.0000E+00
    -19.266  0.0000E+00  0.0000E+00  0.0000E+00
    -19.156  0.0000E+00  0.0000E+00  0.0000E+00
    -19.046  0.0000E+00  0.0000E+00  0.0000E+00
    -18.936  0.0000E+00  0.0000E+00  0.0000E+00
    -18.826  0.0000E+00  0.0000E+00  0.0000E+00
    -18.716  0.0000E+00  0.0000E+00  0.0000E+00
    -18.606  0.0000E+00  0.0000E+00  0.0000E+00
    -18.496  0.0000E+00  0.0000E+00  0.0000E+00
    -18.386  0.0000E+00  0.0000E+00  0.0000E+00
    -18.276  0.0000E+00  0.0000E+00  0.0000E+00
    -18.166  0.0000E+00  0.0000E+00  0.0000E+00
    -18.056  0.0000E+00  0.0000E+00  0.0000E+00
    -17.946  0.0000E+00  0.0000E+00  0.0000E+00
    -17.836  0.0000E+00  0.0000E+00  0.0000E+00
    -17.726  0.0000E+00  0.0000E+00  0.0000E+00
    -17.616  0.0000E+00  0.0000E+00  0.0000E+00
    -17.506  0.0000E+00  0.0000E+00  0.0000E+00
    -17.396  0.0000E+00  0.0000E+00  0.0000E+00
    -17.287  0.0000E+00  0.0000E+00  0.0000E+00
    -17.177  0.7185E-07  0.1644E-07  0.0000E+00
    -17.067  0.3501E-04  0.5037E-05  0.0000E+00
    -16.957  0.0000E+00  0.0000E+00  0.0000E+00
    -16.847  0.0000E+00  0.0000E+00  0.0000E+00
    -16.737  0.0000E+00  0.0000E+00  0.0000E+00
    -16.627  0.0000E+00  0.0000E+00  0.0000E+00
    -16.517  0.0000E+00  0.0000E+00  0.0000E+00
    -16.407  0.0000E+00  0.0000E+00  0.0000E+00
    -16.297  0.0000E+00  0.0000E+00  0.0000E+00
    -16.187  0.0000E+00  0.0000E+00  0.0000E+00
    -16.077  0.0000E+00  0.0000E+00  0.0000E+00
    -15.967  0.0000E+00  0.0000E+00  0.0000E+00
    -15.857  0.0000E+00  0.0000E+00  0.0000E+00
    -15.747  0.0000E+00  0.0000E+00  0.0000E+00
    -15.637  0.0000E+00  0.0000E+00  0.0000E+00
    -15.527  0.0000E+00  0.0000E+00  0.0000E+00
    -15.417  0.0000E+00  0.0000E+00  0.0000E+00
    -15.308  0.0000E+00  0.0000E+00  0.0000E+00
    -15.198  0.0000E+00  0.0000E+00  0.0000E+00
    -15.088  0.0000E+00  0.0000E+00  0.0000E+00
    -14.978  0.0000E+00  0.0000E+00  0.0000E+00
    -14.868  0.0000E+00  0.0000E+00  0.0000E+00
    -14.758  0.0000E+00  0.0000E+00  0.0000E+00
    -14.648  0.0000E+00  0.0000E+00  0.0000E+00
    -14.538  0.0000E+00  0.0000E+00  0.0000E+00
    -14.428  0.0000E+00  0.0000E+00  0.0000E+00
    -14.318  0.0000E+00  0.0000E+00  0.0000E+00
    -14.208  0.0000E+00  0.0000E+00  0.0000E+00
    -14.098  0.0000E+00  0.0000E+00  0.0000E+00
    -13.988  0.0000E+00  0.0000E+00  0.0000E+00
    -13.878  0.0000E+00  0.0000E+00  0.0000E+00
    -13.768  0.0000E+00  0.0000E+00  0.0000E+00
    -13.658  0.0000E+00  0.0000E+00  0.0000E+00
    -13.548  0.0000E+00  0.0000E+00  0.0000E+00
    -13.438  0.0000E+00  0.0000E+00  0.0000E+00
    -13.328  0.9963E+00  0.6925E-03  0.0000E+00
    -13.219  0.8424E+00  0.6432E-03  0.0000E+00
    -13.109  0.0000E+00  0.0000E+00  0.0000E+00
    -12.999  0.0000E+00  0.0000E+00  0.0000E+00
    -12.889  0.0000E+00  0.0000E+00  0.0000E+00
    -12.779  0.0000E+00  0.0000E+00  0.0000E+00
    -12.669  0.0000E+00  0.0000E+00  0.0000E+00
    -12.559  0.0000E+00  0.0000E+00  0.0000E+00
    -12.449  0.0000E+00  0.0000E+00  0.0000E+00
    -12.339  0.1410E-03  0.6424E-04  0.0000E+00
    -12.229  0.5932E-02  0.9871E-03  0.0000E+00
    -12.119  0.2022E-01  0.1991E-02  0.0000E+00
    -12.009  0.1409E-01  0.1698E-02  0.0000E+00
    -11.899  0.1833E-02  0.9246E-03  0.0000E+00
    -11.789  0.1120E-01  0.1981E-02  0.0000E+00
    -11.679  0.4724E-02  0.1030E-02  0.0000E+00
    -11.569  0.2721E-03  0.2950E-03  0.0000E+00
    -11.459  0.1081E-02  0.5197E-03  0.0000E+00
    -11.349  0.3378E-02  0.2839E-03  0.0000E+00
    -11.240  0.6118E-03  0.6771E-04  0.0000E+00
    -11.130  0.0000E+00  0.0000E+00  0.0000E+00
    -11.020  0.0000E+00  0.0000E+00  0.0000E+00
    -10.910  0.0000E+00  0.0000E+00  0.0000E+00
    -10.800  0.0000E+00  0.0000E+00  0.0000E+00
    -10.690  0.0000E+00  0.0000E+00  0.0000E+00
    -10.580  0.0000E+00  0.0000E+00  0.0000E+00
    -10.470  0.0000E+00  0.0000E+00  0.0000E+00
    -10.360  0.0000E+00  0.0000E+00  0.0000E+00
    -10.250  0.0000E+00  0.0000E+00  0.0000E+00
    -10.140  0.0000E+00  0.0000E+00  0.0000E+00
    -10.030  0.0000E+00  0.0000E+00  0.0000E+00
     -9.920  0.0000E+00  0.0000E+00  0.0000E+00
     -9.810  0.0000E+00  0.0000E+00  0.0000E+00
     -9.700  0.0000E+00  0.0000E+00  0.0000E+00
     -9.590  0.0000E+00  0.0000E+00  0.0000E+00
     -9.480  0.0000E+00  0.0000E+00  0.0000E+00
     -9.370  0.0000E+00  0.0000E+00  0.0000E+00
     -9.261  0.4482E-08  0.4274E-01  0.0000E+00
     -9.151  0.4661E-04  0.3792E+00  0.0000E+00
     -9.041  0.1501E-03  0.6806E+00  0.0000E+00
     -8.931  0.0000E+00  0.0000E+00  0.0000E+00
     -8.821  0.0000E+00  0.0000E+00  0.0000E+00
     -8.711  0.0000E+00  0.0000E+00  0.0000E+00
     -8.601  0.0000E+00  0.0000E+00  0.0000E+00
     -8.491  0.0000E+00  0.0000E+00  0.0000E+00
     -8.381  0.0000E+00  0.0000E+00  0.0000E+00
     -8.271  0.0000E+00  0.0000E+00  0.0000E+00
     -8.161  0.0000E+00  0.0000E+00  0.0000E+00
     -8.051  0.6655E-11  0.8897E-06  0.0000E+00
     -7.941  0.1767E-18  0.7702E-14  0.0000E+00
     -7.831  0.1185E-07  0.4405E-04  0.0000E+00
     -7.721  0.1186E-04  0.1592E-03  0.0000E+00
     -7.611  0.7993E-05  0.9558E-04  0.0000E+00
     -7.501  0.7704E-06  0.8957E-04  0.0000E+00
     -7.391  0.1441E-03  0.1648E-02  0.0000E+00
     -7.282  0.8214E-03  0.1217E-01  0.0000E+00
     -7.172  0.3035E-03  0.4234E-02  0.0000E+00
     -7.062  0.1098E+00  0.1811E+01  0.0000E+00
     -6.952  0.2398E-01  0.4051E+00  0.0000E+00
     -6.842  0.1416E-02  0.2674E-01  0.0000E+00
     -6.732  0.1027E-02  0.1866E-01  0.0000E+00
     -6.622  0.2640E-03  0.4520E-02  0.0000E+00
     -6.512  0.1245E-03  0.2385E-02  0.0000E+00
     -6.402  0.2952E-03  0.5050E-02  0.0000E+00
     -6.292  0.1183E-16  0.2049E-15  0.0000E+00
     -6.182  0.9759E-04  0.1724E-02  0.0000E+00
     -6.072  0.3643E-15  0.6925E-14  0.0000E+00
     -5.962  0.1072E-04  0.2038E-03  0.0000E+00
     -5.852  0.0000E+00  0.0000E+00  0.0000E+00
     -5.742  0.0000E+00  0.0000E+00  0.0000E+00
     -5.632  0.0000E+00  0.0000E+00  0.0000E+00
     -5.522  0.0000E+00  0.0000E+00  0.0000E+00
     -5.412  0.0000E+00  0.0000E+00  0.0000E+00
     -5.303  0.0000E+00  0.0000E+00  0.0000E+00
     -5.193  0.0000E+00  0.0000E+00  0.0000E+00
     -5.083  0.0000E+00  0.0000E+00  0.0000E+00
     -4.973  0.0000E+00  0.0000E+00  0.0000E+00
     -4.863  0.2408E-18  0.6157E-09  0.0000E+00
     -4.753  0.6378E-04  0.6324E+01  0.0000E+00
     -4.643  0.4757E-06  0.2259E-01  0.0000E+00
     -4.533  0.0000E+00  0.0000E+00  0.0000E+00
     -4.423  0.0000E+00  0.0000E+00  0.0000E+00
     -4.313  0.0000E+00  0.0000E+00  0.0000E+00
     -4.203  0.0000E+00  0.0000E+00  0.0000E+00
     -4.093  0.0000E+00  0.0000E+00  0.0000E+00
     -3.983  0.0000E+00  0.0000E+00  0.0000E+00
     -3.873  0.0000E+00  0.0000E+00  0.0000E+00
     -3.763  0.0000E+00  0.0000E+00  0.0000E+00
     -3.653  0.0000E+00  0.0000E+00  0.0000E+00
     -3.543  0.0000E+00  0.0000E+00  0.0000E+00
     -3.433  0.0000E+00  0.0000E+00  0.0000E+00
     -3.323  0.0000E+00  0.0000E+00  0.0000E+00
     -3.214  0.0000E+00  0.0000E+00  0.0000E+00
     -3.104  0.0000E+00  0.0000E+00  0.0000E+00
     -2.994  0.0000E+00  0.0000E+00  0.0000E+00
     -2.884  0.5312E-22  0.1818E-18  0.0000E+00
     -2.774  0.1978E-04  0.2072E-02  0.0000E+00
     -2.664  0.3013E-03  0.5929E-02  0.0000E+00
     -2.554  0.1601E-03  0.3952E-02  0.0000E+00
     -2.444  0.1981E-03  0.2439E-02  0.0000E+00
     -2.334  0.2248E-03  0.2528E-02  0.0000E+00
     -2.224  0.1228E-03  0.4975E-02  0.0000E+00
     -2.114  0.4236E-03  0.4480E-02  0.0000E+00
     -2.004  0.2478E-03  0.4082E-02  0.0000E+00
     -1.894  0.4354E-04  0.1317E-02  0.0000E+00
     -1.784  0.1006E-19  0.7916E-20  0.0000E+00
     -1.674  0.4813E-03  0.7731E-03  0.0000E+00
     -1.564  0.3089E-02  0.7373E-02  0.0000E+00
     -1.454  0.2958E-02  0.1260E-01  0.0000E+00
     -1.344  0.5558E-02  0.2464E-01  0.0000E+00
     -1.235  0.2385E-02  0.1425E-01  0.0000E+00
     -1.125  0.1497E-02  0.1181E-01  0.0000E+00
     -1.015  0.2142E-02  0.1573E-01  0.0000E+00
     -0.905  0.1076E-02  0.9481E-02  0.0000E+00
     -0.795  0.1549E-02  0.1762E-01  0.0000E+00
     -0.685  0.8337E-03  0.1453E-01  0.0000E+00
     -0.575  0.2907E-03  0.8654E-02  0.0000E+00
     -0.465  0.2688E-02  0.1577E-01  0.0000E+00
     -0.355  0.1093E-02  0.1249E-01  0.0000E+00
     -0.245  0.7413E-03  0.1068E-01  0.0000E+00
     -0.135  0.1444E-02  0.1871E-01  0.0000E+00
     -0.025  0.1677E-02  0.1778E-01  0.0000E+00
      0.085  0.2459E-02  0.8118E-02  0.0000E+00
      0.195  0.8824E-03  0.5025E-02  0.0000E+00
      0.305  0.2633E-03  0.2173E-02  0.0000E+00
      0.415  0.1881E-04  0.1133E-03  0.0000E+00
      0.525  0.2358E-03  0.1327E-02  0.0000E+00
      0.635  0.3774E-04  0.2161E-03  0.0000E+00
      0.744  0.4081E-04  0.2439E-03  0.0000E+00
      0.854  0.1892E-04  0.2209E-03  0.0000E+00
      0.964  0.2750E-09  0.2042E-03  0.0000E+00
      1.074  0.1083E-08  0.9406E-04  0.0000E+00
      1.184  0.0000E+00  0.0000E+00  0.0000E+00
      1.294  0.1150E-11  0.5105E-05  0.0000E+00
      1.404  0.0000E+00  0.0000E+00  0.0000E+00
      1.514  0.0000E+00  0.0000E+00  0.0000E+00
      1.624  0.0000E+00  0.0000E+00  0.0000E+00
      1.734  0.0000E+00  0.0000E+00  0.0000E+00
      1.844  0.0000E+00  0.0000E+00  0.0000E+00
      1.954  0.0000E+00  0.0000E+00  0.0000E+00
      2.064  0.0000E+00  0.0000E+00  0.0000E+00
      2.174  0.0000E+00  0.0000E+00  0.0000E+00
      2.284  0.0000E+00  0.0000E+00  0.0000E+00
      2.394  0.0000E+00  0.0000E+00  0.0000E+00
      2.504  0.0000E+00  0.0000E+00  0.0000E+00
      2.614  0.0000E+00  0.0000E+00  0.0000E+00
      2.723  0.0000E+00  0.0000E+00  0.0000E+00
      2.833  0.0000E+00  0.0000E+00  0.0000E+00
      2.943  0.0000E+00  0.0000E+00  0.0000E+00
      3.053  0.0000E+00  0.0000E+00  0.0000E+00
      3.163  0.0000E+00  0.0000E+00  0.0000E+00
      3.273  0.1344E-06  0.2475E-06  0.0000E+00
      3.383  0.3224E-06  0.6406E-05  0.0000E+00
      3.493  0.1142E-04  0.1226E-03  0.0000E+00
      3.603  0.2849E-04  0.5408E-04  0.0000E+00
      3.713  0.5514E-04  0.2285E-03  0.0000E+00
      3.823  0.6484E-04  0.1894E-03  0.0000E+00
      3.933  0.1097E-03  0.1844E-03  0.0000E+00
      4.043  0.2413E-03  0.3884E-03  0.0000E+00
      4.153  0.1098E-03  0.3679E-03  0.0000E+00
      4.263  0.1765E-08  0.1449E-07  0.0000E+00
      4.373  0.3146E-04  0.2918E-03  0.0000E+00
      4.483  0.4993E-04  0.2791E-03  0.0000E+00
      4.593  0.1255E-04  0.3238E-03  0.0000E+00
      4.703  0.4358E-04  0.3712E-03  0.0000E+00
      4.812  0.1718E-03  0.8458E-03  0.0000E+00
      4.922  0.1168E-03  0.8614E-03  0.0000E+00
      5.032  0.1224E-03  0.5325E-03  0.0000E+00
      5.142  0.6562E-04  0.1670E-03  0.0000E+00
      5.252  0.2158E-04  0.5145E-04  0.0000E+00
      5.362  0.0000E+00  0.0000E+00  0.0000E+00
      5.472  0.0000E+00  0.0000E+00  0.0000E+00
      5.582  0.2346E-02  0.1130E-02  0.0000E+00
      5.692  0.3781E-02  0.2386E-02  0.0000E+00
      5.802  0.9591E-02  0.6058E-02  0.0000E+00
      5.912  0.2288E-01  0.2190E-01  0.0000E+00
      6.022  0.8516E-02  0.1267E-01  0.0000E+00
      6.132  0.4825E-02  0.6317E-02  0.0000E+00
      6.242  0.1007E-01  0.1374E-01  0.0000E+00
      6.352  0.1789E-01  0.1959E-01  0.0000E+00
      6.462  0.3488E-01  0.3171E-01  0.0000E+00
      6.572  0.2123E-01  0.1385E-01  0.0000E+00
      6.682  0.1767E-01  0.2145E-01  0.0000E+00
      6.791  0.1834E-01  0.3167E-01  0.0000E+00
      6.901  0.4198E-01  0.5036E-01  0.0000E+00
      7.011  0.9436E-01  0.3499E-01  0.0000E+00
      7.121  0.4633E-01  0.3461E-01  0.0000E+00
      7.231  0.7049E-01  0.3917E-01  0.0000E+00
      7.341  0.7830E-01  0.4101E-01  0.0000E+00
      7.451  0.3018E-01  0.3145E-01  0.0000E+00
      7.561  0.3102E-01  0.5257E-01  0.0000E+00
      7.671  0.2615E-01  0.6073E-01  0.0000E+00
      7.781  0.1567E-01  0.6681E-01  0.0000E+00
      7.891  0.1403E-01  0.7204E-01  0.0000E+00
      8.001  0.1913E-01  0.5234E-01  0.0000E+00
      8.111  0.1350E-01  0.7933E-01  0.0000E+00
      8.221  0.2344E-02  0.3662E-01  0.0000E+00
      8.331  0.1188E-01  0.3965E-01  0.0000E+00
      8.441  0.3672E-02  0.9852E-02  0.0000E+00
      8.551  0.3055E-03  0.1002E-01  0.0000E+00
      8.661  0.1828E-02  0.1727E-01  0.0000E+00
      8.770  0.1152E-03  0.1046E-01  0.0000E+00
      8.880  0.7129E-04  0.6700E-02  0.0000E+00
      8.990  0.4628E-03  0.4636E-03  0.0000E+00
      9.100  0.0000E+00  0.0000E+00  0.0000E+00
      9.210  0.0000E+00  0.0000E+00  0.0000E+00
      9.320  0.0000E+00  0.0000E+00  0.0000E+00
      9.430  0.0000E+00  0.0000E+00  0.0000E+00
      9.540  0.0000E+00  0.0000E+00  0.0000E+00
      9.650  0.0000E+00  0.0000E+00  0.0000E+00
      9.760  0.0000E+00  0.0000E+00  0.0000E+00
      9.870  0.0000E+00  0.0000E+00  0.0000E+00
      9.980  0.0000E+00  0.0000E+00  0.0000E+00
     10.090  0.0000E+00  0.0000E+00  0.0000E+00
     10.200  0.0000E+00  0.0000E+00  0.0000E+00
     10.310  0.0000E+00  0.0000E+00  0.0000E+00
     10.420  0.0000E+00  0.0000E+00  0.0000E+00
     10.530  0.0000E+00  0.0000E+00  0.0000E+00
     10.640  0.0000E+00  0.0000E+00  0.0000E+00
     10.63953865    -22.34399118  301      1.30107677      1.00000000
    -22.344  0.0000E+00  0.0000E+00  0.0000E+00
    -22.234  0.0000E+00  0.0000E+00  0.0000E+00
    -22.124  0.0000E+00  0.0000E+00  0.0000E+00
    -22.014  0.0000E+00  0.0000E+00  0.0000E+00
    -21.904  0.0000E+00  0.0000E+00  0.0000E+00
    -21.794  0.0000E+00  0.0000E+00  0.0000E+00
    -21.684  0.0000E+00  0.0000E+00  0.0000E+00
    -21.574  0.0000E+00  0.0000E+00  0.0000E+00
    -21.464  0.0000E+00  0.0000E+00  0.0000E+00
    -21.354  0.0000E+00  0.0000E+00  0.0000E+00
    -21.245  0.0000E+00  0.0000E+00  0.0000E+00
    -21.135  0.0000E+00  0.0000E+00  0.0000E+00
    -21.025  0.0000E+00  0.0000E+00  0.0000E+00
    -20.915  0.0000E+00  0.0000E+00  0.0000E+00
    -20.805  0.1021E+02  0.3235E-02  0.0000E+00
    -20.695  0.0000E+00  0.0000E+00  0.0000E+00
    -20.585  0.0000E+00  0.0000E+00  0.0000E+00
    -20.475  0.0000E+00  0.0000E+00  0.0000E+00
    -20.365  0.0000E+00  0.0000E+00  0.0000E+00
    -20.255  0.0000E+00  0.0000E+00  0.0000E+00
    -20.145  0.0000E+00  0.0000E+00  0.0000E+00
    -20.035  0.0000E+00  0.0000E+00  0.0000E+00
    -19.925  0.0000E+00  0.0000E+00  0.0000E+00
    -19.815  0.0000E+00  0.0000E+00  0.0000E+00
    -19.705  0.0000E+00  0.0000E+00  0.0000E+00
    -19.595  0.0000E+00  0.0000E+00  0.0000E+00
    -19.485  0.0000E+00  0.0000E+00  0.0000E+00
    -19.375  0.0000E+00  0.0000E+00  0.0000E+00
    -19.266  0.0000E+00  0.0000E+00  0.0000E+00
    -19.156  0.0000E+00  0.0000E+00  0.0000E+00
    -19.046  0.0000E+00  0.0000E+00  0.0000E+00
    -18.936  0.0000E+00  0.0000E+00  0.0000E+00
    -18.826  0.0000E+00  0.0000E+00  0.0000E+00
    -18.716  0.0000E+00  0.0000E+00  0.0000E+00
    -18.606  0.0000E+00  0.0000E+00  0.0000E+00
    -18.496  0.0000E+00  0.0000E+00  0.0000E+00
    -18.386  0.0000E+00  0.0000E+00  0.0000E+00
    -18.276  0.0000E+00  0.0000E+00  0.0000E+00
    -18.166  0.0000E+00  0.0000E+00  0.0000E+00
    -18.056  0.0000E+00  0.0000E+00  0.0000E+00
    -17.946  0.0000E+00  0.0000E+00  0.0000E+00
    -17.836  0.0000E+00  0.0000E+00  0.0000E+00
    -17.726  0.0000E+00  0.0000E+00  0.0000E+00
    -17.616  0.0000E+00  0.0000E+00  0.0000E+00
    -17.506  0.0000E+00  0.0000E+00  0.0000E+00
    -17.396  0.0000E+00  0.0000E+00  0.0000E+00
    -17.287  0.0000E+00  0.0000E+00  0.0000E+00
    -17.177  0.9070E-07  0.4912E-06  0.0000E+00
    -17.067  0.4934E-04  0.1919E-04  0.0000E+00
    -16.957  0.0000E+00  0.0000E+00  0.0000E+00
    -16.847  0.0000E+00  0.0000E+00  0.0000E+00
    -16.737  0.0000E+00  0.0000E+00  0.0000E+00
    -16.627  0.0000E+00  0.0000E+00  0.0000E+00
    -16.517  0.0000E+00  0.0000E+00  0.0000E+00
    -16.407  0.0000E+00  0.0000E+00  0.0000E+00
    -16.297  0.0000E+00  0.0000E+00  0.0000E+00
    -16.187  0.0000E+00  0.0000E+00  0.0000E+00
    -16.077  0.0000E+00  0.0000E+00  0.0000E+00
    -15.967  0.0000E+00  0.0000E+00  0.0000E+00
    -15.857  0.0000E+00  0.0000E+00  0.0000E+00
    -15.747  0.0000E+00  0.0000E+00  0.0000E+00
    -15.637  0.0000E+00  0.0000E+00  0.0000E+00
    -15.527  0.0000E+00  0.0000E+00  0.0000E+00
    -15.417  0.0000E+00  0.0000E+00  0.0000E+00
    -15.308  0.0000E+00  0.0000E+00  0.0000E+00
    -15.198  0.0000E+00  0.0000E+00  0.0000E+00
    -15.088  0.0000E+00  0.0000E+00  0.0000E+00
    -14.978  0.0000E+00  0.0000E+00  0.0000E+00
    -14.868  0.0000E+00  0.0000E+00  0.0000E+00
    -14.758  0.0000E+00  0.0000E+00  0.0000E+00
    -14.648  0.0000E+00  0.0000E+00  0.0000E+00
    -14.538  0.0000E+00  0.0000E+00  0.0000E+00
    -14.428  0.0000E+00  0.0000E+00  0.0000E+00
    -14.318  0.0000E+00  0.0000E+00  0.0000E+00
    -14.208  0.0000E+00  0.0000E+00  0.0000E+00
    -14.098  0.0000E+00  0.0000E+00  0.0000E+00
    -13.988  0.0000E+00  0.0000E+00  0.0000E+00
    -13.878  0.0000E+00  0.0000E+00  0.0000E+00
    -13.768  0.0000E+00  0.0000E+00  0.0000E+00
    -13.658  0.0000E+00  0.0000E+00  0.0000E+00
    -13.548  0.0000E+00  0.0000E+00  0.0000E+00
    -13.438  0.0000E+00  0.0000E+00  0.0000E+00
    -13.328  0.9361E-01  0.3592E+00  0.0000E+00
    -13.219  0.8273E-01  0.3036E+00  0.0000E+00
    -13.109  0.0000E+00  0.0000E+00  0.0000E+00
    -12.999  0.0000E+00  0.0000E+00  0.0000E+00
    -12.889  0.0000E+00  0.0000E+00  0.0000E+00
    -12.779  0.0000E+00  0.0000E+00  0.0000E+00
    -12.669  0.0000E+00  0.0000E+00  0.0000E+00
    -12.559  0.0000E+00  0.0000E+00  0.0000E+00