       N       E                     dE             d eps       ncg     rms          ort
DAV:   1     0.216764418448E+04    0.21676E+04   -0.12088E+05  5632   0.389E+03
DAV:   2     0.555027992860E+03   -0.16126E+04   -0.15266E+04  5632   0.130E+03
DAV:   3     0.915934556983E+02   -0.46343E+03   -0.44623E+03  5632   0.328E+02
DAV:   4     0.361459776564E+02   -0.55447E+02   -0.54298E+02  5632   0.111E+02
DAV:   5     0.332819924148E+02   -0.28640E+01   -0.28514E+01  5632   0.296E+01
SDA:   6    -0.577543897416E+02   -0.91036E+02   -0.28514E+01  5632   0.963E+01 0.000E+00
CGA:   7    -0.591126235181E+02   -0.13582E+01   -0.13681E+01  5632   0.263E+01 0.250E-01
CGA:   8    -0.596410114256E+02   -0.52839E+00   -0.52828E+00  5632   0.486E+00 0.185E-01
CGA:   9    -0.598063738322E+02   -0.16536E+00   -0.16444E+00  5632   0.151E+00 0.604E-02
CGA:  10    -0.598571938752E+02   -0.50820E-01   -0.50636E-01  5632   0.614E-01 0.127E-02
CGA:  11    -0.598700211034E+02   -0.12827E-01   -0.12828E-01  5632   0.224E-01 0.254E-03
CGA:  12    -0.598763766954E+02   -0.63556E-02   -0.63536E-02  5632   0.516E-02 0.229E-05
CGA:  13    -0.598779818984E+02   -0.16052E-02   -0.16048E-02  5632   0.144E-02 0.330E-05
CGA:  14    -0.598784382498E+02   -0.45635E-03   -0.45625E-03  5632   0.425E-03 0.926E-06
CGA:  15    -0.598785608174E+02   -0.12257E-03   -0.12324E-03  5632   0.190E-03-0.103E-04
CGA:  16    -0.598785983117E+02   -0.37494E-04   -0.37626E-04  5632   0.707E-04 0.565E-05
CGA:  17    -0.598786210473E+02   -0.22736E-04   -0.23134E-04  5632   0.269E-04-0.434E-05
CGA:  18    -0.598786295538E+02   -0.85065E-05   -0.85293E-05  5632   0.922E-05-0.208E-06
CGA:  19    -0.598786323280E+02   -0.27742E-05   -0.27326E-05  5632   0.347E-05 0.659E-06
CGA:  20    -0.598786335332E+02   -0.12052E-05   -0.12959E-05  5632   0.371E-05-0.824E-06
CGA:  21    -0.598786338559E+02   -0.32270E-06   -0.39117E-06  5632   0.144E-05 0.644E-06
   1 F= -.59878634E+02 E0= -.59878634E+02  d E =-.598786E+02
