 vasp.5.3.5 31Mar14 (build Apr 15 2015 10:45:18) complex                        
  
 executed on             LinuxIFC date 2016.02.24  15:34:28
 running on  256 total cores
 distrk:  each k-point on   16 cores,   16 groups
 distr:  one band on NCORES_PER_BAND=   4 cores,    4 groups


--------------------------------------------------------------------------------------------------------


 INCAR:
 POTCAR:    PAW_PBE C 08Apr2002                   
 POTCAR:    PAW_PBE N 08Apr2002                   
 POTCAR:    PAW_PBE H 15Jun2001                   
 POTCAR:    PAW_PBE Pb_d 06Sep2000                
 POTCAR:    PAW_PBE I 08Apr2002                   

 ----------------------------------------------------------------------------- 
|                                                                             |
|           W    W    AA    RRRRR   N    N  II  N    N   GGGG   !!!           |
|           W    W   A  A   R    R  NN   N  II  NN   N  G    G  !!!           |
|           W    W  A    A  R    R  N N  N  II  N N  N  G       !!!           |
|           W WW W  AAAAAA  RRRRR   N  N N  II  N  N N  G  GGG   !            |
|           WW  WW  A    A  R   R   N   NN  II  N   NN  G    G                |
|           W    W  A    A  R    R  N    N  II  N    N   GGGG   !!!           |
|                                                                             |
|      For optimal performance we recommend to set                            |
|        NCORE= 4 - approx SQRT( number of cores)                             |
|      NCORE specifies how many cores store one orbital (NPAR=cpu/NCORE).     |
|      This setting can  greatly improve the performance of VASP for DFT.     |
|      The default, NPAR=number of cores might be grossly inefficient         |
|      on modern multi-core architectures or massively parallel machines.     |
|      Do your own testing !!!!                                               |
|      Unfortunately you need to use the default for GW and RPA calculations. |
|      (for HF NCORE is supported but not extensively tested yet)             |
|                                                                             |
 ----------------------------------------------------------------------------- 


 ----------------------------------------------------------------------------- 
|                                                                             |
|           W    W    AA    RRRRR   N    N  II  N    N   GGGG   !!!           |
|           W    W   A  A   R    R  NN   N  II  NN   N  G    G  !!!           |
|           W    W  A    A  R    R  N N  N  II  N N  N  G       !!!           |
|           W WW W  AAAAAA  RRRRR   N  N N  II  N  N N  G  GGG   !            |
|           WW  WW  A    A  R   R   N   NN  II  N   NN  G    G                |
|           W    W  A    A  R    R  N    N  II  N    N   GGGG   !!!           |
|                                                                             |
|      You have enabled k-point parallelism (KPAR>1).                         |
|      This developmental code was originally  written by Paul Kent at ORNL,  |
|      and carefully double checked in Vienna.                                |
|      GW as well as linear response parallelism added by Martijn Marsman     |
|      and Georg Kresse.                                                      |
|      Carefully verify results versus KPAR=1.                                |
|      Report problems to Paul Kent and Vienna.                               |
|                                                                             |
 ----------------------------------------------------------------------------- 


 ----------------------------------------------------------------------------- 
|                                                                             |
|           W    W    AA    RRRRR   N    N  II  N    N   GGGG   !!!           |
|           W    W   A  A   R    R  NN   N  II  NN   N  G    G  !!!           |
|           W    W  A    A  R    R  N N  N  II  N N  N  G       !!!           |
|           W WW W  AAAAAA  RRRRR   N  N N  II  N  N N  G  GGG   !            |
|           WW  WW  A    A  R   R   N   NN  II  N   NN  G    G                |
|           W    W  A    A  R    R  N    N  II  N    N   GGGG   !!!           |
|                                                                             |
|      You have selected ISYM=2 for HF type calculation. This will symmetrize |
|      the charge density but not the exchange potential.                     |
|      I suggest to use ISYM=3 instead. This uses symmetry to obtain          |
|      the orbitals at all k-points in the Brillouine zone, but does not      |
|      apply symmetry to the Hartree potential directly.                      |
|      The resultant charge might have lower symmetry than the crystal,       |
|      but at least, Hartree and exchange are fully compatible.               |
|                                                                             |
 ----------------------------------------------------------------------------- 

 POTCAR:    PAW_PBE C 08Apr2002                   
   VRHFIN =C: s2p2                                                              
   LEXCH  = PE                                                                  
   EATOM  =   147.1560 eV,   10.8157 Ry                                         
                                                                                
   TITEL  = PAW_PBE C 08Apr2002                                                 
   LULTRA =        F    use ultrasoft PP ?                                      
   IUNSCR =        1    unscreen: 0-lin 1-nonlin 2-no                           
   RPACOR =    1.200    partial core radius                                     
   POMASS =   12.011; ZVAL   =    4.000    mass and valenz                      
   RCORE  =    1.500    outmost cutoff radius                                   
   RWIGS  =    1.630; RWIGS  =    0.863    wigner-seitz radius (au A)           
   ENMAX  =  400.000; ENMIN  =  300.000 eV                                      
   ICORE  =        2    local potential                                         
   LCOR   =        T    correct aug charges                                     
   LPAW   =        T    paw PP                                                  
   EAUG   =  644.873                                                            
   DEXC   =    0.000                                                            
   RMAX   =    1.529    core radius for proj-oper                               
   RAUG   =    1.300    factor for augmentation sphere                          
   RDEP   =    1.501    radius for radial grids                                 
   RDEPT  =    1.300    core radius for aug-charge                              
                                                                                
   Atomic configuration                                                         
    4 entries                                                                   
     n  l   j            E        occ.                                          
     1  0  0.50      -273.3789   2.0000                                         
     2  0  0.50       -13.7508   2.0000                                         
     2  1  0.50        -5.2854   2.0000                                         
     3  2  1.50        -5.4423   0.0000                                         
   Description                                                                  
     l       E           TYP  RCUT    TYP  RCUT                                 
     0    -13.7508458     23  1.200                                             
     0     -8.2022199     23  1.200                                             
     1     -5.2854383     23  1.500                                             
     1     34.0145650     23  1.500                                             
     2     -5.4423304      7  1.500                                             
  local pseudopotential read in
  partial core-charges read in
  partial kinetic energy density read in
  atomic valenz-charges read in
  non local Contribution for L=           0  read in
    real space projection operators read in
  non local Contribution for L=           0  read in
    real space projection operators read in
  non local Contribution for L=           1  read in
    real space projection operators read in
  non local Contribution for L=           1  read in
    real space projection operators read in
    PAW grid and wavefunctions read in
 
   number of l-projection  operators is LMAX  =           4
   number of lm-projection operators is LMMAX =           8
 
 POTCAR:    PAW_PBE N 08Apr2002                   
   VRHFIN =N: s2p3                                                              
   LEXCH  = PE                                                                  
   EATOM  =   264.5486 eV,   19.4438 Ry                                         
                                                                                
   TITEL  = PAW_PBE N 08Apr2002                                                 
   LULTRA =        F    use ultrasoft PP ?                                      
   IUNSCR =        1    unscreen: 0-lin 1-nonlin 2-no                           
   RPACOR =    1.200    partial core radius                                     
   POMASS =   14.001; ZVAL   =    5.000    mass and valenz                      
   RCORE  =    1.500    outmost cutoff radius                                   
   RWIGS  =    1.400; RWIGS  =    0.741    wigner-seitz radius (au A)           
   ENMAX  =  400.000; ENMIN  =  300.000 eV                                      
   ICORE  =        2    local potential                                         
   LCOR   =        T    correct aug charges                                     
   LPAW   =        T    paw PP                                                  
   EAUG   =  627.112                                                            
   DEXC   =    0.000                                                            
   RMAX   =    1.529    core radius for proj-oper                               
   RAUG   =    1.300    factor for augmentation sphere                          
   RDEP   =    1.514    radius for radial grids                                 
   RDEPT  =    1.338    core radius for aug-charge                              
                                                                                
   Atomic configuration                                                         
    4 entries                                                                   
     n  l   j            E        occ.                                          
     1  0  0.50      -384.7179   2.0000                                         
     2  0  0.50       -18.5828   2.0000                                         
     2  1  0.50        -7.0898   3.0000                                         
     3  2  1.50        -6.8029   0.0000                                         
   Description                                                                  
     l       E           TYP  RCUT    TYP  RCUT                                 
     0    -18.5828119     23  1.200                                             
     0    -13.5018863     23  1.200                                             
     1     -7.0897853     23  1.500                                             
     1      9.5240782     23  1.500                                             
     2     -6.8029130      7  1.500                                             
  local pseudopotential read in
  partial core-charges read in
  partial kinetic energy density read in
  atomic valenz-charges read in
  non local Contribution for L=           0  read in
    real space projection operators read in
  non local Contribution for L=           0  read in
    real space projection operators read in
  non local Contribution for L=           1  read in
    real space projection operators read in
  non local Contribution for L=           1  read in
    real space projection operators read in
    PAW grid and wavefunctions read in
 
   number of l-projection  operators is LMAX  =           4
   number of lm-projection operators is LMMAX =           8
 
 POTCAR:    PAW_PBE H 15Jun2001                   
   VRHFIN =H: ultrasoft test                                                    
   LEXCH  = PE                                                                  
   EATOM  =    12.4884 eV,    0.9179 Ry                                         
                                                                                
   TITEL  = PAW_PBE H 15Jun2001                                                 
   LULTRA =        F    use ultrasoft PP ?                                      
   IUNSCR =        0    unscreen: 0-lin 1-nonlin 2-no                           
   RPACOR =    0.000    partial core radius                                     
   POMASS =    1.000; ZVAL   =    1.000    mass and valenz                      
   RCORE  =    1.100    outmost cutoff radius                                   
   RWIGS  =    0.700; RWIGS  =    0.370    wigner-seitz radius (au A)           
   ENMAX  =  250.000; ENMIN  =  200.000 eV                                      
   RCLOC  =    0.701    cutoff for local pot                                    
   LCOR   =        T    correct aug charges                                     
   LPAW   =        T    paw PP                                                  
   EAUG   =  400.000                                                            
   RMAX   =    1.123    core radius for proj-oper                               
   RAUG   =    1.200    factor for augmentation sphere                          
   RDEP   =    1.112    radius for radial grids                                 
   RDEPT  =    0.926    core radius for aug-charge                              
                                                                                
   Atomic configuration                                                         
    2 entries                                                                   
     n  l   j            E        occ.                                          
     1  0  0.50        -6.4927   1.0000                                         
     2  1  0.50        -3.4015   0.0000                                         
   Description                                                                  
     l       E           TYP  RCUT    TYP  RCUT                                 
     0     -6.4927494     23  1.100                                             
     0      6.8029130     23  1.100                                             
     1     -4.0817478     23  1.100                                             
  local pseudopotential read in
  atomic valenz-charges read in
  non local Contribution for L=           0  read in
    real space projection operators read in
  non local Contribution for L=           0  read in
    real space projection operators read in
  non local Contribution for L=           1  read in
    real space projection operators read in
    PAW grid and wavefunctions read in
 
   number of l-projection  operators is LMAX  =           3
   number of lm-projection operators is LMMAX =           5
 
 POTCAR:    PAW_PBE Pb_d 06Sep2000                
   VRHFIN =Pb:                                                                  
   LEXCH  = PE                                                                  
   EATOM  =  1661.6185 eV,  122.1255 Ry                                         
                                                                                
   TITEL  = PAW_PBE Pb_d 06Sep2000                                              
   LULTRA =        F    use ultrasoft PP ?                                      
   IUNSCR =        1    unscreen: 0-lin 1-nonlin 2-no                           
   RPACOR =    2.200    partial core radius                                     
   POMASS =  207.200; ZVAL   =   14.000    mass and valenz                      
   RCORE  =    2.500    outmost cutoff radius                                   
   RWIGS  =    3.260; RWIGS  =    1.725    wigner-seitz radius (au A)           
   ENMAX  =  237.835; ENMIN  =  178.376 eV                                      
   ICORE  =        3    local potential                                         
   LCOR   =        T    correct aug charges                                     
   LPAW   =        T    paw PP                                                  
   EAUG   =  391.914                                                            
   DEXC   =    0.000                                                            
   RMAX   =    2.565    core radius for proj-oper                               
   RAUG   =    1.300    factor for augmentation sphere                          
   RDEP   =    2.643    radius for radial grids                                 
   RDEPT  =    2.092    core radius for aug-charge                              
                                                                                
   Atomic configuration                                                         
   16 entries                                                                   
     n  l   j            E        occ.                                          
     1  0  0.50    -88091.8466   2.0000                                         
     2  0  0.50    -15753.4197   2.0000                                         
     2  1  1.50    -13508.1797   6.0000                                         
     3  0  0.50     -3781.7194   2.0000                                         
     3  1  1.50     -3138.2529   6.0000                                         
     3  2  2.50     -2483.2977  10.0000                                         
     4  0  0.50      -856.2895   2.0000                                         
     4  1  1.50      -645.4942   6.0000                                         
     4  2  2.50      -401.8768  10.0000                                         
     4  3  3.50      -132.9059  14.0000                                         
     5  0  0.50      -144.0950   2.0000                                         
     5  1  1.50       -85.7879   6.0000                                         
     5  2  2.50       -21.1769  10.0000                                         
     6  0  0.50       -12.0372   2.0000                                         
     6  1  1.50        -3.4971   2.0000                                         
     5  3  2.50        -2.7212   0.0000                                         
   Description                                                                  
     l       E           TYP  RCUT    TYP  RCUT                                 
     2    -21.1768523     23  2.500                                             
     2      1.3605826     23  2.500                                             
     0    -12.0371562     23  2.500                                             
     0     13.6058260     23  2.500                                             
     1     -3.4971339     23  2.500                                             
     1     13.6058260     23  2.500                                             
     3     -1.3605826      7  2.500                                             
  local pseudopotential read in
  partial core-charges read in
  partial kinetic energy density read in
  atomic valenz-charges read in
  non local Contribution for L=           2  read in
    real space projection operators read in
  non local Contribution for L=           2  read in
    real space projection operators read in
  non local Contribution for L=           0  read in
    real space projection operators read in
  non local Contribution for L=           0  read in
    real space projection operators read in
  non local Contribution for L=           1  read in
    real space projection operators read in
  non local Contribution for L=           1  read in
    real space projection operators read in
    PAW grid and wavefunctions read in
 
   number of l-projection  operators is LMAX  =           6
   number of lm-projection operators is LMMAX =          18
 
 POTCAR:    PAW_PBE I 08Apr2002                   
   VRHFIN =I : s2p5                                                             
   LEXCH  = PE                                                                  
   EATOM  =   315.8678 eV,   23.2156 Ry                                         
                                                                                
   TITEL  = PAW_PBE I 08Apr2002                                                 
   LULTRA =        F    use ultrasoft PP ?                                      
   IUNSCR =        1    unscreen: 0-lin 1-nonlin 2-no                           
   RPACOR =    2.200    partial core radius                                     
   POMASS =  126.904; ZVAL   =    7.000    mass and valenz                      
   RCORE  =    2.300    outmost cutoff radius                                   
   RWIGS  =    2.810; RWIGS  =    1.487    wigner-seitz radius (au A)           
   ENMAX  =  175.647; ENMIN  =  131.735 eV                                      
   ICORE  =        3    local potential                                         
   LCOR   =        T    correct aug charges                                     
   LPAW   =        T    paw PP                                                  
   EAUG   =  370.139                                                            
   DEXC   =    0.000                                                            
   RMAX   =    2.359    core radius for proj-oper                               
   RAUG   =    1.300    factor for augmentation sphere                          
   RDEP   =    2.392    radius for radial grids                                 
   RDEPT  =    2.170    core radius for aug-charge                              
                                                                                
   Atomic configuration                                                         
   13 entries                                                                   
     n  l   j            E        occ.                                          
     1  0  0.50    -32976.3739   2.0000                                         
     2  0  0.50     -5094.5933   2.0000                                         
     2  1  1.50     -4572.0131   6.0000                                         
     3  0  0.50     -1028.2813   2.0000                                         
     3  1  1.50      -859.0250   6.0000                                         
     3  2  2.50      -605.7620  10.0000                                         
     4  0  0.50      -180.5540   2.0000                                         
     4  1  1.50      -127.5306   6.0000                                         
     4  2  2.50       -50.2720  10.0000                                         
     5  0  0.50       -17.4058   2.0000                                         
     5  1  0.50        -7.0851   5.0000                                         
     5  2  1.50        -7.0750   0.0000                                         
     4  3  2.50        -7.0750   0.0000                                         
   Description                                                                  
     l       E           TYP  RCUT    TYP  RCUT                                 
     0    -17.4058016     23  2.300                                             
     0    -18.7663842     23  2.300                                             
     1     -7.0850686     23  2.300                                             
     1     -4.2150896     23  2.300                                             
     2     -7.0750295     23  2.300                                             
     3     -1.3605826     23  2.300                                             
  local pseudopotential read in
  partial core-charges read in
  partial kinetic energy density read in
  atomic valenz-charges read in
  non local Contribution for L=           0  read in
    real space projection operators read in
  non local Contribution for L=           0  read in
    real space projection operators read in
  non local Contribution for L=           1  read in
    real space projection operators read in
  non local Contribution for L=           1  read in
    real space projection operators read in
  non local Contribution for L=           2  read in
    real space projection operators read in
    PAW grid and wavefunctions read in
 
   number of l-projection  operators is LMAX  =           5
   number of lm-projection operators is LMMAX =          13
 
  PAW_PBE C 08Apr2002                   :
 energy of atom  1       EATOM= -147.1560
 kinetic energy error for atom=    0.0076 (will be added to EATOM!!)
  PAW_PBE N 08Apr2002                   :
 energy of atom  2       EATOM= -264.5486
 kinetic energy error for atom=    0.0138 (will be added to EATOM!!)
  PAW_PBE H 15Jun2001                   :
 energy of atom  3       EATOM=  -12.4884
 kinetic energy error for atom=    0.0020 (will be added to EATOM!!)
  PAW_PBE Pb_d 06Sep2000                :
 energy of atom  4       EATOM=-1661.6185
 kinetic energy error for atom=    0.0047 (will be added to EATOM!!)
  PAW_PBE I 08Apr2002                   :
 energy of atom  5       EATOM= -315.8678
 kinetic energy error for atom=    0.0009 (will be added to EATOM!!)
 
 
 POSCAR: MA-Pb-I (Github)                        
  positions in direct lattice
  velocities in cartesian coordinates
 exchange correlation table for  LEXCH =        8
   RHO(1)=    0.500       N(1)  =     2000
   RHO(2)=  100.500       N(2)  =     4000
 


--------------------------------------------------------------------------------------------------------


 ion  position               nearest neighbor table
   1  0.903  1.000  0.996-   3 1.10   5 1.10   4 1.10   2 1.48
   2  0.137  1.000  0.025-   6 1.04   7 1.04   8 1.05   1 1.48
   3  0.865  1.000  0.826-   1 1.10
   4  0.838  0.144  0.072-   1 1.10
   5  0.838  0.857  0.072-   1 1.10
   6  0.208  0.134  0.958-   2 1.04
   7  0.207  0.865  0.958-   2 1.04
   8  0.182  0.000  0.185-   2 1.05
   9  0.476  0.500  0.476-  12 3.07  10 3.15  11 3.15  11 3.15  10 3.18  12 3.23
  10  0.427  0.500  0.973-   9 3.15   9 3.18
  11  0.436  0.000  0.507-   9 3.15   9 3.15
  12  0.963  0.500  0.448-   9 3.07   9 3.23
 
  LATTYP: Found a simple monoclinic cell.
 ALAT       =     6.2901201248
 B/A-ratio  =     0.9974197462
 C/A-ratio  =     1.4105278383
 COS(beta)  =    -0.7044835581
  
  Lattice vectors:
  
 A1 = (  -6.2901201248,   0.0000000000,   0.0000000000)
 A2 = (  -0.0000776940,  -6.2738900180,   0.0000000000)
 A3 = (   6.2504525538,  -0.0001537931,   6.2969150416)


Analysis of symmetry for initial positions (statically):
=====================================================================
 Subroutine PRICEL returns:
 Original cell was already a primitive cell.
 

 Routine SETGRP: Setting up the symmetry group for a 
 simple monoclinic supercell.


 Subroutine GETGRP returns: Found  1 space group operations
 (whereof  1 operations were pure point group operations)
 out of a pool of  4 trial point group operations.


The static configuration has the point symmetry C_1 .


Analysis of symmetry for dynamics (positions and initial velocities):
=====================================================================
 Subroutine PRICEL returns:
 Original cell was already a primitive cell.
 

 Routine SETGRP: Setting up the symmetry group for a 
 simple monoclinic supercell.


 Subroutine GETGRP returns: Found  1 space group operations
 (whereof  1 operations were pure point group operations)
 out of a pool of  4 trial point group operations.


The dynamic configuration has the point symmetry C_1 .
 
 
 KPOINTS: Automatically generated mesh (112 to ign
  k-points in reciprocal lattice
Space group operators:
 irot       det(A)        alpha          n_x          n_y          n_z        tau_x        tau_y        tau_z
    1     1.000000     0.000000     1.000000     0.000000     0.000000     0.000000     0.000000     0.000000

 ----------------------------------------------------------------------------- 
|                                                                             |
|           W    W    AA    RRRRR   N    N  II  N    N   GGGG   !!!           |
|           W    W   A  A   R    R  NN   N  II  NN   N  G    G  !!!           |
|           W    W  A    A  R    R  N N  N  II  N N  N  G       !!!           |
|           W WW W  AAAAAA  RRRRR   N  N N  II  N  N N  G  GGG   !            |
|           WW  WW  A    A  R   R   N   NN  II  N   NN  G    G                |
|           W    W  A    A  R    R  N    N  II  N    N   GGGG   !!!           |
|                                                                             |
|      Your generating k-point grid is not commensurate to the symmetry       |
|      of the lattice.  This can cause   slow convergence with respect        |
|      to k-points for HF type calculations                                   |
|      suggested SOLUTIONS:                                                   |
|       ) if not already the case, use automatic k-point generation           |
|       ) shift your grid to Gamma (G) (e.g. required for hex or fcc lattice) |
|                                                                             |
 ----------------------------------------------------------------------------- 

 
 Subroutine IBZKPT_HF returns following result:
 ==============================================
 
 Found    280 k-points in 1st BZ
 the following    280 k-points will be used (e.g. in the exchange kernel)
 Following reciprocal coordinates:   # in IRBZ
  0.000000  0.000000  0.000000       1 t-inv F
  0.166667  0.000000  0.000000       2 t-inv F
  0.333333  0.000000  0.000000       3 t-inv F
  0.500000  0.000000  0.000000       4 t-inv F
  0.000000  0.166667  0.000000       5 t-inv F
  0.166667  0.166667  0.000000       6 t-inv F
  0.333333  0.166667  0.000000       7 t-inv F
  0.500000  0.166667  0.000000       8 t-inv F
 -0.333333  0.166667  0.000000       9 t-inv F
 -0.166667  0.166667  0.000000      10 t-inv F
  0.000000  0.333333  0.000000      11 t-inv F
  0.166667  0.333333  0.000000      12 t-inv F
  0.333333  0.333333  0.000000      13 t-inv F
  0.500000  0.333333  0.000000      14 t-inv F
 -0.333333  0.333333  0.000000      15 t-inv F
 -0.166667  0.333333  0.000000      16 t-inv F
  0.000000  0.500000  0.000000      17 t-inv F
  0.166667  0.500000  0.000000      18 t-inv F
  0.333333  0.500000  0.000000      19 t-inv F
  0.500000  0.500000  0.000000      20 t-inv F
  0.000000  0.000000  0.166667      21 t-inv F
  0.166667  0.000000  0.166667      22 t-inv F
  0.333333  0.000000  0.166667      23 t-inv F
  0.500000  0.000000  0.166667      24 t-inv F
 -0.333333  0.000000  0.166667      25 t-inv F
 -0.166667  0.000000  0.166667      26 t-inv F
  0.000000  0.166667  0.166667      27 t-inv F
  0.166667  0.166667  0.166667      28 t-inv F
  0.333333  0.166667  0.166667      29 t-inv F
  0.500000  0.166667  0.166667      30 t-inv F
 -0.333333  0.166667  0.166667      31 t-inv F
 -0.166667  0.166667  0.166667      32 t-inv F
  0.000000  0.333333  0.166667      33 t-inv F
  0.166667  0.333333  0.166667      34 t-inv F
  0.333333  0.333333  0.166667      35 t-inv F
  0.500000  0.333333  0.166667      36 t-inv F
 -0.333333  0.333333  0.166667      37 t-inv F
 -0.166667  0.333333  0.166667      38 t-inv F
  0.000000  0.500000  0.166667      39 t-inv F
  0.166667  0.500000  0.166667      40 t-inv F
  0.333333  0.500000  0.166667      41 t-inv F
  0.500000  0.500000  0.166667      42 t-inv F
 -0.333333  0.500000  0.166667      43 t-inv F
 -0.166667  0.500000  0.166667      44 t-inv F
  0.000000 -0.333333  0.166667      45 t-inv F
  0.166667 -0.333333  0.166667      46 t-inv F
  0.333333 -0.333333  0.166667      47 t-inv F
  0.500000 -0.333333  0.166667      48 t-inv F
 -0.333333 -0.333333  0.166667      49 t-inv F
 -0.166667 -0.333333  0.166667      50 t-inv F
  0.000000 -0.166667  0.166667      51 t-inv F
  0.166667 -0.166667  0.166667      52 t-inv F
  0.333333 -0.166667  0.166667      53 t-inv F
  0.500000 -0.166667  0.166667      54 t-inv F
 -0.333333 -0.166667  0.166667      55 t-inv F
 -0.166667 -0.166667  0.166667      56 t-inv F
  0.000000  0.000000  0.333333      57 t-inv F
  0.166667  0.000000  0.333333      58 t-inv F
  0.333333  0.000000  0.333333      59 t-inv F
  0.500000  0.000000  0.333333      60 t-inv F
 -0.333333  0.000000  0.333333      61 t-inv F
 -0.166667  0.000000  0.333333      62 t-inv F
  0.000000  0.166667  0.333333      63 t-inv F
  0.166667  0.166667  0.333333      64 t-inv F
  0.333333  0.166667  0.333333      65 t-inv F
  0.500000  0.166667  0.333333      66 t-inv F
 -0.333333  0.166667  0.333333      67 t-inv F
 -0.166667  0.166667  0.333333      68 t-inv F
  0.000000  0.333333  0.333333      69 t-inv F
  0.166667  0.333333  0.333333      70 t-inv F
  0.333333  0.333333  0.333333      71 t-inv F
  0.500000  0.333333  0.333333      72 t-inv F
 -0.333333  0.333333  0.333333      73 t-inv F
 -0.166667  0.333333  0.333333      74 t-inv F
  0.000000  0.500000  0.333333      75 t-inv F
  0.166667  0.500000  0.333333      76 t-inv F
  0.333333  0.500000  0.333333      77 t-inv F
  0.500000  0.500000  0.333333      78 t-inv F
 -0.333333  0.500000  0.333333      79 t-inv F
 -0.166667  0.500000  0.333333      80 t-inv F
  0.000000 -0.333333  0.333333      81 t-inv F
  0.166667 -0.333333  0.333333      82 t-inv F
  0.333333 -0.333333  0.333333      83 t-inv F
  0.500000 -0.333333  0.333333      84 t-inv F
 -0.333333 -0.333333  0.333333      85 t-inv F
 -0.166667 -0.333333  0.333333      86 t-inv F
  0.000000 -0.166667  0.333333      87 t-inv F
  0.166667 -0.166667  0.333333      88 t-inv F
  0.333333 -0.166667  0.333333      89 t-inv F
  0.500000 -0.166667  0.333333      90 t-inv F
 -0.333333 -0.166667  0.333333      91 t-inv F
 -0.166667 -0.166667  0.333333      92 t-inv F
  0.000000  0.000000  0.500000      93 t-inv F
  0.166667  0.000000  0.500000      94 t-inv F
  0.333333  0.000000  0.500000      95 t-inv F
  0.500000  0.000000  0.500000      96 t-inv F
  0.000000  0.166667  0.500000      97 t-inv F
  0.166667  0.166667  0.500000      98 t-inv F
  0.333333  0.166667  0.500000      99 t-inv F
  0.500000  0.166667  0.500000     100 t-inv F
 -0.333333  0.166667  0.500000     101 t-inv F
 -0.166667  0.166667  0.500000     102 t-inv F
  0.000000  0.333333  0.500000     103 t-inv F
  0.166667  0.333333  0.500000     104 t-inv F
  0.333333  0.333333  0.500000     105 t-inv F
  0.500000  0.333333  0.500000     106 t-inv F
 -0.333333  0.333333  0.500000     107 t-inv F
 -0.166667  0.333333  0.500000     108 t-inv F
  0.000000  0.500000  0.500000     109 t-inv F
  0.166667  0.500000  0.500000     110 t-inv F
  0.333333  0.500000  0.500000     111 t-inv F
  0.500000  0.500000  0.500000     112 t-inv F
  0.000000  0.000000  0.000000     113 t-inv F
  0.000000  0.050000  0.000000     114 t-inv F
  0.000000  0.100000  0.000000     115 t-inv F
  0.000000  0.150000  0.000000     116 t-inv F
  0.000000  0.200000  0.000000     117 t-inv F
  0.000000  0.250000  0.000000     118 t-inv F
  0.000000  0.300000  0.000000     119 t-inv F
  0.000000  0.350000  0.000000     120 t-inv F
  0.000000  0.400000  0.000000     121 t-inv F
  0.000000  0.450000  0.000000     122 t-inv F
  0.000000  0.500000  0.000000     123 t-inv F
  0.055556  0.500000  0.000000     124 t-inv F
  0.111111  0.500000  0.000000     125 t-inv F
  0.166667  0.500000  0.000000     126 t-inv F
  0.222222  0.500000  0.000000     127 t-inv F
  0.277778  0.500000  0.000000     128 t-inv F
  0.333333  0.500000  0.000000     129 t-inv F
  0.388889  0.500000  0.000000     130 t-inv F
  0.444444  0.500000  0.000000     131 t-inv F
  0.500000  0.500000  0.000000     132 t-inv F
  0.464286  0.464286  0.000000     133 t-inv F
  0.428571  0.428571  0.000000     134 t-inv F
  0.392857  0.392857  0.000000     135 t-inv F
  0.357143  0.357143  0.000000     136 t-inv F
  0.321429  0.321429  0.000000     137 t-inv F
  0.285714  0.285714  0.000000     138 t-inv F
  0.250000  0.250000  0.000000     139 t-inv F
  0.214286  0.214286  0.000000     140 t-inv F
  0.178571  0.178571  0.000000     141 t-inv F
  0.142857  0.142857  0.000000     142 t-inv F
  0.107143  0.107143  0.000000     143 t-inv F
  0.071429  0.071429  0.000000     144 t-inv F
  0.035714  0.035714  0.000000     145 t-inv F
  0.000000  0.000000  0.000000     146 t-inv F
  0.029412  0.029412  0.029412     147 t-inv F
  0.058824  0.058824  0.058824     148 t-inv F
  0.088235  0.088235  0.088235     149 t-inv F
  0.117647  0.117647  0.117647     150 t-inv F
  0.147059  0.147059  0.147059     151 t-inv F
  0.176471  0.176471  0.176471     152 t-inv F
  0.205882  0.205882  0.205882     153 t-inv F
  0.235294  0.235294  0.235294     154 t-inv F
  0.264706  0.264706  0.264706     155 t-inv F
  0.294118  0.294118  0.294118     156 t-inv F
  0.323529  0.323529  0.323529     157 t-inv F
  0.352941  0.352941  0.352941     158 t-inv F
  0.382353  0.382353  0.382353     159 t-inv F
  0.411765  0.411765  0.411765     160 t-inv F
  0.441176  0.441176  0.441176     161 t-inv F
  0.470588  0.470588  0.470588     162 t-inv F
  0.500000  0.500000  0.500000     163 t-inv F
  0.428571  0.500000  0.428571     164 t-inv F
  0.392857  0.500000  0.392857     165 t-inv F
  0.357143  0.500000  0.357143     166 t-inv F
  0.321429  0.500000  0.321429     167 t-inv F
  0.285714  0.500000  0.285714     168 t-inv F
  0.250000  0.500000  0.250000     169 t-inv F
  0.214286  0.500000  0.214286     170 t-inv F
  0.178571  0.500000  0.178571     171 t-inv F
  0.142857  0.500000  0.142857     172 t-inv F
  0.107143  0.500000  0.107143     173 t-inv F
  0.071429  0.500000  0.071429     174 t-inv F
  0.035714  0.500000  0.035714     175 t-inv F
  0.000000  0.500000  0.000000     176 t-inv F
 -0.166667  0.000000  0.000000       2 t-inv T
 -0.333333  0.000000  0.000000       3 t-inv T
  0.000000 -0.166667  0.000000       5 t-inv T
 -0.166667 -0.166667  0.000000       6 t-inv T
 -0.333333 -0.166667  0.000000       7 t-inv T
 -0.500000 -0.166667  0.000000       8 t-inv T
  0.333333 -0.166667  0.000000       9 t-inv T
  0.166667 -0.166667  0.000000      10 t-inv T
  0.000000 -0.333333  0.000000      11 t-inv T
 -0.166667 -0.333333  0.000000      12 t-inv T
 -0.333333 -0.333333  0.000000      13 t-inv T
 -0.500000 -0.333333  0.000000      14 t-inv T
  0.333333 -0.333333  0.000000      15 t-inv T
  0.166667 -0.333333  0.000000      16 t-inv T
 -0.166667 -0.500000  0.000000      18 t-inv T
 -0.333333 -0.500000  0.000000      19 t-inv T
  0.000000  0.000000 -0.166667      21 t-inv T
 -0.166667  0.000000 -0.166667      22 t-inv T
 -0.333333  0.000000 -0.166667      23 t-inv T
 -0.500000  0.000000 -0.166667      24 t-inv T
  0.333333  0.000000 -0.166667      25 t-inv T
  0.166667  0.000000 -0.166667      26 t-inv T
  0.000000 -0.166667 -0.166667      27 t-inv T
 -0.166667 -0.166667 -0.166667      28 t-inv T
 -0.333333 -0.166667 -0.166667      29 t-inv T
 -0.500000 -0.166667 -0.166667      30 t-inv T
  0.333333 -0.166667 -0.166667      31 t-inv T
  0.166667 -0.166667 -0.166667      32 t-inv T
  0.000000 -0.333333 -0.166667      33 t-inv T
 -0.166667 -0.333333 -0.166667      34 t-inv T
 -0.333333 -0.333333 -0.166667      35 t-inv T
 -0.500000 -0.333333 -0.166667      36 t-inv T
  0.333333 -0.333333 -0.166667      37 t-inv T
  0.166667 -0.333333 -0.166667      38 t-inv T
  0.000000 -0.500000 -0.166667      39 t-inv T
 -0.166667 -0.500000 -0.166667      40 t-inv T
 -0.333333 -0.500000 -0.166667      41 t-inv T
 -0.500000 -0.500000 -0.166667      42 t-inv T
  0.333333 -0.500000 -0.166667      43 t-inv T
  0.166667 -0.500000 -0.166667      44 t-inv T
  0.000000  0.333333 -0.166667      45 t-inv T
 -0.166667  0.333333 -0.166667      46 t-inv T
 -0.333333  0.333333 -0.166667      47 t-inv T
 -0.500000  0.333333 -0.166667      48 t-inv T
  0.333333  0.333333 -0.166667      49 t-inv T
  0.166667  0.333333 -0.166667      50 t-inv T
  0.000000  0.166667 -0.166667      51 t-inv T
 -0.166667  0.166667 -0.166667      52 t-inv T
 -0.333333  0.166667 -0.166667      53 t-inv T
 -0.500000  0.166667 -0.166667      54 t-inv T
  0.333333  0.166667 -0.166667      55 t-inv T
  0.166667  0.166667 -0.166667      56 t-inv T
  0.000000  0.000000 -0.333333      57 t-inv T
 -0.166667  0.000000 -0.333333      58 t-inv T
 -0.333333  0.000000 -0.333333      59 t-inv T
 -0.500000  0.000000 -0.333333      60 t-inv T
  0.333333  0.000000 -0.333333      61 t-inv T
  0.166667  0.000000 -0.333333      62 t-inv T
  0.000000 -0.166667 -0.333333      63 t-inv T
 -0.166667 -0.166667 -0.333333      64 t-inv T
 -0.333333 -0.166667 -0.333333      65 t-inv T
 -0.500000 -0.166667 -0.333333      66 t-inv T
  0.333333 -0.166667 -0.333333      67 t-inv T
  0.166667 -0.166667 -0.333333      68 t-inv T
  0.000000 -0.333333 -0.333333      69 t-inv T
 -0.166667 -0.333333 -0.333333      70 t-inv T
 -0.333333 -0.333333 -0.333333      71 t-inv T
 -0.500000 -0.333333 -0.333333      72 t-inv T
  0.333333 -0.333333 -0.333333      73 t-inv T
  0.166667 -0.333333 -0.333333      74 t-inv T
  0.000000 -0.500000 -0.333333      75 t-inv T
 -0.166667 -0.500000 -0.333333      76 t-inv T
 -0.333333 -0.500000 -0.333333      77 t-inv T
 -0.500000 -0.500000 -0.333333      78 t-inv T
  0.333333 -0.500000 -0.333333      79 t-inv T
  0.166667 -0.500000 -0.333333      80 t-inv T
  0.000000  0.333333 -0.333333      81 t-inv T
 -0.166667  0.333333 -0.333333      82 t-inv T
 -0.333333  0.333333 -0.333333      83 t-inv T
 -0.500000  0.333333 -0.333333      84 t-inv T
  0.333333  0.333333 -0.333333      85 t-inv T
  0.166667  0.333333 -0.333333      86 t-inv T
  0.000000  0.166667 -0.333333      87 t-inv T
 -0.166667  0.166667 -0.333333      88 t-inv T
 -0.333333  0.166667 -0.333333      89 t-inv T
 -0.500000  0.166667 -0.333333      90 t-inv T
  0.333333  0.166667 -0.333333      91 t-inv T
  0.166667  0.166667 -0.333333      92 t-inv T
 -0.166667  0.000000 -0.500000      94 t-inv T
 -0.333333  0.000000 -0.500000      95 t-inv T
  0.000000 -0.166667 -0.500000      97 t-inv T
 -0.166667 -0.166667 -0.500000      98 t-inv T
 -0.333333 -0.166667 -0.500000      99 t-inv T
 -0.500000 -0.166667 -0.500000     100 t-inv T
  0.333333 -0.166667 -0.500000     101 t-inv T
  0.166667 -0.166667 -0.500000     102 t-inv T
  0.000000 -0.333333 -0.500000     103 t-inv T
 -0.166667 -0.333333 -0.500000     104 t-inv T
 -0.333333 -0.333333 -0.500000     105 t-inv T
 -0.500000 -0.333333 -0.500000     106 t-inv T
  0.333333 -0.333333 -0.500000     107 t-inv T
  0.166667 -0.333333 -0.500000     108 t-inv T
 -0.166667 -0.500000 -0.500000     110 t-inv T
 -0.333333 -0.500000 -0.500000     111 t-inv T


--------------------------------------------------------------------------------------------------------




 Dimension of arrays:
   k-points           NKPTS =    176   k-points in BZ     NKDIM =    280   number of bands    NBANDS=     32
   number of dos      NEDOS =    301   number of ions     NIONS =     12
   non local maximal  LDIM  =      6   non local SUM 2l+1 LMDIM =     18
   total plane-waves  NPLWV = 110592
   max r-space proj   IRMAX =      1   max aug-charges    IRDMAX=  25940
   dimension x,y,z NGX =    48 NGY =   48 NGZ =   48
   dimension x,y,z NGXF=    96 NGYF=   96 NGZF=   96
   support grid    NGXF=    96 NGYF=   96 NGZF=   96
   ions per type =               1   1   6   1   3
 NGX,Y,Z   is equivalent  to a cutoff of  12.69, 12.72, 12.67 a.u.
 NGXF,Y,Z  is equivalent  to a cutoff of  25.37, 25.44, 25.34 a.u.


 I would recommend the setting:
   dimension x,y,z NGX =    46 NGY =   46 NGZ =   46
 SYSTEM =  Name                                    
 POSCAR =  MA-Pb-I (Github)                        

 Startparameter for this run:
   NWRITE =      2    write-flag & timer
   PREC   = accura    normal or accurate (medium, high low for compatibility)
   ISTART =      0    job   : 0-new  1-cont  2-samecut
   ICHARG =      2    charge: 1-file 2-atom 10-const
   ISPIN  =      1    spin polarized calculation?
   LNONCOLLINEAR =      F non collinear calculations
   LSORBIT =      F    spin-orbit coupling
   INIWAV =      1    electr: 0-lowe 1-rand  2-diag
   LASPH  =      F    aspherical Exc in radial PAW
   METAGGA=      F    non-selfconsistent MetaGGA calc.

 Electronic Relaxation 1
   ENCUT  =  500.0 eV  36.75 Ry    6.06 a.u.  11.47 11.44 11.48*2*pi/ulx,y,z
   ENINI  =  500.0     initial cutoff
   ENAUG  =  644.9 eV  augmentation charge cutoff
   NELM   =     60;   NELMIN=  5; NELMDL=  0     # of ELM steps 
   EDIFF  = 0.1E-05   stopping-criterion for ELM
   LREAL  =      F    real-space projection
   NLSPLINE    = F    spline interpolate recip. space projectors
   LCOMPAT=      F    compatible to vasp.4.4
   GGA_COMPAT  = T    GGA compatible to vasp.4.4-vasp.4.6
   LMAXPAW     = -100 max onsite density
   LMAXMIX     =    2 max onsite mixed and CHGCAR
   VOSKOWN=      0    Vosko Wilk Nusair interpolation
   ROPT   =    0.00000   0.00000   0.00000   0.00000
   ROPT   =    0.00000
 Ionic relaxation
   EDIFFG = -.5E-02   stopping-criterion for IOM
   NSW    =      1    number of steps for IOM
   NBLOCK =      1;   KBLOCK =      1    inner block; outer block 
   IBRION =      2    ionic relax: 0-MD 1-quasi-New 2-CG
   NFREE  =      1    steps in history (QN), initial steepest desc. (CG)
   ISIF   =      3    stress and relaxation
   IWAVPR =     11    prediction:  0-non 1-charg 2-wave 3-comb
   ISYM   =      2    0-nonsym 1-usesym 2-fastsym
   LCORR  =      T    Harris-Foulkes like correction to forces

   POTIM  = 0.5000    time-step for ionic-motion
   TEIN   =    0.0    initial temperature
   TEBEG  =    0.0;   TEEND  =   0.0 temperature during run
   SMASS  =  -3.00    Nose mass-parameter (am)
   estimated Nose-frequenzy (Omega)   =  0.10E-29 period in steps =****** mass=  -0.904E-27a.u.
   SCALEE = 1.0000    scale energy and forces
   NPACO  =    256;   APACO  = 16.0  distance and # of slots for P.C.
   PSTRESS=    0.0 pullay stress

  Mass of Ions in am
   POMASS =  12.01 14.00  1.00207.20126.90
  Ionic Valenz
   ZVAL   =   4.00  5.00  1.00 14.00  7.00
  Atomic Wigner-Seitz radii
   RWIGS  =  -1.00 -1.00 -1.00 -1.00 -1.00
  virtual crystal weights 
   VCA    =   1.00  1.00  1.00  1.00  1.00
   NELECT =      50.0000    total number of electrons
   NUPDOWN=      -1.0000    fix difference up-down

 DOS related values:
   EMIN   =  10.00;   EMAX   =-10.00  energy-range for DOS
   EFERMI =   0.00
   ISMEAR =     0;   SIGMA  =   0.01  broadening in eV -4-tet -1-fermi 0-gaus

 Electronic relaxation 2 (details)
   IALGO  =     58    algorithm
   LDIAG  =      T    sub-space diagonalisation (order eigenvalues)
   LSUBROT=      F    optimize rotation matrix (better conditioning)
   TURBO    =      0    0=normal 1=particle mesh
   IRESTART =      0    0=no restart 2=restart with 2 vectors
   NREBOOT  =      0    no. of reboots
   NMIN     =      0    reboot dimension
   EREF     =   0.00    reference energy to select bands
   IMIX   =      4    mixing-type and parameters
     AMIX     =   0.40;   BMIX     =  1.00
     AMIX_MAG =   1.60;   BMIX_MAG =  1.00
     AMIN     =   0.01
     WC   =   100.;   INIMIX=   1;  MIXPRE=   1;  MAXMIX= -45

 Intra band minimization:
   WEIMIN = 0.0010     energy-eigenvalue tresh-hold
   EBREAK =  0.78E-08  absolut break condition
   DEPER  =   0.30     relativ break condition  

   TIME   =   0.40     timestep for ELM

  volume/ion in A,a.u.               =      20.71       139.75
  Fermi-wavevector in a.u.,A,eV,Ry     =   0.959306  1.812825 12.520994  0.920267
  Thomas-Fermi vector in A             =   2.088490
 
 Write flags
   LWAVE  =      T    write WAVECAR
   LCHARG =      T    write CHGCAR
   LVTOT  =      F    write LOCPOT, total local potential
   LVHAR  =      F    write LOCPOT, Hartree potential only
   LELF   =      F    write electronic localiz. function (ELF)
   LORBIT =     10    0 simple, 1 ext, 2 COOP (PROOUT)


 Dipole corrections
   LMONO  =      F    monopole corrections only (constant potential shift)
   LDIPOL =      F    correct potential (dipole corrections)
   IDIPOL =      0    1-x, 2-y, 3-z, 4-all directions 
   EPSILON=  1.0000000 bulk dielectric constant

 Core level calculations are selected ICORELEVEL =  1
 Exchange correlation treatment:
   GGA     =    PE    GGA type
   LEXCH   =     8    internal setting for exchange type
   VOSKOWN=      0    Vosko Wilk Nusair interpolation
   EXXOEP  =     0    0=HF, 1=EXX-LHF (local Hartree Fock) 2=EXX OEP
   LHFCALC =     T    Hartree Fock is set to
   LSYMGRAD=     F    symmetrize gradient (conserves proper symmetry)
   PRECFOCK=fast      Normal, Fast or Accurate (Low or Medium for compatibility)
   LRHFCALC=     F    long range Hartree Fock
   LRSCOR  =     F    long range correlation only (use DFT for short range part)
   LTHOMAS =     F    Thomas Fermi screening in HF
   LMODELHF=     F    short range full HF, long range fraction AEXX
   ENCUT4O =  -1.0   cutoff for four orbital integrals eV
   LMAXFOCK=     4    L truncation for augmentation on plane wave grid
   LMAXFOCKAE=  -1    L truncation for all-electron charge restoration on plane wave grid
   NMAXFOCKAE=   1    number of basis functions for all-electron charge restoration
   LFOCKAEDFT=     F  apply the AE augmentation even for DFT
   NKREDX  =     1    reduce k-point grid by
   NKREDY  =     1    reduce k-point grid by
   NKREDZ  =     1    reduce k-point grid by
   SHIFTRED=     F    shift reduced grid of Gamma
   HFKIDENT=     F    idential grid for each k-point
   ODDONLY =     F    use only odd q-grid points
   EVENONLY=     F    use only even q-grid points
   HFALPHA =   -1.0000 decay constant for conv. correction
   MCALPHA =    0.0000 extent of test-charge in conv. correction in multipole expansion
   AEXX    =    0.2500 exact exchange contribution
   HFSCREEN=    0.2070 screening length (either q_TF or 0.3 A-1)
   HFSCREENC=   0.2070 screening length for correlation (either q_TF or 0.3 A-1)
   HFRCUT  =    0.0000 spherical cutoff for potential kernel
   ALDAX   =    0.7500 LDA exchange part
   AGGAX   =    0.7500 GGA exchange part
   ALDAC   =    1.0000 LDA correlation
   AGGAC   =    1.0000 GGA correlation
   NBANDSGWLOW=     1    first orbital included in HF term
   ENCUTFOCK=  -1.0 apply spherical cutoff to Coloumb kernel
 Linear response parameters
   LEPSILON=     F    determine dielectric tensor
   LRPA    =     F    only Hartree local field effects (RPA)
   LNABLA  =     F    use nabla operator in PAW spheres
   LVEL    =     F    velocity operator in full k-point grid
   LINTERFAST=   F  fast interpolation
   KINTER  =     0    interpolate to denser k-point grid
   CSHIFT  =0.1000    complex shift for real part using Kramers Kronig
   OMEGAMAX=  -1.0    maximum frequency
   DEG_THRESHOLD= 0.2000000E-02 threshold for treating states as degnerate
   RTIME   =    0.100 relaxation time in fs

 Orbital magnetization related:
   ORBITALMAG=     F  switch on orbital magnetization
   LCHIMAG   =     F  perturbation theory with respect to B field
   DQ        =  0.001000  dq finite difference perturbation B field



--------------------------------------------------------------------------------------------------------


 conjugate gradient relaxation of ions
 charge density and potential will be updated during run
 non-spin polarized calculation
 Conjugate gradient for all bands (Freysoldt, et al. PRB 79, 241103 (2009))
 preconditioned conjugated gradient                                        
 perform sub-space diagonalisation
    before iterative eigenvector-optimisation
 modified Broyden-mixing scheme, WC =      100.0
 initial mixing is a Kerker type mixing with AMIX =  0.4000 and BMIX =      1.0000
 Hartree-type preconditioning will be used
 using additional bands            7
 reciprocal scheme for non local part
 use partial core corrections
 no Harris-corrections to forces 
 use gradient corrections 
 use of overlap-Matrix (Vanderbilt PP)
 Gauss-broadening in eV      SIGMA  =   0.01


--------------------------------------------------------------------------------------------------------


  energy-cutoff  :      500.00
  volume of cell :      248.50
      direct lattice vectors                 reciprocal lattice vectors
     6.290120125  0.000000000  0.000000000     0.158979476 -0.000001969  0.001001495
     0.000077694  6.273890018  0.000000000     0.000000000  0.159390744  0.000003893
    -0.039667571 -0.000153793  6.296915042     0.000000000  0.000000000  0.158807923

  length of vectors
     6.290120125  6.273890018  6.297039986     0.158982630  0.159390744  0.158807923


 
 k-points in units of 2pi/SCALE and weight: Automatically generated mesh (112 to ign
   0.00000000  0.00000000  0.00000000       0.005
   0.02649658 -0.00000033  0.00016692       0.009
   0.05299316 -0.00000066  0.00033383       0.009
   0.07948974 -0.00000098  0.00050075       0.005
   0.00000000  0.02656512  0.00000065       0.009
   0.02649658  0.02656480  0.00016756       0.009
   0.05299316  0.02656447  0.00033448       0.009
   0.07948974  0.02656414  0.00050140       0.009
  -0.05299316  0.02656578 -0.00033318       0.009
  -0.02649658  0.02656545 -0.00016627       0.009
   0.00000000  0.05313025  0.00000130       0.009
   0.02649658  0.05312992  0.00016821       0.009
   0.05299316  0.05312959  0.00033513       0.009
   0.07948974  0.05312926  0.00050205       0.009
  -0.05299316  0.05313090 -0.00033253       0.009
  -0.02649658  0.05313058 -0.00016562       0.009
   0.00000000  0.07969537  0.00000195       0.005
   0.02649658  0.07969504  0.00016886       0.009
   0.05299316  0.07969472  0.00033578       0.009
   0.07948974  0.07969439  0.00050269       0.005
   0.00000000  0.00000000  0.02646799       0.009
   0.02649658 -0.00000033  0.02663490       0.009
   0.05299316 -0.00000066  0.02680182       0.009
   0.07948974 -0.00000098  0.02696873       0.009
  -0.05299316  0.00000066  0.02613416       0.009
  -0.02649658  0.00000033  0.02630107       0.009
   0.00000000  0.02656512  0.02646864       0.009
   0.02649658  0.02656480  0.02663555       0.009
   0.05299316  0.02656447  0.02680247       0.009
   0.07948974  0.02656414  0.02696938       0.009
  -0.05299316  0.02656578  0.02613480       0.009
  -0.02649658  0.02656545  0.02630172       0.009
   0.00000000  0.05313025  0.02646928       0.009
   0.02649658  0.05312992  0.02663620       0.009
   0.05299316  0.05312959  0.02680312       0.009
   0.07948974  0.05312926  0.02697003       0.009
  -0.05299316  0.05313090  0.02613545       0.009
  -0.02649658  0.05313058  0.02630237       0.009
   0.00000000  0.07969537  0.02646993       0.009
   0.02649658  0.07969504  0.02663685       0.009
   0.05299316  0.07969472  0.02680377       0.009
   0.07948974  0.07969439  0.02697068       0.009
  -0.05299316  0.07969603  0.02613610       0.009
  -0.02649658  0.07969570  0.02630302       0.009
   0.00000000 -0.05313025  0.02646669       0.009
   0.02649658 -0.05313058  0.02663361       0.009
   0.05299316 -0.05313090  0.02680052       0.009
   0.07948974 -0.05313123  0.02696744       0.009
  -0.05299316 -0.05312959  0.02613286       0.009
  -0.02649658 -0.05312992  0.02629977       0.009
   0.00000000 -0.02656512  0.02646734       0.009
   0.02649658 -0.02656545  0.02663425       0.009
   0.05299316 -0.02656578  0.02680117       0.009
   0.07948974 -0.02656611  0.02696809       0.009
  -0.05299316 -0.02656447  0.02613351       0.009
  -0.02649658 -0.02656480  0.02630042       0.009
   0.00000000  0.00000000  0.05293597       0.009
   0.02649658 -0.00000033  0.05310289       0.009
   0.05299316 -0.00000066  0.05326981       0.009
   0.07948974 -0.00000098  0.05343672       0.009
  -0.05299316  0.00000066  0.05260214       0.009
  -0.02649658  0.00000033  0.05276906       0.009
   0.00000000  0.02656512  0.05293662       0.009
   0.02649658  0.02656480  0.05310354       0.009
   0.05299316  0.02656447  0.05327045       0.009
   0.07948974  0.02656414  0.05343737       0.009
  -0.05299316  0.02656578  0.05260279       0.009
  -0.02649658  0.02656545  0.05276971       0.009
   0.00000000  0.05313025  0.05293727       0.009
   0.02649658  0.05312992  0.05310419       0.009
   0.05299316  0.05312959  0.05327110       0.009
   0.07948974  0.05312926  0.05343802       0.009
  -0.05299316  0.05313090  0.05260344       0.009
  -0.02649658  0.05313058  0.05277036       0.009
   0.00000000  0.07969537  0.05293792       0.009
   0.02649658  0.07969504  0.05310484       0.009
   0.05299316  0.07969472  0.05327175       0.009
   0.07948974  0.07969439  0.05343867       0.009
  -0.05299316  0.07969603  0.05260409       0.009
  -0.02649658  0.07969570  0.05277100       0.009
   0.00000000 -0.05313025  0.05293468       0.009
   0.02649658 -0.05313058  0.05310159       0.009
   0.05299316 -0.05313090  0.05326851       0.009
   0.07948974 -0.05313123  0.05343542       0.009
  -0.05299316 -0.05312959  0.05260085       0.009
  -0.02649658 -0.05312992  0.05276776       0.009
   0.00000000 -0.02656512  0.05293533       0.009
   0.02649658 -0.02656545  0.05310224       0.009
   0.05299316 -0.02656578  0.05326916       0.009
   0.07948974 -0.02656611  0.05343607       0.009
  -0.05299316 -0.02656447  0.05260149       0.009
  -0.02649658 -0.02656480  0.05276841       0.009
   0.00000000  0.00000000  0.07940396       0.005
   0.02649658 -0.00000033  0.07957088       0.009
   0.05299316 -0.00000066  0.07973779       0.009
   0.07948974 -0.00000098  0.07990471       0.005
   0.00000000  0.02656512  0.07940461       0.009
   0.02649658  0.02656480  0.07957153       0.009
   0.05299316  0.02656447  0.07973844       0.009
   0.07948974  0.02656414  0.07990536       0.009
  -0.05299316  0.02656578  0.07907078       0.009
  -0.02649658  0.02656545  0.07923769       0.009
   0.00000000  0.05313025  0.07940526       0.009
   0.02649658  0.05312992  0.07957218       0.009
   0.05299316  0.05312959  0.07973909       0.009
   0.07948974  0.05312926  0.07990601       0.009
  -0.05299316  0.05313090  0.07907143       0.009
  -0.02649658  0.05313058  0.07923834       0.009
   0.00000000  0.07969537  0.07940591       0.005
   0.02649658  0.07969504  0.07957282       0.009
   0.05299316  0.07969472  0.07973974       0.009
   0.07948974  0.07969439  0.07990666       0.005
   0.00000000  0.00000000  0.00000000       0.000
   0.00000000  0.00796954  0.00000019       0.000
   0.00000000  0.01593907  0.00000039       0.000
   0.00000000  0.02390861  0.00000058       0.000
   0.00000000  0.03187815  0.00000078       0.000
   0.00000000  0.03984769  0.00000097       0.000
   0.00000000  0.04781722  0.00000117       0.000
   0.00000000  0.05578676  0.00000136       0.000
   0.00000000  0.06375630  0.00000156       0.000
   0.00000000  0.07172584  0.00000175       0.000
   0.00000000  0.07969537  0.00000195       0.000
   0.00883219  0.07969526  0.00005759       0.000
   0.01766439  0.07969515  0.00011322       0.000
   0.02649658  0.07969504  0.00016886       0.000
   0.03532877  0.07969493  0.00022450       0.000
   0.04416097  0.07969483  0.00028014       0.000
   0.05299316  0.07969472  0.00033578       0.000
   0.06182535  0.07969461  0.00039142       0.000
   0.07065755  0.07969450  0.00044706       0.000
   0.07948974  0.07969439  0.00050269       0.000
   0.07381190  0.07400193  0.00046679       0.000
   0.06813406  0.06830948  0.00043088       0.000
   0.06245622  0.06261702  0.00039497       0.000
   0.05677839  0.05692456  0.00035907       0.000
   0.05110055  0.05123211  0.00032316       0.000
   0.04542271  0.04553965  0.00028725       0.000
   0.03974487  0.03984719  0.00025135       0.000
   0.03406703  0.03415474  0.00021544       0.000
   0.02838919  0.02846228  0.00017953       0.000
   0.02271135  0.02276982  0.00014363       0.000
   0.01703352  0.01707737  0.00010772       0.000
   0.01135568  0.01138492  0.00007181       0.000
   0.00567784  0.00569245  0.00003591       0.000
   0.00000000  0.00000000  0.00000000       0.000
   0.00467587  0.00468790  0.00470039       0.000
   0.00935173  0.00937581  0.00940078       0.000
   0.01402760  0.01406372  0.01410118       0.000
   0.01870347  0.01875162  0.01880157       0.000
   0.02337934  0.02343953  0.02350196       0.000
   0.02805520  0.02812743  0.02820235       0.000
   0.03273107  0.03281534  0.03290274       0.000
   0.03740694  0.03750324  0.03760313       0.000
   0.04208280  0.04219114  0.04230352       0.000
   0.04675867  0.04687905  0.04700392       0.000
   0.05143454  0.05156696  0.05170431       0.000
   0.05611041  0.05625486  0.05640470       0.000
   0.06078627  0.06094276  0.06110509       0.000
   0.06546214  0.06563067  0.06580548       0.000
   0.07013800  0.07031858  0.07050587       0.000
   0.07481387  0.07500648  0.07520626       0.000
   0.07948974  0.07969439  0.07990666       0.000
   0.06813406  0.07969453  0.06849170       0.000
   0.06245622  0.07969460  0.06278422       0.000
   0.05677839  0.07969467  0.05707674       0.000
   0.05110055  0.07969474  0.05136926       0.000
   0.04542271  0.07969481  0.04566178       0.000
   0.03974487  0.07969488  0.03995430       0.000
   0.03406703  0.07969495  0.03424682       0.000
   0.02838919  0.07969502  0.02853934       0.000
   0.02271135  0.07969509  0.02283186       0.000
   0.01703352  0.07969516  0.01712439       0.000
   0.01135568  0.07969523  0.01141691       0.000
   0.00567784  0.07969530  0.00570942       0.000
   0.00000000  0.07969537  0.00000195       0.000
 
 k-points in reciprocal lattice and weights: Automatically generated mesh (112 to ign
   0.00000000  0.00000000  0.00000000       0.005
   0.16666667  0.00000000  0.00000000       0.009
   0.33333333  0.00000000  0.00000000       0.009
   0.50000000  0.00000000  0.00000000       0.005
   0.00000000  0.16666667  0.00000000       0.009
   0.16666667  0.16666667  0.00000000       0.009
   0.33333333  0.16666667  0.00000000       0.009
   0.50000000  0.16666667  0.00000000       0.009
  -0.33333333  0.16666667  0.00000000       0.009
  -0.16666667  0.16666667  0.00000000       0.009
   0.00000000  0.33333333  0.00000000       0.009
   0.16666667  0.33333333  0.00000000       0.009
   0.33333333  0.33333333  0.00000000       0.009
   0.50000000  0.33333333  0.00000000       0.009
  -0.33333333  0.33333333  0.00000000       0.009
  -0.16666667  0.33333333  0.00000000       0.009
   0.00000000  0.50000000  0.00000000       0.005
   0.16666667  0.50000000  0.00000000       0.009
   0.33333333  0.50000000  0.00000000       0.009
   0.50000000  0.50000000  0.00000000       0.005
   0.00000000  0.00000000  0.16666667       0.009
   0.16666667  0.00000000  0.16666667       0.009
   0.33333333  0.00000000  0.16666667       0.009
   0.50000000  0.00000000  0.16666667       0.009
  -0.33333333  0.00000000  0.16666667       0.009
  -0.16666667  0.00000000  0.16666667       0.009
   0.00000000  0.16666667  0.16666667       0.009
   0.16666667  0.16666667  0.16666667       0.009
   0.33333333  0.16666667  0.16666667       0.009
   0.50000000  0.16666667  0.16666667       0.009
  -0.33333333  0.16666667  0.16666667       0.009
  -0.16666667  0.16666667  0.16666667       0.009
   0.00000000  0.33333333  0.16666667       0.009
   0.16666667  0.33333333  0.16666667       0.009
   0.33333333  0.33333333  0.16666667       0.009
   0.50000000  0.33333333  0.16666667       0.009
  -0.33333333  0.33333333  0.16666667       0.009
  -0.16666667  0.33333333  0.16666667       0.009
   0.00000000  0.50000000  0.16666667       0.009
   0.16666667  0.50000000  0.16666667       0.009
   0.33333333  0.50000000  0.16666667       0.009
   0.50000000  0.50000000  0.16666667       0.009
  -0.33333333  0.50000000  0.16666667       0.009
  -0.16666667  0.50000000  0.16666667       0.009
   0.00000000 -0.33333333  0.16666667       0.009
   0.16666667 -0.33333333  0.16666667       0.009
   0.33333333 -0.33333333  0.16666667       0.009
   0.50000000 -0.33333333  0.16666667       0.009
  -0.33333333 -0.33333333  0.16666667       0.009
  -0.16666667 -0.33333333  0.16666667       0.009
   0.00000000 -0.16666667  0.16666667       0.009
   0.16666667 -0.16666667  0.16666667       0.009
   0.33333333 -0.16666667  0.16666667       0.009
   0.50000000 -0.16666667  0.16666667       0.009
  -0.33333333 -0.16666667  0.16666667       0.009
  -0.16666667 -0.16666667  0.16666667       0.009
   0.00000000  0.00000000  0.33333333       0.009
   0.16666667  0.00000000  0.33333333       0.009
   0.33333333  0.00000000  0.33333333       0.009
   0.50000000  0.00000000  0.33333333       0.009
  -0.33333333  0.00000000  0.33333333       0.009
  -0.16666667  0.00000000  0.33333333       0.009
   0.00000000  0.16666667  0.33333333       0.009
   0.16666667  0.16666667  0.33333333       0.009
   0.33333333  0.16666667  0.33333333       0.009
   0.50000000  0.16666667  0.33333333       0.009
  -0.33333333  0.16666667  0.33333333       0.009
  -0.16666667  0.16666667  0.33333333       0.009
   0.00000000  0.33333333  0.33333333       0.009
   0.16666667  0.33333333  0.33333333       0.009
   0.33333333  0.33333333  0.33333333       0.009
   0.50000000  0.33333333  0.33333333       0.009
  -0.33333333  0.33333333  0.33333333       0.009
  -0.16666667  0.33333333  0.33333333       0.009
   0.00000000  0.50000000  0.33333333       0.009
   0.16666667  0.50000000  0.33333333       0.009
   0.33333333  0.50000000  0.33333333       0.009
   0.50000000  0.50000000  0.33333333       0.009
  -0.33333333  0.50000000  0.33333333       0.009
  -0.16666667  0.50000000  0.33333333       0.009
   0.00000000 -0.33333333  0.33333333       0.009
   0.16666667 -0.33333333  0.33333333       0.009
   0.33333333 -0.33333333  0.33333333       0.009
   0.50000000 -0.33333333  0.33333333       0.009
  -0.33333333 -0.33333333  0.33333333       0.009
  -0.16666667 -0.33333333  0.33333333       0.009
   0.00000000 -0.16666667  0.33333333       0.009
   0.16666667 -0.16666667  0.33333333       0.009
   0.33333333 -0.16666667  0.33333333       0.009
   0.50000000 -0.16666667  0.33333333       0.009
  -0.33333333 -0.16666667  0.33333333       0.009
  -0.16666667 -0.16666667  0.33333333       0.009
   0.00000000  0.00000000  0.50000000       0.005
   0.16666667  0.00000000  0.50000000       0.009
   0.33333333  0.00000000  0.50000000       0.009
   0.50000000  0.00000000  0.50000000       0.005
   0.00000000  0.16666667  0.50000000       0.009
   0.16666667  0.16666667  0.50000000       0.009
   0.33333333  0.16666667  0.50000000       0.009
   0.50000000  0.16666667  0.50000000       0.009
  -0.33333333  0.16666667  0.50000000       0.009
  -0.16666667  0.16666667  0.50000000       0.009
   0.00000000  0.33333333  0.50000000       0.009
   0.16666667  0.33333333  0.50000000       0.009
   0.33333333  0.33333333  0.50000000       0.009
   0.50000000  0.33333333  0.50000000       0.009
  -0.33333333  0.33333333  0.50000000       0.009
  -0.16666667  0.33333333  0.50000000       0.009
   0.00000000  0.50000000  0.50000000       0.005
   0.16666667  0.50000000  0.50000000       0.009
   0.33333333  0.50000000  0.50000000       0.009
   0.50000000  0.50000000  0.50000000       0.005
   0.00000000  0.00000000  0.00000000       0.000
   0.00000000  0.05000000  0.00000000       0.000
   0.00000000  0.10000000  0.00000000       0.000
   0.00000000  0.15000001  0.00000000       0.000
   0.00000000  0.20000000  0.00000000       0.000
   0.00000000  0.25000000  0.00000000       0.000
   0.00000000  0.30000001  0.00000000       0.000
   0.00000000  0.34999999  0.00000000       0.000
   0.00000000  0.40000001  0.00000000       0.000
   0.00000000  0.45000002  0.00000000       0.000
   0.00000000  0.50000000  0.00000000       0.000
   0.05555556  0.50000000  0.00000000       0.000
   0.11111111  0.50000000  0.00000000       0.000
   0.16666667  0.50000000  0.00000000       0.000
   0.22222222  0.50000000  0.00000000       0.000
   0.27777779  0.50000000  0.00000000       0.000
   0.33333334  0.50000000  0.00000000       0.000
   0.38888890  0.50000000  0.00000000       0.000
   0.44444445  0.50000000  0.00000000       0.000
   0.50000000  0.50000000  0.00000000       0.000
   0.46428570  0.46428570  0.00000000       0.000
   0.42857143  0.42857143  0.00000000       0.000
   0.39285713  0.39285713  0.00000000       0.000
   0.35714287  0.35714287  0.00000000       0.000
   0.32142857  0.32142857  0.00000000       0.000
   0.28571430  0.28571430  0.00000000       0.000
   0.25000000  0.25000000  0.00000000       0.000
   0.21428570  0.21428570  0.00000000       0.000
   0.17857140  0.17857140  0.00000000       0.000
   0.14285713  0.14285713  0.00000000       0.000
   0.10714287  0.10714287  0.00000000       0.000
   0.07142860  0.07142860  0.00000000       0.000
   0.03571427  0.03571427  0.00000000       0.000
   0.00000000  0.00000000  0.00000000       0.000
   0.02941176  0.02941176  0.02941176       0.000
   0.05882353  0.05882353  0.05882353       0.000
   0.08823530  0.08823530  0.08823530       0.000
   0.11764706  0.11764706  0.11764706       0.000
   0.14705883  0.14705883  0.14705883       0.000
   0.17647059  0.17647059  0.17647059       0.000
   0.20588236  0.20588236  0.20588236       0.000
   0.23529412  0.23529412  0.23529412       0.000
   0.26470587  0.26470587  0.26470587       0.000
   0.29411766  0.29411766  0.29411766       0.000
   0.32352942  0.32352942  0.32352942       0.000
   0.35294119  0.35294119  0.35294119       0.000
   0.38235292  0.38235292  0.38235292       0.000
   0.41176471  0.41176471  0.41176471       0.000
   0.44117647  0.44117647  0.44117647       0.000
   0.47058824  0.47058824  0.47058824       0.000
   0.50000000  0.50000000  0.50000000       0.000
   0.42857143  0.50000000  0.42857143       0.000
   0.39285713  0.50000000  0.39285713       0.000
   0.35714287  0.50000000  0.35714287       0.000
   0.32142857  0.50000000  0.32142857       0.000
   0.28571430  0.50000000  0.28571430       0.000
   0.25000000  0.50000000  0.25000000       0.000
   0.21428570  0.50000000  0.21428570       0.000
   0.17857140  0.50000000  0.17857140       0.000
   0.14285713  0.50000000  0.14285713       0.000
   0.10714287  0.50000000  0.10714287       0.000
   0.07142860  0.50000000  0.07142860       0.000
   0.03571427  0.50000000  0.03571427       0.000
   0.00000000  0.50000000  0.00000000       0.000
 
 position of ions in fractional coordinates (direct lattice) 
   0.90278000  0.99996299  0.99633503
   0.13658300  0.99982703  0.02487800
   0.86450797  0.99971300  0.82573497
   0.83779401  0.14375700  0.07192800
   0.83758902  0.85651600  0.07238300
   0.20758800  0.13427401  0.95813400
   0.20739301  0.86506301  0.95849699
   0.18201301  0.00000300  0.18535300
   0.47617099  0.50003099  0.47564700
   0.42680299  0.49988300  0.97260898
   0.43586001  0.00004500  0.50654203
   0.96289802  0.50022697  0.44774699
 
 position of ions in cartesian coordinates  (Angst):
   5.63915012  6.27350457  6.27383704
   0.85821431  6.27280098  0.15665466
   5.40518177  6.27196244  5.19958297
   5.26698290  0.90190455  0.45292452
   5.26573087  5.37367608  0.45578961
   1.26775705  0.84227299  6.03328837
   1.26657288  5.42716279  6.03557410
   1.13753116 -0.00000968  1.16715207
   2.97634380  3.13706631  2.99510876
   2.64609990  3.13606136  6.12443614
   2.72151852  0.00020442  3.18965211
   6.03902202  3.13830016  2.81942477
 


--------------------------------------------------------------------------------------------------------


 k-point  1 :   0.0000 0.0000 0.0000  plane waves:    6329
 k-point  2 :   0.1667 0.0000 0.0000  plane waves:    6328
 k-point  3 :   0.3333 0.0000 0.0000  plane waves:    6330
 k-point  4 :   0.5000 0.0000 0.0000  plane waves:    6342
 k-point  5 :   0.0000 0.1667 0.0000  plane waves:    6328
 k-point  6 :   0.1667 0.1667 0.0000  plane waves:    6317
 k-point  7 :   0.3333 0.1667 0.0000  plane waves:    6315
 k-point  8 :   0.5000 0.1667 0.0000  plane waves:    6314
 k-point  9 :  -0.3333 0.1667 0.0000  plane waves:    6315
 k-point 10 :  -0.1667 0.1667 0.0000  plane waves:    6317
 k-point 11 :   0.0000 0.3333 0.0000  plane waves:    6327
 k-point 12 :   0.1667 0.3333 0.0000  plane waves:    6315
 k-point 13 :   0.3333 0.3333 0.0000  plane waves:    6301
 k-point 14 :   0.5000 0.3333 0.0000  plane waves:    6298
 k-point 15 :  -0.3333 0.3333 0.0000  plane waves:    6301
 k-point 16 :  -0.1667 0.3333 0.0000  plane waves:    6315
 k-point 17 :   0.0000 0.5000 0.0000  plane waves:    6358
 k-point 18 :   0.1667 0.5000 0.0000  plane waves:    6316
 k-point 19 :   0.3333 0.5000 0.0000  plane waves:    6298
 k-point 20 :   0.5000 0.5000 0.0000  plane waves:    6272
 k-point 21 :   0.0000 0.0000 0.1667  plane waves:    6326
 k-point 22 :   0.1667 0.0000 0.1667  plane waves:    6318
 k-point 23 :   0.3333 0.0000 0.1667  plane waves:    6320
 k-point 24 :   0.5000 0.0000 0.1667  plane waves:    6316
 k-point 25 :  -0.3333 0.0000 0.1667  plane waves:    6311
 k-point 26 :  -0.1667 0.0000 0.1667  plane waves:    6308
 k-point 27 :   0.0000 0.1667 0.1667  plane waves:    6315
 k-point 28 :   0.1667 0.1667 0.1667  plane waves:    6321
 k-point 29 :   0.3333 0.1667 0.1667  plane waves:    6318
 k-point 30 :   0.5000 0.1667 0.1667  plane waves:    6300
 k-point 31 :  -0.3333 0.1667 0.1667  plane waves:    6317
 k-point 32 :  -0.1667 0.1667 0.1667  plane waves:    6331
 k-point 33 :   0.0000 0.3333 0.1667  plane waves:    6315
 k-point 34 :   0.1667 0.3333 0.1667  plane waves:    6311
 k-point 35 :   0.3333 0.3333 0.1667  plane waves:    6304
 k-point 36 :   0.5000 0.3333 0.1667  plane waves:    6304
 k-point 37 :  -0.3333 0.3333 0.1667  plane waves:    6307
 k-point 38 :  -0.1667 0.3333 0.1667  plane waves:    6311
 k-point 39 :   0.0000 0.5000 0.1667  plane waves:    6308
 k-point 40 :   0.1667 0.5000 0.1667  plane waves:    6305
 k-point 41 :   0.3333 0.5000 0.1667  plane waves:    6316
 k-point 42 :   0.5000 0.5000 0.1667  plane waves:    6300
 k-point 43 :  -0.3333 0.5000 0.1667  plane waves:    6297
 k-point 44 :  -0.1667 0.5000 0.1667  plane waves:    6306
 k-point 45 :   0.0000-0.3333 0.1667  plane waves:    6315
 k-point 46 :   0.1667-0.3333 0.1667  plane waves:    6311
 k-point 47 :   0.3333-0.3333 0.1667  plane waves:    6304
 k-point 48 :   0.5000-0.3333 0.1667  plane waves:    6304
 k-point 49 :  -0.3333-0.3333 0.1667  plane waves:    6306
 k-point 50 :  -0.1667-0.3333 0.1667  plane waves:    6311
 k-point 51 :   0.0000-0.1667 0.1667  plane waves:    6314
 k-point 52 :   0.1667-0.1667 0.1667  plane waves:    6321
 k-point 53 :   0.3333-0.1667 0.1667  plane waves:    6318
 k-point 54 :   0.5000-0.1667 0.1667  plane waves:    6300
 k-point 55 :  -0.3333-0.1667 0.1667  plane waves:    6317
 k-point 56 :  -0.1667-0.1667 0.1667  plane waves:    6331
 k-point 57 :   0.0000 0.0000 0.3333  plane waves:    6323
 k-point 58 :   0.1667 0.0000 0.3333  plane waves:    6319
 k-point 59 :   0.3333 0.0000 0.3333  plane waves:    6300
 k-point 60 :   0.5000 0.0000 0.3333  plane waves:    6301
 k-point 61 :  -0.3333 0.0000 0.3333  plane waves:    6306
 k-point 62 :  -0.1667 0.0000 0.3333  plane waves:    6310
 k-point 63 :   0.0000 0.1667 0.3333  plane waves:    6313
 k-point 64 :   0.1667 0.1667 0.3333  plane waves:    6320
 k-point 65 :   0.3333 0.1667 0.3333  plane waves:    6309
 k-point 66 :   0.5000 0.1667 0.3333  plane waves:    6307
 k-point 67 :  -0.3333 0.1667 0.3333  plane waves:    6303
 k-point 68 :  -0.1667 0.1667 0.3333  plane waves:    6322
 k-point 69 :   0.0000 0.3333 0.3333  plane waves:    6301
 k-point 70 :   0.1667 0.3333 0.3333  plane waves:    6305
 k-point 71 :   0.3333 0.3333 0.3333  plane waves:    6316
 k-point 72 :   0.5000 0.3333 0.3333  plane waves:    6296
 k-point 73 :  -0.3333 0.3333 0.3333  plane waves:    6297
 k-point 74 :  -0.1667 0.3333 0.3333  plane waves:    6298
 k-point 75 :   0.0000 0.5000 0.3333  plane waves:    6298
 k-point 76 :   0.1667 0.5000 0.3333  plane waves:    6318
 k-point 77 :   0.3333 0.5000 0.3333  plane waves:    6300
 k-point 78 :   0.5000 0.5000 0.3333  plane waves:    6278
 k-point 79 :  -0.3333 0.5000 0.3333  plane waves:    6298
 k-point 80 :  -0.1667 0.5000 0.3333  plane waves:    6300
 k-point 81 :   0.0000-0.3333 0.3333  plane waves:    6301
 k-point 82 :   0.1667-0.3333 0.3333  plane waves:    6305
 k-point 83 :   0.3333-0.3333 0.3333  plane waves:    6316
 k-point 84 :   0.5000-0.3333 0.3333  plane waves:    6296
 k-point 85 :  -0.3333-0.3333 0.3333  plane waves:    6297
 k-point 86 :  -0.1667-0.3333 0.3333  plane waves:    6299
 k-point 87 :   0.0000-0.1667 0.3333  plane waves:    6313
 k-point 88 :   0.1667-0.1667 0.3333  plane waves:    6320
 k-point 89 :   0.3333-0.1667 0.3333  plane waves:    6309
 k-point 90 :   0.5000-0.1667 0.3333  plane waves:    6307
 k-point 91 :  -0.3333-0.1667 0.3333  plane waves:    6303
 k-point 92 :  -0.1667-0.1667 0.3333  plane waves:    6321
 k-point 93 :   0.0000 0.0000 0.5000  plane waves:    6334
 k-point 94 :   0.1667 0.0000 0.5000  plane waves:    6312
 k-point 95 :   0.3333 0.0000 0.5000  plane waves:    6298
 k-point 96 :   0.5000 0.0000 0.5000  plane waves:    6272
 k-point 97 :   0.0000 0.1667 0.5000  plane waves:    6310
 k-point 98 :   0.1667 0.1667 0.5000  plane waves:    6306
 k-point 99 :   0.3333 0.1667 0.5000  plane waves:    6302
 k-point ** :   0.5000 0.1667 0.5000  plane waves:    6304
 k-point ** :  -0.3333 0.1667 0.5000  plane waves:    6302
 k-point ** :  -0.1667 0.1667 0.5000  plane waves:    6305
 k-point ** :   0.0000 0.3333 0.5000  plane waves:    6298
 k-point ** :   0.1667 0.3333 0.5000  plane waves:    6304
 k-point ** :   0.3333 0.3333 0.5000  plane waves:    6291
 k-point ** :   0.5000 0.3333 0.5000  plane waves:    6270
 k-point ** :  -0.3333 0.3333 0.5000  plane waves:    6293
 k-point ** :  -0.1667 0.3333 0.5000  plane waves:    6304
 k-point ** :   0.0000 0.5000 0.5000  plane waves:    6276
 k-point ** :   0.1667 0.5000 0.5000  plane waves:    6300
 k-point ** :   0.3333 0.5000 0.5000  plane waves:    6282
 k-point ** :   0.5000 0.5000 0.5000  plane waves:    6272
 k-point ** :   0.0000 0.0000 0.0000  plane waves:    6329
 k-point ** :   0.0000 0.0500 0.0000  plane waves:    6325
 k-point ** :   0.0000 0.1000 0.0000  plane waves:    6321
 k-point ** :   0.0000 0.1500 0.0000  plane waves:    6317
 k-point ** :   0.0000 0.2000 0.0000  plane waves:    6329
 k-point ** :   0.0000 0.2500 0.0000  plane waves:    6317
 k-point ** :   0.0000 0.3000 0.0000  plane waves:    6311
 k-point ** :   0.0000 0.3500 0.0000  plane waves:    6337
 k-point ** :   0.0000 0.4000 0.0000  plane waves:    6333
 k-point ** :   0.0000 0.4500 0.0000  plane waves:    6344
 k-point ** :   0.0000 0.5000 0.0000  plane waves:    6358
 k-point ** :   0.0556 0.5000 0.0000  plane waves:    6344
 k-point ** :   0.1111 0.5000 0.0000  plane waves:    6332
 k-point ** :   0.1667 0.5000 0.0000  plane waves:    6316
 k-point ** :   0.2222 0.5000 0.0000  plane waves:    6304
 k-point ** :   0.2778 0.5000 0.0000  plane waves:    6300
 k-point ** :   0.3333 0.5000 0.0000  plane waves:    6298
 k-point ** :   0.3889 0.5000 0.0000  plane waves:    6294
 k-point ** :   0.4444 0.5000 0.0000  plane waves:    6280
 k-point ** :   0.5000 0.5000 0.0000  plane waves:    6272
[...]
     18      -1.5358      2.00000
     19      -1.3410      2.00000
     20      -1.1671      2.00000
     21      -0.7738      2.00000
     22      -0.3495      2.00000
     23       0.0420      2.00000
     24       0.0657      2.00000
     25       0.4649      2.00000
     26       3.6446      0.00000
     27       4.8417      0.00000
     28       5.1395      0.00000
     29       6.5650      0.00000
     30       7.4077      0.00000
     31       7.8056      0.00000
     32       8.5454      0.00000

 k-point   169 :       0.2500    0.5000    0.2500
  band No.  band energies     occupation 
      1     -20.8427      2.00000
      2     -17.1569      2.00000
      3     -17.1346      2.00000
      4     -17.0994      2.00000
      5     -17.0810      2.00000
      6     -17.0771      2.00000
      7     -13.3071      2.00000
      8     -12.0160      2.00000
      9     -11.8295      2.00000
     10     -11.4529      2.00000
     11      -9.1666      2.00000
     12      -9.0660      2.00000
     13      -7.4369      2.00000
     14      -7.0722      2.00000
     15      -4.7767      2.00000
     16      -4.7559      2.00000
     17      -1.7701      2.00000
     18      -1.5071      2.00000
     19      -1.4852      2.00000
     20      -1.1296      2.00000
     21      -0.7455      2.00000
     22      -0.4151      2.00000
     23      -0.0042      2.00000
     24       0.0071      2.00000
     25       0.3854      2.00000
     26       3.7397      0.00000
     27       5.2074      0.00000
     28       5.5274      0.00000
     29       6.6942      0.00000
     30       7.3166      0.00000
     31       7.6632      0.00000
     32       8.4632      0.00000

 k-point   170 :       0.2143    0.5000    0.2143
  band No.  band energies     occupation 
      1     -20.8429      2.00000
      2     -17.1582      2.00000
      3     -17.1361      2.00000
      4     -17.0993      2.00000
      5     -17.0808      2.00000
      6     -17.0770      2.00000
      7     -13.3053      2.00000
      8     -12.0442      2.00000
      9     -11.8276      2.00000
     10     -11.4335      2.00000
     11      -9.1646      2.00000
     12      -9.0720      2.00000
     13      -7.2911      2.00000
     14      -7.0755      2.00000
     15      -4.7751      2.00000
     16      -4.7605      2.00000
     17      -1.9867      2.00000
     18      -1.7118      2.00000
     19      -1.4349      2.00000
     20      -1.0868      2.00000
     21      -0.6794      2.00000
     22      -0.4891      2.00000
     23      -0.0574      2.00000
     24      -0.0469      2.00000
     25       0.3284      2.00000
     26       3.8326      0.00000
     27       5.5522      0.00000
     28       5.9109      0.00000
     29       6.8615      0.00000
     30       7.2490      0.00000
     31       7.5603      0.00000
     32       8.2609      0.00000

 k-point   171 :       0.1786    0.5000    0.1786
  band No.  band energies     occupation 
      1     -20.8431      2.00000
      2     -17.1595      2.00000
      3     -17.1374      2.00000
      4     -17.0992      2.00000
      5     -17.0806      2.00000
      6     -17.0769      2.00000
      7     -13.3030      2.00000
      8     -12.0718      2.00000
      9     -11.8267      2.00000
     10     -11.4124      2.00000
     11      -9.1626      2.00000
     12      -9.0788      2.00000
     13      -7.1465      2.00000
     14      -7.0769      2.00000
     15      -4.7697      2.00000
     16      -4.7654      2.00000
     17      -2.1815      2.00000
     18      -1.9223      2.00000
     19      -1.3859      2.00000
     20      -1.0386      2.00000
     21      -0.5999      2.00000
     22      -0.5693      2.00000
     23      -0.1266      2.00000
     24      -0.0832      2.00000
     25       0.2871      2.00000
     26       3.9186      0.00000
     27       5.8583      0.00000
     28       6.2816      0.00000
     29       6.9644      0.00000
     30       7.2259      0.00000
     31       7.3973      0.00000
     32       8.1103      0.00000

 k-point   172 :       0.1429    0.5000    0.1429
  band No.  band energies     occupation 
      1     -20.8433      2.00000
      2     -17.1607      2.00000
      3     -17.1385      2.00000
      4     -17.0991      2.00000
      5     -17.0805      2.00000
      6     -17.0768      2.00000
      7     -13.3005      2.00000
      8     -12.0970      2.00000
      9     -11.8266      2.00000
     10     -11.3916      2.00000
     11      -9.1609      2.00000
     12      -9.0858      2.00000
     13      -7.0767      2.00000
     14      -7.0106      2.00000
     15      -4.7703      2.00000
     16      -4.7615      2.00000
     17      -2.3506      2.00000
     18      -2.1174      2.00000
     19      -1.3386      2.00000
     20      -0.9863      2.00000
     21      -0.6513      2.00000
     22      -0.5217      2.00000
     23      -0.1985      2.00000
     24      -0.1102      2.00000
     25       0.2565      2.00000
     26       3.9932      0.00000
     27       6.1147      0.00000
     28       6.6239      0.00000
     29       7.0504      0.00000
     30       7.2523      0.00000
     31       7.3570      0.00000
     32       8.0795      0.00000

 k-point   173 :       0.1071    0.5000    0.1071
  band No.  band energies     occupation 
      1     -20.8434      2.00000
      2     -17.1618      2.00000
      3     -17.1394      2.00000
      4     -17.0991      2.00000
      5     -17.0804      2.00000
      6     -17.0768      2.00000
      7     -13.2981      2.00000
      8     -12.1182      2.00000
      9     -11.8271      2.00000
     10     -11.3731      2.00000
     11      -9.1594      2.00000
     12      -9.0923      2.00000
     13      -7.0755      2.00000
     14      -6.8914      2.00000
     15      -4.7747      2.00000
     16      -4.7521      2.00000
     17      -2.4906      2.00000
     18      -2.2816      2.00000
     19      -1.2927      2.00000
     20      -0.9352      2.00000
     21      -0.7276      2.00000
     22      -0.4558      2.00000
     23      -0.2701      2.00000
     24      -0.1253      2.00000
     25       0.2337      2.00000
     26       4.0542      0.00000
     27       6.3082      0.00000
     28       6.8993      0.00000
     29       7.0753      0.00000
     30       7.1822      0.00000
     31       7.3647      0.00000
     32       8.0551      0.00000

 k-point   174 :       0.0714    0.5000    0.0714
  band No.  band energies     occupation 
      1     -20.8436      2.00000
      2     -17.1626      2.00000
      3     -17.1401      2.00000
      4     -17.0990      2.00000
      5     -17.0803      2.00000
      6     -17.0767      2.00000
      7     -13.2961      2.00000
      8     -12.1342      2.00000
      9     -11.8279      2.00000
     10     -11.3586      2.00000
     11      -9.1583      2.00000
     12      -9.0975      2.00000
     13      -7.0741      2.00000
     14      -6.7977      2.00000
     15      -4.7784      2.00000
     16      -4.7435      2.00000
     17      -2.5979      2.00000
     18      -2.4038      2.00000
     19      -1.2491      2.00000
     20      -0.9030      2.00000
     21      -0.7791      2.00000
     22      -0.4100      2.00000
     23      -0.3358      2.00000
     24      -0.1279      2.00000
     25       0.2170      2.00000
     26       4.0996      0.00000
     27       6.4296      0.00000
     28       6.9197      0.00000
     29       7.0970      0.00000
     30       7.4475      0.00000
     31       7.6008      0.00000
     32       8.0805      0.00000

 k-point   175 :       0.0357    0.5000    0.0357
  band No.  band energies     occupation 
      1     -20.8436      2.00000
      2     -17.1631      2.00000
      3     -17.1405      2.00000
      4     -17.0990      2.00000
      5     -17.0802      2.00000
      6     -17.0767      2.00000
      7     -13.2948      2.00000
      8     -12.1441      2.00000
      9     -11.8284      2.00000
     10     -11.3494      2.00000
     11      -9.1576      2.00000
     12      -9.1009      2.00000
     13      -7.0729      2.00000
     14      -6.7374      2.00000
     15      -4.7808      2.00000
     16      -4.7375      2.00000
     17      -2.6667      2.00000
     18      -2.4781      2.00000
     19      -1.2132      2.00000
     20      -0.9150      2.00000
     21      -0.7800      2.00000
     22      -0.3861      2.00000
     23      -0.3854      2.00000
     24      -0.1231      2.00000
     25       0.2064      2.00000
     26       4.1275      0.00000
     27       6.5096      0.00000
     28       6.8440      0.00000
     29       7.0894      0.00000
     30       7.5747      0.00000
     31       7.7415      0.00000
     32       8.1244      0.00000

 k-point   176 :       0.0000    0.5000    0.0000
  band No.  band energies     occupation 
      1     -20.8437      2.00000
      2     -17.1632      2.00000
      3     -17.1407      2.00000
      4     -17.0990      2.00000
      5     -17.0802      2.00000
      6     -17.0767      2.00000
      7     -13.2943      2.00000
      8     -12.1474      2.00000
      9     -11.8287      2.00000
     10     -11.3462      2.00000
     11      -9.1574      2.00000
     12      -9.1021      2.00000
     13      -7.0726      2.00000
     14      -6.7165      2.00000
     15      -4.7817      2.00000
     16      -4.7353      2.00000
     17      -2.6905      2.00000
     18      -2.5029      2.00000
     19      -1.1980      2.00000
     20      -0.9295      2.00000
     21      -0.7703      2.00000
     22      -0.4059      2.00000
     23      -0.3780      2.00000
     24      -0.1200      2.00000
     25       0.2027      2.00000
     26       4.1368      0.00000
     27       6.5381      0.00000
     28       6.8133      0.00000
     29       7.0752      0.00000
     30       7.5851      0.00000
     31       7.6734      0.00000
     32       8.2907      0.00000


--------------------------------------------------------------------------------------------------------


 soft charge-density along one line, spin component           1
         0         1         2         3         4         5         6         7         8         9
 total charge-density along one line
 
 pseudopotential strength for first ion, spin component:           1
  9.657  12.833  -0.000   0.001   0.009   0.000  -0.003  -0.029
 12.833  17.053  -0.000   0.001   0.012   0.000  -0.004  -0.038
 -0.000  -0.000  -3.915   0.000   0.000   7.636  -0.000  -0.000
  0.001   0.001   0.000  -3.916  -0.002  -0.000   7.637   0.004
  0.009   0.012   0.000  -0.002  -3.934  -0.000   0.004   7.672
  0.000   0.000   7.636  -0.000  -0.000 -16.990   0.000   0.000
 -0.003  -0.004  -0.000   7.637   0.004   0.000 -16.992  -0.009
 -0.029  -0.038  -0.000   0.004   7.672   0.000  -0.009 -17.061
 total augmentation occupancy for first ion, spin component:           1
  8.482  -3.815  -0.000   0.010   0.063  -0.000   0.005   0.040
 -3.815   1.742   0.000  -0.019  -0.151   0.000  -0.004  -0.033
 -0.000   0.000   1.720  -0.000   0.000   0.139  -0.000  -0.000
  0.010  -0.019  -0.000   1.714  -0.041  -0.000   0.139   0.001
  0.063  -0.151   0.000  -0.041   1.371  -0.000   0.001   0.143
 -0.000   0.000   0.139  -0.000  -0.000   0.012  -0.000  -0.000
  0.005  -0.004  -0.000   0.139   0.001  -0.000   0.012   0.001
  0.040  -0.033  -0.000   0.001   0.143  -0.000   0.001   0.016


------------------------ aborting loop because EDIFF is reached ----------------------------------------


 


 total charge     
 
# of ion     s       p       d       tot
----------------------------------------
  1        0.844   1.760   0.000   2.604
  2        1.226   2.788   0.000   4.014
  3        0.638   0.046   0.000   0.684
  4        0.637   0.046   0.000   0.683
  5        0.637   0.046   0.000   0.683
  6        0.599   0.080   0.000   0.679
  7        0.599   0.080   0.000   0.679
  8        0.594   0.080   0.000   0.674
  9        1.519   0.477   9.846  11.841
 10        1.504   2.897   0.008   4.409
 11        1.504   2.897   0.008   4.409
 12        1.505   2.885   0.007   4.397
------------------------------------------------
tot       11.806  14.081   9.870  35.756
 
    FORLOC:  cpu time    0.01: real time    0.01
    FORHF :  cpu time  541.82: real time  542.42
    FORNL :  cpu time    0.13: real time    0.13
    STRESS:  cpu time    2.51: real time    2.51
    FORCOR:  cpu time    0.20: real time    0.20
    OFIELD:  cpu time    0.00: real time    0.00

  FORCE on cell =-STRESS in cart. coord.  units (eV):
  Direction    XX          YY          ZZ          XY          YZ          ZX
  --------------------------------------------------------------------------------------
  Alpha Z    46.46596    46.46596    46.46596
  Ewald    -631.85511  -642.25523  -667.21442    -0.07437    -0.09326    21.50540
  Hartree   355.18363   357.51196   342.01493    -0.04920    -0.05742    12.72034
  E(xc)    -154.50013  -154.51188  -154.56229    -0.00019     0.00001     0.04916
  Local    -620.76878  -609.60467  -570.45091     0.12509     0.14509   -33.74839
  n-local   534.15745   531.24657   531.17880    -0.00151     0.00001     0.31548
  augment    11.84431    11.81335    11.70558    -0.00009     0.00003     0.01514
  Kinetic   581.37945   580.86902   582.59392     0.00058     0.00441    -0.74586
  Fock            NaN         NaN         NaN         NaN         NaN         NaN
  -------------------------------------------------------------------------------------
  Total           NaN         NaN         NaN         NaN         NaN         NaN
  in kB           NaN         NaN         NaN         NaN         NaN         NaN
  external pressure =         NaN kB  Pullay stress =        0.00 kB


 VOLUME and BASIS-vectors are now :
 -----------------------------------------------------------------------------
  energy-cutoff  :      500.00
  volume of cell :      248.50
      direct lattice vectors                 reciprocal lattice vectors
     6.290120125  0.000000000  0.000000000     0.158979476 -0.000001969  0.001001495
     0.000077694  6.273890018  0.000000000     0.000000000  0.159390744  0.000003893
    -0.039667571 -0.000153793  6.296915042     0.000000000  0.000000000  0.158807923

  length of vectors
     6.290120125  6.273890018  6.297039986     0.158982630  0.159390744  0.158807923


 FORCES acting on ions:
    Electron-Ion                     Ewald-Force                    Non-Local-Force
 -----------------------------------------------------------------------------------------------
   0.889E+02 -.817E-01 0.171E+02   -.969E+02 0.863E-01 -.179E+02   0.730E+01 -.335E-02 0.825E+00
   -.422E+02 -.768E-02 0.335E+01   0.412E+02 0.321E-02 -.333E+01   0.141E+01 0.128E-02 0.668E-01
   0.171E+02 0.540E-01 0.496E+02   -.184E+02 -.616E-01 -.550E+02   0.135E+01 0.779E-02 0.547E+01
   0.253E+02 -.390E+02 -.177E+02   -.275E+02 0.435E+02 0.200E+02   0.223E+01 -.458E+01 -.241E+01
   0.253E+02 0.389E+02 -.178E+02   -.275E+02 -.434E+02 0.202E+02   0.224E+01 0.457E+01 -.242E+01
   -.271E+02 -.493E+02 0.271E+02   0.300E+02 0.546E+02 -.298E+02   -.297E+01 -.554E+01 0.275E+01
   -.270E+02 0.493E+02 0.270E+02   0.299E+02 -.546E+02 -.296E+02   -.296E+01 0.555E+01 0.273E+01
   -.145E+02 -.753E-01 -.586E+02   0.162E+02 0.820E-01 0.648E+02   -.182E+01 -.679E-02 -.648E+01
   -.317E+02 0.635E-01 -.104E+02   0.304E+02 -.626E-01 0.101E+02   0.114E+01 -.908E-03 0.328E+00
   -.110E+02 0.715E-01 0.416E+01   0.110E+02 -.738E-01 -.408E+01   0.607E-01 0.229E-02 -.782E-01
   -.128E+02 -.220E-01 -.173E+02   0.128E+02 0.215E-01 0.179E+02   0.351E-01 0.456E-03 -.511E+00
   0.167E+01 0.305E-01 -.696E+01   -.112E+01 -.291E-01 0.679E+01   -.551E+00 -.155E-02 0.176E+00
 -----------------------------------------------------------------------------------------------
   -.800E+01 0.222E-02 -.499E+00   -.124E-13 0.122E-14 -.444E-14   0.746E+01 -.191E-02 0.455E+00
 
 
 POSITION                                       TOTAL-FORCE (eV/Angst)
 -----------------------------------------------------------------------------------
      5.63915      6.27350      6.27384              NaN           NaN           NaN
      0.85821      6.27280      0.15665              NaN           NaN           NaN
      5.40518      6.27196      5.19958              NaN           NaN           NaN
      5.26698      0.90190      0.45292              NaN           NaN           NaN
      5.26573      5.37368      0.45579              NaN           NaN           NaN
      1.26776      0.84227      6.03329              NaN           NaN           NaN
      1.26657      5.42716      6.03557              NaN           NaN           NaN
      1.13753     -0.00001      1.16715              NaN           NaN           NaN
      2.97634      3.13707      2.99511              NaN           NaN           NaN
      2.64610      3.13606      6.12444              NaN           NaN           NaN
      2.72152      0.00020      3.18965              NaN           NaN           NaN
      6.03902      3.13830      2.81942              NaN           NaN           NaN
 -----------------------------------------------------------------------------------
    total drift:                                     NaN           NaN           NaN


--------------------------------------------------------------------------------------------------------



  FREE ENERGIE OF THE ION-ELECTRON SYSTEM (eV)
  ---------------------------------------------------
  free  energy   TOTEN  =       -59.87863386 eV

  energy  without entropy=      -59.87863386  energy(sigma->0) =      -59.87863386
 


--------------------------------------------------------------------------------------------------------


    POTLOK:  cpu time    0.43: real time    0.46


--------------------------------------------------------------------------------------------------------




--------------------------------------------------------------------------------------------------------


  
 reached required accuracy - stopping structural energy minimisation
 writing wavefunctions
     LOOP+:  cpu time 6161.22: real time 6170.89
    4ORBIT:  cpu time    0.00: real time    0.00
 


 total charge     
 
# of ion     s       p       d       tot
----------------------------------------
  1        0.844   1.760   0.000   2.604
  2        1.226   2.788   0.000   4.014
  3        0.638   0.046   0.000   0.684
  4        0.637   0.046   0.000   0.683
  5        0.637   0.046   0.000   0.683
  6        0.599   0.080   0.000   0.679
  7        0.599   0.080   0.000   0.679
  8        0.594   0.080   0.000   0.674
  9        1.519   0.477   9.846  11.841
 10        1.504   2.897   0.008   4.409
 11        1.504   2.897   0.008   4.409
 12        1.505   2.885   0.007   4.397
------------------------------------------------
tot       11.806  14.081   9.870  35.756
 

 total amount of memory used by VASP on root node   361384. kBytes
========================================================================

   base      :      30000. kBytes
   nonl-proj :     207628. kBytes
   fftplans  :       2925. kBytes
   grid      :       5612. kBytes
   one-center:         46. kBytes
   HF        :        194. kBytes
   nonlr-proj:       2251. kBytes
   wavefun   :     112728. kBytes
 
  
  
 General timing and accounting informations for this job:
 ========================================================
  
                  Total CPU time used (sec):     6251.250
                            User time (sec):     6246.477
                          System time (sec):        4.773
                         Elapsed time (sec):     6261.928
  
                   Maximum memory used (kb):      564896.
                   Average memory used (kb):           0.
  
                          Minor page faults:      1069328
                          Major page faults:            0
                 Voluntary context switches:        54259
