PROCAR new format
# of k-points:  176         # of bands:  32         # of ions:  12

 k-point    1 :    0.00000000 0.00000000 0.00000000     weight = 0.00462963

band   1 # energy  -20.84473981 # occ.  2.00000000
 
ion      s      p      d    tot
  1  0.060  0.018  0.000  0.079
  2  0.561  0.000  0.000  0.561
  3  0.003  0.000  0.000  0.004
  4  0.003  0.000  0.000  0.004
  5  0.003  0.000  0.000  0.004
  6  0.054  0.009  0.000  0.063
  7  0.054  0.009  0.000  0.063
  8  0.053  0.009  0.000  0.062
  9  0.000  0.000  0.000  0.000
 10  0.000  0.000  0.000  0.000
 11  0.000  0.000  0.000  0.000
 12  0.000  0.000  0.000  0.000
tot  0.791  0.047  0.000  0.838
 
band   2 # energy  -17.17081721 # occ.  2.00000000
 
ion      s      p      d    tot
  1  0.000  0.000  0.000  0.000
  2  0.000  0.000  0.000  0.000
  3  0.000  0.000  0.000  0.000
  4  0.000  0.000  0.000  0.000
  5  0.000  0.000  0.000  0.000
  6  0.000  0.000  0.000  0.000
  7  0.000  0.000  0.000  0.000
  8  0.000  0.000  0.000  0.000
  9  0.000  0.000  0.966  0.966
 10  0.003  0.000  0.000  0.004
 11  0.003  0.000  0.000  0.003
 12  0.000  0.000  0.000  0.000
tot  0.007  0.000  0.966  0.973
 
band   3 # energy  -17.14615572 # occ.  2.00000000
 
ion      s      p      d    tot
  1  0.000  0.000  0.000  0.000
  2  0.000  0.000  0.000  0.000
  3  0.000  0.000  0.000  0.000
  4  0.000  0.000  0.000  0.000
  5  0.000  0.000  0.000  0.000
  6  0.000  0.000  0.000  0.000
  7  0.000  0.000  0.000  0.000
  8  0.000  0.000  0.000  0.000
  9  0.000  0.000  0.966  0.966
 10  0.001  0.000  0.000  0.001
 11  0.001  0.000  0.000  0.001
 12  0.004  0.000  0.000  0.004
tot  0.006  0.000  0.967  0.973
 
band   4 # energy  -17.09821042 # occ.  2.00000000
 
ion      s      p      d    tot
  1  0.000  0.000  0.000  0.000
  2  0.000  0.000  0.000  0.000
  3  0.000  0.000  0.000  0.000
  4  0.000  0.000  0.000  0.000
  5  0.000  0.000  0.000  0.000
  6  0.000  0.000  0.000  0.000
  7  0.000  0.000  0.000  0.000
  8  0.000  0.000  0.000  0.000
  9  0.000  0.000  0.979  0.979
 10  0.000  0.000  0.000  0.000
 11  0.000  0.000  0.000  0.000
 12  0.000  0.000  0.000  0.000
tot  0.000  0.000  0.979  0.979
 
band   5 # energy  -17.08016969 # occ.  2.00000000
 
ion      s      p      d    tot
  1  0.000  0.000  0.000  0.000
  2  0.000  0.000  0.000  0.000
  3  0.000  0.000  0.000  0.000
  4  0.000  0.000  0.000  0.000
  5  0.000  0.000  0.000  0.000
  6  0.000  0.000  0.000  0.000
  7  0.000  0.000  0.000  0.000
  8  0.000  0.000  0.000  0.000
  9  0.000  0.000  0.979  0.979
 10  0.000  0.000  0.000  0.000
 11  0.000  0.000  0.000  0.000
 12  0.000  0.000  0.000  0.000
tot  0.000  0.000  0.979  0.979
 
band   6 # energy  -17.07581382 # occ.  2.00000000
 
ion      s      p      d    tot
  1  0.000  0.000  0.000  0.000
  2  0.000  0.000  0.000  0.000
  3  0.000  0.000  0.000  0.000
  4  0.000  0.000  0.000  0.000
  5  0.000  0.000  0.000  0.000
  6  0.000  0.000  0.000  0.000
  7  0.000  0.000  0.000  0.000
  8  0.000  0.000  0.000  0.000
  9  0.000  0.000  0.979  0.979
 10  0.000  0.000  0.000  0.000
 11  0.000  0.000  0.000  0.000
 12  0.000  0.000  0.000  0.000
tot  0.000  0.000  0.979  0.979
 
band   7 # energy  -13.30122897 # occ.  2.00000000
 
ion      s      p      d    tot
  1  0.343  0.000  0.000  0.344
  2  0.033  0.124  0.000  0.157
  3  0.056  0.006  0.000  0.061
  4  0.056  0.006  0.000  0.061
  5  0.056  0.006  0.000  0.061
  6  0.021  0.003  0.000  0.024
  7  0.021  0.003  0.000  0.024
  8  0.022  0.003  0.000  0.025
  9  0.000  0.000  0.000  0.000
 10  0.003  0.000  0.000  0.003
 11  0.002  0.000  0.000  0.002
 12  0.000  0.000  0.000  0.000
tot  0.613  0.151  0.000  0.765
 
band   8 # energy  -12.36629768 # occ.  2.00000000
 
ion      s      p      d    tot
  1  0.001  0.001  0.000  0.002
  2  0.003  0.000  0.000  0.003
  3  0.001  0.000  0.000  0.001
  4  0.001  0.000  0.000  0.001
  5  0.001  0.000  0.000  0.001
  6  0.000  0.000  0.000  0.000
  7  0.000  0.000  0.000  0.000
  8  0.000  0.000  0.000  0.000
  9  0.059  0.000  0.000  0.060
 10  0.273  0.000  0.000  0.273
 11  0.237  0.000  0.000  0.237
 12  0.122  0.000  0.000  0.122
tot  0.698  0.001  0.001  0.700
 
band   9 # energy  -11.57687512 # occ.  2.00000000
 
ion      s      p      d    tot
  1  0.000  0.000  0.000  0.000
  2  0.000  0.002  0.000  0.002
  3  0.000  0.000  0.000  0.000
  4  0.000  0.000  0.000  0.000
  5  0.000  0.000  0.000  0.000
  6  0.001  0.000  0.000  0.001
  7  0.001  0.000  0.000  0.001
  8  0.002  0.000  0.000  0.002
  9  0.000  0.000  0.014  0.015
 10  0.371  0.000  0.000  0.371
 11  0.373  0.000  0.000  0.373
 12  0.002  0.000  0.000  0.002
tot  0.749  0.002  0.015  0.766
 
band  10 # energy  -11.28358214 # occ.  2.00000000
 
ion      s      p      d    tot
  1  0.001  0.000  0.000  0.001
  2  0.001  0.000  0.000  0.001
  3  0.000  0.000  0.000  0.000
  4  0.000  0.000  0.000  0.000
  5  0.000  0.000  0.000  0.000
  6  0.000  0.000  0.000  0.000
  7  0.000  0.000  0.000  0.000
  8  0.000  0.000  0.000  0.000
  9  0.003  0.000  0.014  0.017
 10  0.064  0.000  0.000  0.064
 11  0.097  0.000  0.000  0.097
 12  0.585  0.000  0.000  0.586
tot  0.752  0.001  0.014  0.767
 
band  11 # energy   -9.26346390 # occ.  2.00000000
 
ion      s      p      d    tot
  1  0.000  0.042  0.000  0.042
  2  0.000  0.403  0.000  0.403
  3  0.000  0.000  0.000  0.000
  4  0.013  0.001  0.000  0.014
  5  0.013  0.001  0.000  0.014
  6  0.131  0.012  0.000  0.142
  7  0.130  0.012  0.000  0.141
  8  0.000  0.003  0.000  0.003
  9  0.000  0.000  0.000  0.000
 10  0.000  0.003  0.000  0.003
 11  0.000  0.000  0.000  0.000
 12  0.000  0.000  0.000  0.000
tot  0.287  0.477  0.000  0.763
 
band  12 # energy   -9.08953794 # occ.  2.00000000
 
ion      s      p      d    tot
  1  0.000  0.045  0.000  0.045
  2  0.000  0.398  0.000  0.398
  3  0.018  0.001  0.000  0.020
  4  0.005  0.001  0.000  0.006
  5  0.005  0.001  0.000  0.006
  6  0.040  0.006  0.000  0.046
  7  0.041  0.006  0.000  0.047
  8  0.167  0.014  0.000  0.181
  9  0.000  0.000  0.000  0.000
 10  0.003  0.000  0.000  0.003
 11  0.003  0.002  0.000  0.005
 12  0.001  0.000  0.000  0.001
tot  0.284  0.474  0.000  0.759
 
band  13 # energy   -7.04376417 # occ.  2.00000000
 
ion      s      p      d    tot
  1  0.013  0.214  0.000  0.227
  2  0.009  0.316  0.000  0.325
  3  0.037  0.003  0.000  0.040
  4  0.033  0.003  0.000  0.036
  5  0.033  0.003  0.000  0.036
  6  0.015  0.003  0.000  0.018
  7  0.015  0.003  0.000  0.018
  8  0.013  0.003  0.000  0.016
  9  0.009  0.000  0.000  0.010
 10  0.001  0.000  0.000  0.001
 11  0.001  0.000  0.000  0.001
 12  0.000  0.000  0.000  0.000
tot  0.179  0.550  0.000  0.729
 
band  14 # energy   -6.02597695 # occ.  2.00000000
 
ion      s      p      d    tot
  1  0.000  0.002  0.000  0.003
  2  0.000  0.004  0.000  0.004
  3  0.000  0.000  0.000  0.000
  4  0.000  0.000  0.000  0.000
  5  0.000  0.000  0.000  0.000
  6  0.000  0.000  0.000  0.000
  7  0.000  0.000  0.000  0.000
  8  0.000  0.000  0.000  0.000
  9  0.658  0.000  0.000  0.659
 10  0.035  0.001  0.002  0.038
 11  0.038  0.001  0.002  0.041
 12  0.042  0.002  0.002  0.046
tot  0.775  0.012  0.005  0.792
 
band  15 # energy   -4.74667845 # occ.  2.00000000
 
ion      s      p      d    tot
  1  0.000  0.274  0.000  0.274
  2  0.000  0.047  0.000  0.047
  3  0.000  0.002  0.000  0.002
  4  0.152  0.007  0.000  0.159
  5  0.155  0.007  0.000  0.162
  6  0.028  0.002  0.000  0.030
  7  0.027  0.002  0.000  0.029
  8  0.000  0.000  0.000  0.000
  9  0.000  0.000  0.000  0.000
 10  0.000  0.001  0.000  0.001
 11  0.000  0.000  0.000  0.000
 12  0.000  0.001  0.000  0.001
tot  0.362  0.343  0.000  0.705
 
band  16 # energy   -4.73011973 # occ.  2.00000000
 
ion      s      p      d    tot
  1  0.000  0.270  0.000  0.270
  2  0.000  0.051  0.000  0.051
  3  0.202  0.009  0.000  0.211
  4  0.053  0.004  0.000  0.057
  5  0.050  0.004  0.000  0.054
  6  0.009  0.001  0.000  0.010
  7  0.010  0.001  0.000  0.011
  8  0.039  0.002  0.000  0.041
  9  0.000  0.000  0.000  0.000
 10  0.000  0.000  0.000  0.001
 11  0.001  0.001  0.000  0.002
 12  0.000  0.001  0.000  0.001
tot  0.363  0.344  0.000  0.707
 
band  17 # energy   -2.82801558 # occ.  2.00000000
 
ion      s      p      d    tot
  1  0.000  0.001  0.000  0.001
  2  0.000  0.005  0.000  0.005
  3  0.000  0.000  0.000  0.000
  4  0.000  0.000  0.000  0.000
  5  0.000  0.000  0.000  0.000
  6  0.000  0.000  0.000  0.001
  7  0.000  0.000  0.000  0.001
  8  0.000  0.000  0.000  0.000
  9  0.000  0.095  0.000  0.095
 10  0.000  0.046  0.000  0.046
 11  0.000  0.293  0.000  0.293
 12  0.000  0.027  0.000  0.027
tot  0.001  0.468  0.000  0.469
 
band  18 # energy   -2.82614676 # occ.  2.00000000
 
ion      s      p      d    tot
  1  0.000  0.002  0.000  0.002
  2  0.000  0.004  0.000  0.004
  3  0.000  0.000  0.000  0.000
  4  0.000  0.000  0.000  0.000
  5  0.000  0.000  0.000  0.000
  6  0.000  0.000  0.000  0.000
  7  0.000  0.000  0.000  0.000
  8  0.000  0.000  0.000  0.001
  9  0.000  0.094  0.000  0.094
 10  0.000  0.298  0.000  0.298
 11  0.000  0.041  0.000  0.041
 12  0.000  0.028  0.000  0.028
tot  0.001  0.467  0.000  0.469
 
band  19 # energy   -2.65603292 # occ.  2.00000000
 
ion      s      p      d    tot
  1  0.001  0.000  0.000  0.001
  2  0.001  0.000  0.000  0.001
  3  0.000  0.000  0.000  0.000
  4  0.000  0.000  0.000  0.000
  5  0.000  0.000  0.000  0.000
  6  0.000  0.000  0.000  0.000
  7  0.000  0.000  0.000  0.000
  8  0.000  0.000  0.000  0.000
  9  0.005  0.097  0.000  0.102
 10  0.001  0.044  0.000  0.045
 11  0.001  0.041  0.000  0.042
 12  0.000  0.273  0.000  0.273
tot  0.010  0.456  0.000  0.466
 
band  20 # energy   -0.62802497 # occ.  2.00000000
 
ion      s      p      d    tot
  1  0.000  0.000  0.000  0.000
  2  0.000  0.018  0.000  0.018
  3  0.000  0.000  0.000  0.000
  4  0.000  0.000  0.000  0.000
  5  0.000  0.000  0.000  0.000
  6  0.000  0.002  0.000  0.002
  7  0.000  0.002  0.000  0.002
  8  0.000  0.000  0.000  0.000
  9  0.000  0.005  0.000  0.005
 10  0.000  0.454  0.000  0.454
 11  0.000  0.047  0.000  0.047
 12  0.000  0.021  0.000  0.021
tot  0.001  0.550  0.000  0.551
 
band  21 # energy   -0.60520380 # occ.  2.00000000
 
ion      s      p      d    tot
  1  0.000  0.000  0.000  0.000
  2  0.000  0.014  0.000  0.014
  3  0.001  0.000  0.000  0.001
  4  0.000  0.000  0.000  0.000
  5  0.000  0.000  0.000  0.000
  6  0.000  0.000  0.000  0.000
  7  0.000  0.000  0.000  0.000
  8  0.000  0.003  0.000  0.003
  9  0.000  0.001  0.000  0.002
 10  0.000  0.149  0.000  0.150
 11  0.000  0.359  0.000  0.360
 12  0.000  0.012  0.000  0.012
tot  0.002  0.540  0.000  0.542
 
band  22 # energy   -0.52592474 # occ.  2.00000000
 
ion      s      p      d    tot
  1  0.000  0.000  0.000  0.000
  2  0.001  0.002  0.000  0.004
  3  0.000  0.000  0.000  0.000
  4  0.000  0.000  0.000  0.000
  5  0.000  0.000  0.000  0.000
  6  0.000  0.000  0.000  0.000
  7  0.000  0.000  0.000  0.000
  8  0.000  0.001  0.000  0.001
  9  0.000  0.005  0.001  0.005
 10  0.000  0.238  0.000  0.238
 11  0.000  0.263  0.000  0.263
 12  0.000  0.031  0.000  0.031
tot  0.002  0.540  0.001  0.543
 
band  23 # energy   -0.37210799 # occ.  2.00000000
 
ion      s      p      d    tot
  1  0.000  0.000  0.000  0.000
  2  0.003  0.001  0.000  0.004
  3  0.000  0.000  0.000  0.000
  4  0.000  0.000  0.000  0.000
  5  0.000  0.000  0.000  0.000
  6  0.000  0.001  0.000  0.001
  7  0.000  0.001  0.000  0.001
  8  0.000  0.000  0.000  0.001
  9  0.002  0.012  0.001  0.015
 10  0.000  0.121  0.000  0.121
 11  0.000  0.306  0.000  0.306
 12  0.001  0.107  0.000  0.108
tot  0.006  0.549  0.001  0.556
 
band  24 # energy   -0.10891575 # occ.  2.00000000
 
ion      s      p      d    tot
  1  0.000  0.004  0.000  0.004
  2  0.000  0.000  0.000  0.000
  3  0.000  0.000  0.000  0.000
  4  0.001  0.000  0.000  0.001
  5  0.001  0.000  0.000  0.001
  6  0.000  0.000  0.000  0.000
  7  0.000  0.000  0.000  0.000
  8  0.000  0.000  0.000  0.000
  9  0.000  0.004  0.000  0.005
 10  0.000  0.005  0.000  0.006
 11  0.000  0.068  0.000  0.068
 12  0.000  0.467  0.000  0.467
tot  0.001  0.549  0.000  0.550
 
band  25 # energy   -0.09434362 # occ.  2.00000000
 
ion      s      p      d    tot
  1  0.000  0.003  0.000  0.003
  2  0.000  0.001  0.000  0.001
  3  0.001  0.000  0.000  0.001
  4  0.000  0.000  0.000  0.000
  5  0.000  0.000  0.000  0.000
  6  0.000  0.000  0.000  0.000
  7  0.000  0.000  0.000  0.000
  8  0.000  0.000  0.000  0.000
  9  0.000  0.004  0.000  0.005
 10  0.000  0.070  0.000  0.070
 11  0.000  0.008  0.000  0.009
 12  0.000  0.462  0.000  0.462
tot  0.002  0.549  0.001  0.551
 
band  26 # energy    5.53373123 # occ.  0.00000000
 
ion      s      p      d    tot
  1  0.028  0.013  0.000  0.041
  2  0.026  0.008  0.000  0.034
  3  0.000  0.004  0.000  0.004
  4  0.000  0.003  0.000  0.003
  5  0.000  0.003  0.000  0.003
  6  0.002  0.004  0.000  0.006
  7  0.002  0.004  0.000  0.006
  8  0.002  0.004  0.000  0.006
  9  0.001  0.002  0.000  0.003
 10  0.019  0.002  0.004  0.024
 11  0.019  0.001  0.004  0.024
 12  0.026  0.004  0.004  0.033
tot  0.124  0.053  0.012  0.189
 
band  27 # energy    6.45734823 # occ.  0.00000000
 
ion      s      p      d    tot
  1  0.000  0.007  0.000  0.007
  2  0.000  0.011  0.000  0.011
  3  0.000  0.001  0.000  0.001
  4  0.000  0.001  0.000  0.001
  5  0.000  0.001  0.000  0.001
  6  0.002  0.002  0.000  0.004
  7  0.002  0.002  0.000  0.004
  8  0.000  0.002  0.000  0.002
  9  0.000  0.059  0.022  0.080
 10  0.000  0.000  0.029  0.029
 11  0.000  0.026  0.032  0.058
 12  0.000  0.003  0.010  0.013
tot  0.004  0.115  0.092  0.212
 
band  28 # energy    6.62237786 # occ.  0.00000000
 
ion      s      p      d    tot
  1  0.000  0.001  0.000  0.001
  2  0.000  0.005  0.000  0.006
  3  0.001  0.000  0.000  0.001
  4  0.000  0.000  0.000  0.001
  5  0.000  0.000  0.000  0.001
  6  0.000  0.001  0.000  0.001
  7  0.000  0.001  0.000  0.001
  8  0.000  0.000  0.000  0.001
  9  0.000  0.129  0.016  0.146
 10  0.000  0.055  0.030  0.086
 11  0.004  0.003  0.007  0.014
 12  0.001  0.008  0.022  0.031
tot  0.007  0.205  0.076  0.288
 
band  29 # energy    6.86263922 # occ.  0.00000000
 
ion      s      p      d    tot
  1  0.000  0.012  0.000  0.012
  2  0.000  0.021  0.000  0.021
  3  0.002  0.002  0.000  0.004
  4  0.000  0.002  0.000  0.003
  5  0.000  0.002  0.000  0.003
  6  0.000  0.002  0.000  0.002
  7  0.000  0.002  0.000  0.002
  8  0.001  0.002  0.000  0.003
  9  0.000  0.011  0.002  0.013
 10  0.015  0.004  0.009  0.028
 11  0.005  0.000  0.013  0.019
 12  0.000  0.002  0.022  0.024
tot  0.025  0.063  0.046  0.134
 
band  30 # energy    6.99647117 # occ.  0.00000000
 
ion      s      p      d    tot
  1  0.003  0.008  0.000  0.011
  2  0.017  0.023  0.000  0.039
  3  0.001  0.000  0.000  0.001
  4  0.002  0.000  0.000  0.002
  5  0.002  0.000  0.000  0.002
  6  0.001  0.004  0.000  0.005
  7  0.000  0.005  0.000  0.005
  8  0.000  0.004  0.000  0.004
  9  0.000  0.012  0.004  0.016
 10  0.007  0.002  0.032  0.041
 11  0.010  0.001  0.021  0.032
 12  0.005  0.000  0.007  0.011
tot  0.046  0.058  0.064  0.168
 
band  31 # energy    7.01669264 # occ.  0.00000000
 
ion      s      p      d    tot
  1  0.000  0.001  0.000  0.001
  2  0.000  0.006  0.000  0.007
  3  0.000  0.000  0.000  0.000
  4  0.000  0.000  0.000  0.001
  5  0.001  0.000  0.000  0.001
  6  0.001  0.001  0.000  0.002
  7  0.001  0.000  0.000  0.002
  8  0.000  0.001  0.000  0.001
  9  0.000  0.062  0.028  0.090
 10  0.000  0.001  0.016  0.017
 11  0.000  0.031  0.039  0.070
 12  0.000  0.000  0.031  0.031
tot  0.004  0.105  0.113  0.221
 
band  32 # energy    8.99868887 # occ.  0.00000000
 
ion      s      p      d    tot
  1  0.046  0.046  0.000  0.092
  2  0.070  0.049  0.000  0.119
  3  0.000  0.008  0.000  0.008
  4  0.001  0.006  0.000  0.006
  5  0.000  0.007  0.000  0.007
  6  0.007  0.006  0.000  0.013
  7  0.002  0.004  0.000  0.006
  8  0.002  0.002  0.000  0.004
  9  0.002  0.082  0.000  0.084
 10  0.001  0.019  0.002  0.021
 11  0.001  0.011  0.002  0.015
 12  0.001  0.033  0.000  0.034
tot  0.131  0.273  0.005  0.409
 

 k-point    2 :    0.16666667 0.00000000 0.00000000     weight = 0.00925926

band   1 # energy  -20.84445957 # occ.  2.00000000
 
ion      s      p      d    tot
  1  0.060  0.018  0.000  0.079
  2  0.561  0.000  0.000  0.561
  3  0.003  0.000  0.000  0.004
  4  0.003  0.000  0.000  0.004
  5  0.003  0.000  0.000  0.004
  6  0.054  0.009  0.000  0.063
  7  0.054  0.009  0.000  0.063
  8  0.053  0.009  0.000  0.062
  9  0.000  0.000  0.000  0.000
 10  0.000  0.000  0.000  0.000
 11  0.000  0.000  0.000  0.000
 12  0.000  0.000  0.000  0.000
tot  0.791  0.047  0.000  0.838
 
band   2 # energy  -17.17080894 # occ.  2.00000000
 
ion      s      p      d    tot
  1  0.000  0.000  0.000  0.000
  2  0.000  0.000  0.000  0.000
  3  0.000  0.000  0.000  0.000
  4  0.000  0.000  0.000  0.000
  5  0.000  0.000  0.000  0.000
  6  0.000  0.000  0.000  0.000
  7  0.000  0.000  0.000  0.000
  8  0.000  0.000  0.000  0.000
  9  0.000  0.000  0.966  0.966
 10  0.003  0.000  0.000  0.004
 11  0.003  0.000  0.000  0.003
 12  0.000  0.000  0.000  0.000
tot  0.007  0.000  0.966  0.973
 
band   3 # energy  -17.14327499 # occ.  2.00000000
 
ion      s      p      d    tot
  1  0.000  0.000  0.000  0.000
  2  0.000  0.000  0.000  0.000
  3  0.000  0.000  0.000  0.000
  4  0.000  0.000  0.000  0.000
  5  0.000  0.000  0.000  0.000
  6  0.000  0.000  0.000  0.000
  7  0.000  0.000  0.000  0.000
  8  0.000  0.000  0.000  0.000
  9  0.000  0.000  0.967  0.967
 10  0.001  0.000  0.000  0.001
 11  0.001  0.000  0.000  0.001
 12  0.003  0.000  0.000  0.004
tot  0.005  0.000  0.968  0.973
 
band   4 # energy  -17.09820993 # occ.  2.00000000
 
ion      s      p      d    tot
  1  0.000  0.000  0.000  0.000
  2  0.000  0.000  0.000  0.000
  3  0.000  0.000  0.000  0.000
  4  0.000  0.000  0.000  0.000
  5  0.000  0.000  0.000  0.000
  6  0.000  0.000  0.000  0.000
  7  0.000  0.000  0.000  0.000
  8  0.000  0.000  0.000  0.000
  9  0.000  0.000  0.979  0.979
 10  0.000  0.000  0.000  0.000
 11  0.000  0.000  0.000  0.000
 12  0.000  0.000  0.000  0.000
tot  0.000  0.000  0.979  0.979
 
band   5 # energy  -17.08036188 # occ.  2.00000000
 
ion      s      p      d    tot
  1  0.000  0.000  0.000  0.000
  2  0.000  0.000  0.000  0.000
  3  0.000  0.000  0.000  0.000
  4  0.000  0.000  0.000  0.000
  5  0.000  0.000  0.000  0.000
  6  0.000  0.000  0.000  0.000
  7  0.000  0.000  0.000  0.000
  8  0.000  0.000  0.000  0.000
  9  0.000  0.000  0.979  0.979
 10  0.000  0.000  0.000  0.000
 11  0.000  0.000  0.000  0.000
 12  0.000  0.000  0.000  0.000
tot  0.000  0.000  0.979  0.979
 
band   6 # energy  -17.07599093 # occ.  2.00000000
 
ion      s      p      d    tot
  1  0.000  0.000  0.000  0.000
  2  0.000  0.000  0.000  0.000
  3  0.000  0.000  0.000  0.000
  4  0.000  0.000  0.000  0.000
  5  0.000  0.000  0.000  0.000
  6  0.000  0.000  0.000  0.000
  7  0.000  0.000  0.000  0.000
  8  0.000  0.000  0.000  0.000
  9  0.000  0.000  0.979  0.979
 10  0.000  0.000  0.000  0.000
 11  0.000  0.000  0.000  0.000
 12  0.000  0.000  0.000  0.000
tot  0.000  0.000  0.979  0.979
 
band   7 # energy  -13.31491837 # occ.  2.00000000
 
ion      s      p      d    tot
  1  0.339  0.000  0.000  0.339
  2  0.032  0.123  0.000  0.155
  3  0.055  0.006  0.000  0.061
  4  0.055  0.006  0.000  0.061
  5  0.055  0.006  0.000  0.061
  6  0.021  0.003  0.000  0.024
  7  0.021  0.003  0.000  0.024
  8  0.021  0.003  0.000  0.025
  9  0.001  0.000  0.000  0.001
 10  0.006  0.000  0.000  0.006
 11  0.005  0.000  0.000  0.005
 12  0.000  0.000  0.000  0.000
tot  0.612  0.149  0.000  0.762
 
band   8 # energy  -12.31842604 # occ.  2.00000000
 
ion      s      p      d    tot
  1  0.005  0.001  0.000  0.006
  2  0.004  0.001  0.000  0.005
  3  0.001  0.000  0.000  0.001
  4  0.001  0.000  0.000  0.001
  5  0.001  0.000  0.000  0.001
  6  0.000  0.000  0.000  0.001
  7  0.000  0.000  0.000  0.001
  8  0.000  0.000  0.000  0.000
  9  0.056  0.000  0.001  0.057
 10  0.282  0.000  0.000  0.282
 11  0.242  0.000  0.000  0.242
 12  0.106  0.000  0.000  0.107
tot  0.700  0.003  0.001  0.705
 
band   9 # energy  -11.57631537 # occ.  2.00000000
 
ion      s      p      d    tot
  1  0.000  0.000  0.000  0.000
  2  0.000  0.002  0.000  0.002
  3  0.000  0.000  0.000  0.000
  4  0.000  0.000  0.000  0.000
  5  0.000  0.000  0.000  0.000
  6  0.001  0.000  0.000  0.001
  7  0.001  0.000  0.000  0.001
  8  0.002  0.000  0.000  0.002
  9  0.000  0.000  0.014  0.015
 10  0.369  0.000  0.000  0.369
 11  0.375  0.000  0.000  0.375
 12  0.002  0.000  0.000  0.002
tot  0.750  0.002  0.015  0.766
 
band  10 # energy  -11.32389159 # occ.  2.00000000
 
ion      s      p      d    tot
  1  0.002  0.000  0.000  0.002
  2  0.001  0.000  0.000  0.001
  3  0.000  0.000  0.000  0.000
  4  0.000  0.000  0.000  0.000
  5  0.000  0.000  0.000  0.000
  6  0.000  0.000  0.000  0.000
  7  0.000  0.000  0.000  0.000
  8  0.000  0.000  0.000  0.000
  9  0.002  0.002  0.011  0.015
 10  0.052  0.000  0.000  0.052
 11  0.085  0.000  0.000  0.085
 12  0.606  0.000  0.000  0.606
tot  0.748  0.003  0.011  0.762
 
band  11 # energy   -9.26100497 # occ.  2.00000000
 
ion      s      p      d    tot
  1  0.000  0.042  0.000  0.042
  2  0.000  0.403  0.000  0.403
  3  0.000  0.000  0.000  0.000
  4  0.013  0.001  0.000  0.014
  5  0.013  0.001  0.000  0.014
  6  0.131  0.012  0.000  0.143
  7  0.130  0.012  0.000  0.142
  8  0.000  0.003  0.000  0.003
  9  0.000  0.000  0.000  0.000
 10  0.000  0.003  0.000  0.003
 11  0.000  0.000  0.000  0.000
 12  0.000  0.000  0.000  0.000
tot  0.287  0.477  0.000  0.764
 
band  12 # energy   -9.08668470 # occ.  2.00000000
 
ion      s      p      d    tot
  1  0.000  0.045  0.000  0.045
  2  0.000  0.398  0.000  0.398
  3  0.018  0.001  0.000  0.020
  4  0.005  0.001  0.000  0.006
  5  0.005  0.001  0.000  0.006
  6  0.040  0.006  0.000  0.046
  7  0.041  0.006  0.000  0.047
  8  0.168  0.014  0.000  0.182
  9  0.000  0.000  0.000  0.000
 10  0.003  0.000  0.000  0.003
 11  0.003  0.002  0.000  0.005
 12  0.001  0.000  0.000  0.001
tot  0.284  0.475  0.000  0.759
 
band  13 # energy   -7.04748232 # occ.  2.00000000
 
ion      s      p      d    tot
  1  0.013  0.213  0.000  0.226
  2  0.009  0.314  0.000  0.323
  3  0.037  0.003  0.000  0.040
  4  0.033  0.003  0.000  0.036
  5  0.033  0.003  0.000  0.036
  6  0.015  0.003  0.000  0.018
  7  0.015  0.003  0.000  0.018
  8  0.013  0.003  0.000  0.016
  9  0.013  0.000  0.000  0.013
 10  0.001  0.000  0.000  0.001
 11  0.000  0.000  0.000  0.001
 12  0.000  0.000  0.000  0.001
tot  0.181  0.547  0.000  0.728
 
band  14 # energy   -6.23647887 # occ.  2.00000000
 
ion      s      p      d    tot
  1  0.000  0.004  0.000  0.004
  2  0.000  0.007  0.000  0.007
  3  0.001  0.000  0.000  0.001
  4  0.000  0.000  0.000  0.001
  5  0.000  0.000  0.000  0.001
  6  0.000  0.000  0.000  0.000
  7  0.000  0.000  0.000  0.000
  8  0.000  0.000  0.000  0.000
  9  0.624  0.002  0.000  0.626
 10  0.037  0.001  0.002  0.040
 11  0.040  0.001  0.002  0.042
 12  0.029  0.019  0.001  0.049
tot  0.733  0.034  0.004  0.771
 
band  15 # energy   -4.76658670 # occ.  2.00000000
 
ion      s      p      d    tot
  1  0.000  0.272  0.000  0.272
  2  0.000  0.044  0.000  0.044
  3  0.000  0.002  0.000  0.002
  4  0.151  0.007  0.000  0.159
  5  0.153  0.007  0.000  0.161
  6  0.027  0.002  0.000  0.029
  7  0.027  0.002  0.000  0.028
  8  0.000  0.000  0.000  0.000
  9  0.000  0.000  0.000  0.000
 10  0.000  0.003  0.000  0.003
 11  0.000  0.001  0.000  0.001
 12  0.000  0.001  0.000  0.001
tot  0.358  0.342  0.000  0.700
 
band  16 # energy   -4.74886863 # occ.  2.00000000
 
ion      s      p      d    tot
  1  0.000  0.268  0.000  0.268
  2  0.000  0.049  0.000  0.049
  3  0.200  0.009  0.000  0.209
  4  0.052  0.004  0.000  0.056
  5  0.050  0.004  0.000  0.054
  6  0.009  0.001  0.000  0.010
  7  0.010  0.001  0.000  0.011
  8  0.038  0.002  0.000  0.039
  9  0.000  0.000  0.000  0.001
 10  0.000  0.001  0.000  0.001
 11  0.000  0.003  0.000  0.003
 12  0.000  0.001  0.000  0.001
tot  0.360  0.343  0.000  0.703
 
band  17 # energy   -2.79702920 # occ.  2.00000000
 
ion      s      p      d    tot
  1  0.000  0.002  0.000  0.002
  2  0.000  0.004  0.000  0.004
  3  0.001  0.000  0.000  0.001
  4  0.000  0.000  0.000  0.000
  5  0.000  0.000  0.000  0.000
  6  0.000  0.000  0.000  0.000
  7  0.000  0.000  0.000  0.000
  8  0.001  0.000  0.000  0.001
  9  0.001  0.095  0.000  0.096
 10  0.000  0.304  0.000  0.304
 11  0.000  0.038  0.000  0.038
 12  0.000  0.026  0.000  0.026
tot  0.003  0.469  0.001  0.473
 
band  18 # energy   -2.78788125 # occ.  2.00000000
 
ion      s      p      d    tot
  1  0.000  0.002  0.000  0.002
  2  0.000  0.006  0.000  0.006
  3  0.000  0.000  0.000  0.000
  4  0.001  0.000  0.000  0.001
  5  0.001  0.000  0.000  0.001
  6  0.001  0.000  0.000  0.001
  7  0.001  0.000  0.000  0.001
  8  0.000  0.000  0.000  0.000
  9  0.000  0.096  0.000  0.096
 10  0.000  0.042  0.000  0.042
 11  0.000  0.302  0.000  0.302
 12  0.000  0.022  0.000  0.022
tot  0.003  0.471  0.001  0.474
 
band  19 # energy   -2.19216156 # occ.  2.00000000
 
ion      s      p      d    tot
  1  0.001  0.000  0.000  0.001
  2  0.001  0.001  0.000  0.002
  3  0.000  0.000  0.000  0.000
  4  0.000  0.000  0.000  0.000
  5  0.000  0.000  0.000  0.000
  6  0.000  0.000  0.000  0.000
  7  0.000  0.000  0.000  0.000
  8  0.000  0.000  0.000  0.000
  9  0.030  0.081  0.002  0.113
 10  0.001  0.069  0.000  0.070
 11  0.001  0.062  0.000  0.063
 12  0.008  0.227  0.001  0.236
tot  0.042  0.441  0.003  0.487
 
band  20 # energy   -0.61687761 # occ.  2.00000000
 
ion      s      p      d    tot
  1  0.000  0.002  0.000  0.002
  2  0.000  0.009  0.000  0.009
  3  0.001  0.000  0.000  0.001
  4  0.000  0.000  0.000  0.000
  5  0.000  0.000  0.000  0.000
  6  0.000  0.001  0.000  0.001
  7  0.000  0.001  0.000  0.001
  8  0.000  0.002  0.000  0.002
  9  0.000  0.000  0.000  0.001
 10  0.000  0.241  0.000  0.241
 11  0.000  0.255  0.000  0.255
 12  0.000  0.022  0.000  0.022
tot  0.002  0.531  0.001  0.534
 
band  21 # energy   -0.60391369 # occ.  2.00000000
 
ion      s      p      d    tot
  1  0.000  0.001  0.000  0.001
  2  0.000  0.019  0.000  0.019
  3  0.000  0.000  0.000  0.000
  4  0.001  0.000  0.000  0.001
  5  0.001  0.000  0.000  0.001
  6  0.000  0.002  0.000  0.002
  7  0.000  0.002  0.000  0.002
  8  0.000  0.000  0.000  0.000
  9  0.000  0.005  0.000  0.005
 10  0.000  0.452  0.000  0.452
 11  0.000  0.048  0.000  0.049
 12  0.000  0.022  0.000  0.022
tot  0.003  0.553  0.000  0.556
 
band  22 # energy   -0.51834969 # occ.  2.00000000
 
ion      s      p      d    tot
  1  0.000  0.001  0.000  0.001
  2  0.001  0.008  0.000  0.009
  3  0.001  0.000  0.000  0.001
  4  0.000  0.000  0.000  0.000
  5  0.000  0.000  0.000  0.000
  6  0.000  0.000  0.000  0.000
  7  0.000  0.000  0.000  0.000
  8  0.000  0.002  0.000  0.002
  9  0.001  0.005  0.000  0.006
 10  0.000  0.100  0.000  0.100
 11  0.000  0.397  0.000  0.397
 12  0.000  0.032  0.000  0.033
tot  0.003  0.545  0.001  0.549
 
band  23 # energy   -0.33400309 # occ.  2.00000000
 
ion      s      p      d    tot
  1  0.001  0.001  0.000  0.001
  2  0.002  0.002  0.000  0.004
  3  0.000  0.000  0.000  0.000
  4  0.000  0.000  0.000  0.000
  5  0.000  0.000  0.000  0.000
  6  0.000  0.001  0.000  0.001
  7  0.000  0.000  0.000  0.001
  8  0.000  0.000  0.000  0.001
  9  0.011  0.017  0.001  0.030
 10  0.000  0.128  0.000  0.128
 11  0.000  0.249  0.000  0.250
 12  0.001  0.145  0.000  0.147
tot  0.016  0.545  0.002  0.562
 
band  24 # energy   -0.17645887 # occ.  2.00000000
 
ion      s      p      d    tot
  1  0.000  0.004  0.000  0.004
  2  0.000  0.000  0.000  0.000
  3  0.000  0.000  0.000  0.000
  4  0.001  0.000  0.000  0.001
  5  0.001  0.000  0.000  0.001
  6  0.000  0.000  0.000  0.000
  7  0.000  0.000  0.000  0.000
  8  0.000  0.000  0.000  0.000
  9  0.000  0.004  0.001  0.005
 10  0.000  0.008  0.000  0.008
 11  0.000  0.055  0.000  0.055
 12  0.000  0.467  0.000  0.467
tot  0.002  0.539  0.001  0.542
 
band  25 # energy   -0.15205538 # occ.  2.00000000
 
ion      s      p      d    tot
  1  0.000  0.003  0.000  0.003
  2  0.000  0.001  0.000  0.001
  3  0.001  0.000  0.000  0.001
  4  0.000  0.000  0.000  0.000
  5  0.000  0.000  0.000  0.000
  6  0.000  0.000  0.000  0.000
  7  0.000  0.000  0.000  0.000
  8  0.000  0.000  0.000  0.000
  9  0.001  0.004  0.001  0.006
 10  0.000  0.070  0.000  0.070
 11  0.000  0.010  0.000  0.010
 12  0.000  0.453  0.000  0.453
tot  0.002  0.540  0.002  0.544
 
band  26 # energy    5.66471662 # occ.  0.00000000
 
ion      s      p      d    tot
  1  0.022  0.014  0.000  0.037
  2  0.035  0.009  0.000  0.044
  3  0.000  0.004  0.000  0.004
  4  0.000  0.003  0.000  0.003
  5  0.000  0.003  0.000  0.003
  6  0.003  0.005  0.000  0.007
  7  0.003  0.005  0.000  0.007
  8  0.002  0.004  0.000  0.007
  9  0.001  0.011  0.000  0.012
 10  0.020  0.006  0.004  0.030
 11  0.020  0.006  0.004  0.030
 12  0.022  0.008  0.003  0.033
tot  0.129  0.076  0.012  0.217
 
band  27 # energy    6.44578070 # occ.  0.00000000
 
ion      s      p      d    tot
  1  0.000  0.005  0.000  0.005
  2  0.000  0.011  0.000  0.011
  3  0.000  0.001  0.000  0.001
  4  0.000  0.001  0.000  0.001
  5  0.000  0.001  0.000  0.001
  6  0.003  0.002  0.000  0.005
  7  0.003  0.002  0.000  0.005
  8  0.000  0.002  0.000  0.002
  9  0.000  0.073  0.021  0.094
 10  0.000  0.000  0.027  0.027
 11  0.000  0.040  0.031  0.071
 12  0.000  0.002  0.011  0.013
tot  0.006  0.139  0.089  0.235
 
band  28 # energy    6.56806158 # occ.  0.00000000
 