 vasp.5.4.1 24Jun15 (build Nov 25 2015 16:01:35) complex                        
  
 executed on         CrayXC-Intel date 2016.07.12  03:58:47
 running on   96 total cores
 distrk:  each k-point on   24 cores,    4 groups
 distr:  one band on NCORES_PER_BAND=   3 cores,    8 groups


--------------------------------------------------------------------------------------------------------


 INCAR:
 POTCAR:    PAW_PBE C 08Apr2002                   
 POTCAR:    PAW_PBE N 08Apr2002                   
 POTCAR:    PAW_PBE H 15Jun2001                   
 POTCAR:    PAW_PBE Pb_d 06Sep2000                
 POTCAR:    PAW_PBE I 08Apr2002                   

 ----------------------------------------------------------------------------- 
|                                                                             |
|           W    W    AA    RRRRR   N    N  II  N    N   GGGG   !!!           |
|           W    W   A  A   R    R  NN   N  II  NN   N  G    G  !!!           |
|           W    W  A    A  R    R  N N  N  II  N N  N  G       !!!           |
|           W WW W  AAAAAA  RRRRR   N  N N  II  N  N N  G  GGG   !            |
|           WW  WW  A    A  R   R   N   NN  II  N   NN  G    G                |
|           W    W  A    A  R    R  N    N  II  N    N   GGGG   !!!           |
|                                                                             |
|      For optimal performance we recommend to set                            |
|        NCORE= 4 - approx SQRT( number of cores)                             |
|      NCORE specifies how many cores store one orbital (NPAR=cpu/NCORE).     |
|      This setting can  greatly improve the performance of VASP for DFT.     |
|      The default, NPAR=number of cores might be grossly inefficient         |
|      on modern multi-core architectures or massively parallel machines.     |
|      Do your own testing !!!!                                               |
|      Unfortunately you need to use the default for GW and RPA calculations. |
|      (for HF NCORE is supported but not extensively tested yet)             |
|                                                                             |
 ----------------------------------------------------------------------------- 


 ----------------------------------------------------------------------------- 
|                                                                             |
|           W    W    AA    RRRRR   N    N  II  N    N   GGGG   !!!           |
|           W    W   A  A   R    R  NN   N  II  NN   N  G    G  !!!           |
|           W    W  A    A  R    R  N N  N  II  N N  N  G       !!!           |
|           W WW W  AAAAAA  RRRRR   N  N N  II  N  N N  G  GGG   !            |
|           WW  WW  A    A  R   R   N   NN  II  N   NN  G    G                |
|           W    W  A    A  R    R  N    N  II  N    N   GGGG   !!!           |
|                                                                             |
|      You have enabled k-point parallelism (KPAR>1).                         |
|      This developmental code was originally  written by Paul Kent at ORNL,  |
|      and carefully double checked in Vienna.                                |
|      GW as well as linear response parallelism added by Martijn Marsman     |
|      and Georg Kresse.                                                      |
|      Carefully verify results versus KPAR=1.                                |
|      Report problems to Paul Kent and Vienna.                               |
|                                                                             |
 ----------------------------------------------------------------------------- 

 POTCAR:    PAW_PBE C 08Apr2002                   
   VRHFIN =C: s2p2                                                              
   LEXCH  = PE                                                                  
   EATOM  =   147.1560 eV,   10.8157 Ry                                         
                                                                                
   TITEL  = PAW_PBE C 08Apr2002                                                 
   LULTRA =        F    use ultrasoft PP ?                                      
   IUNSCR =        1    unscreen: 0-lin 1-nonlin 2-no                           
   RPACOR =    1.200    partial core radius                                     
   POMASS =   12.011; ZVAL   =    4.000    mass and valenz                      
   RCORE  =    1.500    outmost cutoff radius                                   
   RWIGS  =    1.630; RWIGS  =    0.863    wigner-seitz radius (au A)           
   ENMAX  =  400.000; ENMIN  =  300.000 eV                                      
   ICORE  =        2    local potential                                         
   LCOR   =        T    correct aug charges                                     
   LPAW   =        T    paw PP                                                  
   EAUG   =  644.873                                                            
   DEXC   =    0.000                                                            
   RMAX   =    1.529    core radius for proj-oper                               
   RAUG   =    1.300    factor for augmentation sphere                          
   RDEP   =    1.501    radius for radial grids                                 
   RDEPT  =    1.300    core radius for aug-charge                              
                                                                                
   Atomic configuration                                                         
    4 entries                                                                   
     n  l   j            E        occ.                                          
     1  0  0.50      -273.3789   2.0000                                         
     2  0  0.50       -13.7508   2.0000                                         
     2  1  0.50        -5.2854   2.0000                                         
     3  2  1.50        -5.4423   0.0000                                         
   Description                                                                  
     l       E           TYP  RCUT    TYP  RCUT                                 
     0    -13.7508458     23  1.200                                             
     0     -8.2022199     23  1.200                                             
     1     -5.2854383     23  1.500                                             
     1     34.0145650     23  1.500                                             
     2     -5.4423304      7  1.500                                             
  local pseudopotential read in
  partial core-charges read in
  partial kinetic energy density read in
  atomic valenz-charges read in
  non local Contribution for L=           0  read in
    real space projection operators read in
  non local Contribution for L=           0  read in
    real space projection operators read in
  non local Contribution for L=           1  read in
    real space projection operators read in
  non local Contribution for L=           1  read in
    real space projection operators read in
    PAW grid and wavefunctions read in
 
   number of l-projection  operators is LMAX  =           4
   number of lm-projection operators is LMMAX =           8
 
 POTCAR:    PAW_PBE N 08Apr2002                   
   VRHFIN =N: s2p3                                                              
   LEXCH  = PE                                                                  
   EATOM  =   264.5486 eV,   19.4438 Ry                                         
                                                                                
   TITEL  = PAW_PBE N 08Apr2002                                                 
   LULTRA =        F    use ultrasoft PP ?                                      
   IUNSCR =        1    unscreen: 0-lin 1-nonlin 2-no                           
   RPACOR =    1.200    partial core radius                                     
   POMASS =   14.001; ZVAL   =    5.000    mass and valenz                      
   RCORE  =    1.500    outmost cutoff radius                                   
   RWIGS  =    1.400; RWIGS  =    0.741    wigner-seitz radius (au A)           
   ENMAX  =  400.000; ENMIN  =  300.000 eV                                      
   ICORE  =        2    local potential                                         
   LCOR   =        T    correct aug charges                                     
   LPAW   =        T    paw PP                                                  
   EAUG   =  627.112                                                            
   DEXC   =    0.000                                                            
   RMAX   =    1.529    core radius for proj-oper                               
   RAUG   =    1.300    factor for augmentation sphere                          
   RDEP   =    1.514    radius for radial grids                                 
   RDEPT  =    1.338    core radius for aug-charge                              
                                                                                
   Atomic configuration                                                         
    4 entries                                                                   
     n  l   j            E        occ.                                          
     1  0  0.50      -384.7179   2.0000                                         
     2  0  0.50       -18.5828   2.0000                                         
     2  1  0.50        -7.0898   3.0000                                         
     3  2  1.50        -6.8029   0.0000                                         
   Description                                                                  
     l       E           TYP  RCUT    TYP  RCUT                                 
     0    -18.5828119     23  1.200                                             
     0    -13.5018863     23  1.200                                             
     1     -7.0897853     23  1.500                                             
     1      9.5240782     23  1.500                                             
     2     -6.8029130      7  1.500                                             
  local pseudopotential read in
  partial core-charges read in
  partial kinetic energy density read in
  atomic valenz-charges read in
  non local Contribution for L=           0  read in
    real space projection operators read in
  non local Contribution for L=           0  read in
    real space projection operators read in
  non local Contribution for L=           1  read in
    real space projection operators read in
  non local Contribution for L=           1  read in
    real space projection operators read in
    PAW grid and wavefunctions read in
 
   number of l-projection  operators is LMAX  =           4
   number of lm-projection operators is LMMAX =           8
 
 POTCAR:    PAW_PBE H 15Jun2001                   
   VRHFIN =H: ultrasoft test                                                    
   LEXCH  = PE                                                                  
   EATOM  =    12.4884 eV,    0.9179 Ry                                         
                                                                                
   TITEL  = PAW_PBE H 15Jun2001                                                 
   LULTRA =        F    use ultrasoft PP ?                                      
   IUNSCR =        0    unscreen: 0-lin 1-nonlin 2-no                           
   RPACOR =    0.000    partial core radius                                     
   POMASS =    1.000; ZVAL   =    1.000    mass and valenz                      
   RCORE  =    1.100    outmost cutoff radius                                   
   RWIGS  =    0.700; RWIGS  =    0.370    wigner-seitz radius (au A)           
   ENMAX  =  250.000; ENMIN  =  200.000 eV                                      
   RCLOC  =    0.701    cutoff for local pot                                    
   LCOR   =        T    correct aug charges                                     
   LPAW   =        T    paw PP                                                  
   EAUG   =  400.000                                                            
   RMAX   =    1.123    core radius for proj-oper                               
   RAUG   =    1.200    factor for augmentation sphere                          
   RDEP   =    1.112    radius for radial grids                                 
   RDEPT  =    0.926    core radius for aug-charge                              
                                                                                
   Atomic configuration                                                         
    2 entries                                                                   
     n  l   j            E        occ.                                          
     1  0  0.50        -6.4927   1.0000                                         
     2  1  0.50        -3.4015   0.0000                                         
   Description                                                                  
     l       E           TYP  RCUT    TYP  RCUT                                 
     0     -6.4927494     23  1.100                                             
     0      6.8029130     23  1.100                                             
     1     -4.0817478     23  1.100                                             
  local pseudopotential read in
  atomic valenz-charges read in
  non local Contribution for L=           0  read in
    real space projection operators read in
  non local Contribution for L=           0  read in
    real space projection operators read in
  non local Contribution for L=           1  read in
    real space projection operators read in
    PAW grid and wavefunctions read in
 
   number of l-projection  operators is LMAX  =           3
   number of lm-projection operators is LMMAX =           5
 
 POTCAR:    PAW_PBE Pb_d 06Sep2000                
   VRHFIN =Pb:                                                                  
   LEXCH  = PE                                                                  
   EATOM  =  1661.6185 eV,  122.1255 Ry                                         
                                                                                
   TITEL  = PAW_PBE Pb_d 06Sep2000                                              
   LULTRA =        F    use ultrasoft PP ?                                      
   IUNSCR =        1    unscreen: 0-lin 1-nonlin 2-no                           
   RPACOR =    2.200    partial core radius                                     
   POMASS =  207.200; ZVAL   =   14.000    mass and valenz                      
   RCORE  =    2.500    outmost cutoff radius                                   
   RWIGS  =    3.260; RWIGS  =    1.725    wigner-seitz radius (au A)           
   ENMAX  =  237.835; ENMIN  =  178.376 eV                                      
   ICORE  =        3    local potential                                         
   LCOR   =        T    correct aug charges                                     
   LPAW   =        T    paw PP                                                  
   EAUG   =  391.914                                                            
   DEXC   =    0.000                                                            
   RMAX   =    2.565    core radius for proj-oper                               
   RAUG   =    1.300    factor for augmentation sphere                          
   RDEP   =    2.643    radius for radial grids                                 
   RDEPT  =    2.092    core radius for aug-charge                              
                                                                                
   Atomic configuration                                                         
   16 entries                                                                   
     n  l   j            E        occ.                                          
     1  0  0.50    -88091.8466   2.0000                                         
     2  0  0.50    -15753.4197   2.0000                                         
     2  1  1.50    -13508.1797   6.0000                                         
     3  0  0.50     -3781.7194   2.0000                                         
     3  1  1.50     -3138.2529   6.0000                                         
     3  2  2.50     -2483.2977  10.0000                                         
     4  0  0.50      -856.2895   2.0000                                         
     4  1  1.50      -645.4942   6.0000                                         
     4  2  2.50      -401.8768  10.0000                                         
     4  3  3.50      -132.9059  14.0000                                         
     5  0  0.50      -144.0950   2.0000                                         
     5  1  1.50       -85.7879   6.0000                                         
     5  2  2.50       -21.1769  10.0000                                         
     6  0  0.50       -12.0372   2.0000                                         
     6  1  1.50        -3.4971   2.0000                                         
     5  3  2.50        -2.7212   0.0000                                         
   Description                                                                  
     l       E           TYP  RCUT    TYP  RCUT                                 
     2    -21.1768523     23  2.500                                             
     2      1.3605826     23  2.500                                             
     0    -12.0371562     23  2.500                                             
     0     13.6058260     23  2.500                                             
     1     -3.4971339     23  2.500                                             
     1     13.6058260     23  2.500                                             
     3     -1.3605826      7  2.500                                             
  local pseudopotential read in
  partial core-charges read in
  partial kinetic energy density read in
  atomic valenz-charges read in
  non local Contribution for L=           2  read in
    real space projection operators read in
  non local Contribution for L=           2  read in
    real space projection operators read in
  non local Contribution for L=           0  read in
    real space projection operators read in
  non local Contribution for L=           0  read in
    real space projection operators read in
  non local Contribution for L=           1  read in
    real space projection operators read in
  non local Contribution for L=           1  read in
    real space projection operators read in
    PAW grid and wavefunctions read in
 
   number of l-projection  operators is LMAX  =           6
   number of lm-projection operators is LMMAX =          18
 
 POTCAR:    PAW_PBE I 08Apr2002                   
   VRHFIN =I : s2p5                                                             
   LEXCH  = PE                                                                  
   EATOM  =   315.8678 eV,   23.2156 Ry                                         
                                                                                
   TITEL  = PAW_PBE I 08Apr2002                                                 
   LULTRA =        F    use ultrasoft PP ?                                      
   IUNSCR =        1    unscreen: 0-lin 1-nonlin 2-no                           
   RPACOR =    2.200    partial core radius                                     
   POMASS =  126.904; ZVAL   =    7.000    mass and valenz                      
   RCORE  =    2.300    outmost cutoff radius                                   
   RWIGS  =    2.810; RWIGS  =    1.487    wigner-seitz radius (au A)           
   ENMAX  =  175.647; ENMIN  =  131.735 eV                                      
   ICORE  =        3    local potential                                         
   LCOR   =        T    correct aug charges                                     
   LPAW   =        T    paw PP                                                  
   EAUG   =  370.139                                                            
   DEXC   =    0.000                                                            
   RMAX   =    2.359    core radius for proj-oper                               
   RAUG   =    1.300    factor for augmentation sphere                          
   RDEP   =    2.392    radius for radial grids                                 
   RDEPT  =    2.170    core radius for aug-charge                              
                                                                                
   Atomic configuration                                                         
   13 entries                                                                   
     n  l   j            E        occ.                                          
     1  0  0.50    -32976.3739   2.0000                                         
     2  0  0.50     -5094.5933   2.0000                                         
     2  1  1.50     -4572.0131   6.0000                                         
     3  0  0.50     -1028.2813   2.0000                                         
     3  1  1.50      -859.0250   6.0000                                         
     3  2  2.50      -605.7620  10.0000                                         
     4  0  0.50      -180.5540   2.0000                                         
     4  1  1.50      -127.5306   6.0000                                         
     4  2  2.50       -50.2720  10.0000                                         
     5  0  0.50       -17.4058   2.0000                                         
     5  1  0.50        -7.0851   5.0000                                         
     5  2  1.50        -7.0750   0.0000                                         
     4  3  2.50        -7.0750   0.0000                                         
   Description                                                                  
     l       E           TYP  RCUT    TYP  RCUT                                 
     0    -17.4058016     23  2.300                                             
     0    -18.7663842     23  2.300                                             
     1     -7.0850686     23  2.300                                             
     1     -4.2150896     23  2.300                                             
     2     -7.0750295     23  2.300                                             
     3     -1.3605826     23  2.300                                             
  local pseudopotential read in
  partial core-charges read in
  partial kinetic energy density read in
  atomic valenz-charges read in
  non local Contribution for L=           0  read in
    real space projection operators read in
  non local Contribution for L=           0  read in
    real space projection operators read in
  non local Contribution for L=           1  read in
    real space projection operators read in
  non local Contribution for L=           1  read in
    real space projection operators read in
  non local Contribution for L=           2  read in
    real space projection operators read in
    PAW grid and wavefunctions read in
 
   number of l-projection  operators is LMAX  =           5
   number of lm-projection operators is LMMAX =          13
 

 ----------------------------------------------------------------------------- 
|                                                                             |
|  ADVICE TO THIS USER RUNNING 'VASP/VAMP'   (HEAR YOUR MASTER'S VOICE ...):  |
|                                                                             |
|      You have a (more or less) 'large supercell' and for larger cells       |
|      it might be more efficient to use real space projection opertators     |
|      So try LREAL= Auto  in the INCAR   file.                               |
|      Mind: At the moment your POTCAR file does not contain real space       |
|       projectors, and has to be modified,  BUT if you                       |
|      want to do an extremely  accurate calculation you might also keep the  |
|      reciprocal projection scheme          (i.e. LREAL=.FALSE.)             |
|                                                                             |
 ----------------------------------------------------------------------------- 


 ----------------------------------------------------------------------------- 
|                                                                             |
|  ADVICE TO THIS USER RUNNING 'VASP/VAMP'   (HEAR YOUR MASTER'S VOICE ...):  |
|                                                                             |
|      You enforced a specific xc-type in the INCAR file,                     |
|      a different type was found on the POTCAR file                          |
|          I HOPE YOU KNOW, WHAT YOU ARE  DOING                               |
|                                                                             |
 ----------------------------------------------------------------------------- 

  PAW_PBE C 08Apr2002                   :
 energy of atom  1       EATOM= -147.1560
 kinetic energy error for atom=    0.0032 (will be added to EATOM!!)
  PAW_PBE N 08Apr2002                   :
 energy of atom  2       EATOM= -264.5486
 kinetic energy error for atom=    0.0061 (will be added to EATOM!!)
  PAW_PBE H 15Jun2001                   :
 energy of atom  3       EATOM=  -12.4884
 kinetic energy error for atom=    0.0002 (will be added to EATOM!!)
  PAW_PBE Pb_d 06Sep2000                :
 energy of atom  4       EATOM=-1661.6185
 kinetic energy error for atom=    0.0012 (will be added to EATOM!!)
  PAW_PBE I 08Apr2002                   :
 energy of atom  5       EATOM= -315.8678
 kinetic energy error for atom=    0.0003 (will be added to EATOM!!)
 
 
 POSCAR: C N H Pb I                              
  positions in direct lattice
  No initial velocities read in
 exchange correlation table for  LEXCH =       14
   RHO(1)=    0.500       N(1)  =     2000
   RHO(2)=  100.500       N(2)  =     4000
 


--------------------------------------------------------------------------------------------------------


 ion  position               nearest neighbor table
   1  0.197  0.250  0.229-  17 1.10  25 1.10  33 1.10   9 1.48
   2  0.697  0.250  0.229-  18 1.10  26 1.10  34 1.10  10 1.48
   3  0.197  0.750  0.229-  19 1.10  27 1.10  35 1.10  11 1.48
   4  0.697  0.750  0.229-  20 1.10  28 1.10  36 1.10  12 1.48
   5  0.197  0.250  0.729-  21 1.10  29 1.10  37 1.10  13 1.48
   6  0.697  0.250  0.729-  22 1.10  30 1.10  38 1.10  14 1.48
   7  0.197  0.750  0.729-  23 1.10  31 1.10  39 1.10  15 1.48
   8  0.697  0.750  0.729-  24 1.10  32 1.10  40 1.10  16 1.48
   9  0.305  0.250  0.274-  57 1.04  41 1.05  49 1.05   1 1.48
  10  0.805  0.250  0.274-  58 1.04  42 1.05  50 1.05   2 1.48
  11  0.305  0.750  0.274-  59 1.04  43 1.05  51 1.05   3 1.48
  12  0.805  0.750  0.274-  60 1.04  44 1.05  52 1.05   4 1.48
  13  0.305  0.250  0.774-  61 1.04  45 1.05  53 1.05   5 1.48
  14  0.805  0.250  0.774-  62 1.04  46 1.05  54 1.05   6 1.48
  15  0.305  0.750  0.774-  63 1.04  47 1.05  55 1.05   7 1.48
  16  0.805  0.750  0.774-  64 1.04  48 1.05  56 1.05   8 1.48
  17  0.205  0.250  0.143-   1 1.10
  18  0.705  0.250  0.143-   2 1.10
  19  0.205  0.750  0.143-   3 1.10
  20  0.705  0.750  0.143-   4 1.10
  21  0.205  0.250  0.643-   5 1.10
  22  0.705  0.250  0.643-   6 1.10
  23  0.205  0.750  0.643-   7 1.10
  24  0.705  0.750  0.643-   8 1.10
  25  0.154  0.322  0.256-   1 1.10
  26  0.654  0.322  0.256-   2 1.10
  27  0.154  0.822  0.256-   3 1.10
  28  0.654  0.822  0.256-   4 1.10
  29  0.154  0.322  0.756-   5 1.10
  30  0.654  0.322  0.756-   6 1.10
  31  0.154  0.822  0.756-   7 1.10
  32  0.654  0.822  0.756-   8 1.10
  33  0.154  0.177  0.256-   1 1.10
  34  0.654  0.177  0.256-   2 1.10
  35  0.154  0.677  0.256-   3 1.10
  36  0.654  0.677  0.256-   4 1.10
  37  0.154  0.177  0.756-   5 1.10
  38  0.654  0.177  0.756-   6 1.10
  39  0.154  0.677  0.756-   7 1.10
  40  0.654  0.677  0.756-   8 1.10
  41  0.348  0.318  0.251-   9 1.05
  42  0.848  0.318  0.251-  10 1.05
  43  0.348  0.818  0.251-  11 1.05
  44  0.848  0.818  0.251-  12 1.05
  45  0.348  0.318  0.751-  13 1.05
  46  0.848  0.318  0.751-  14 1.05
  47  0.348  0.818  0.751-  15 1.05
  48  0.848  0.818  0.751-  16 1.05
  49  0.348  0.182  0.251-   9 1.05
  50  0.848  0.182  0.251-  10 1.05
  51  0.348  0.682  0.251-  11 1.05
  52  0.848  0.682  0.251-  12 1.05
  53  0.348  0.182  0.751-  13 1.05
  54  0.848  0.182  0.751-  14 1.05
  55  0.348  0.682  0.751-  15 1.05
  56  0.848  0.682  0.751-  16 1.05
  57  0.303  0.250  0.356-   9 1.04
  58  0.803  0.250  0.356-  10 1.04
  59  0.303  0.750  0.356-  11 1.04
  60  0.803  0.750  0.356-  12 1.04
  61  0.303  0.250  0.856-  13 1.04
  62  0.803  0.250  0.856-  14 1.04
  63  0.303  0.750  0.856-  15 1.04
  64  0.803  0.750  0.856-  16 1.04
  65  0.472  0.500  0.489-  90 3.08  87 3.14  85 3.14  77 3.17  73 3.22  89 3.25
  66  0.972  0.500  0.489-  89 3.08  88 3.14  86 3.14  78 3.17  74 3.22  90 3.25
  67  0.472  1.000  0.489-  92 3.08  85 3.14  87 3.14  79 3.17  75 3.22  91 3.25
  68  0.972  1.000  0.489-  91 3.08  86 3.14  88 3.14  80 3.17  76 3.22  92 3.25
  69  0.472  0.500  0.989-  94 3.08  83 3.14  81 3.14  73 3.17  77 3.22  93 3.25
  70  0.972  0.500  0.989-  93 3.08  84 3.14  82 3.14  74 3.17  78 3.22  94 3.25
  71  0.472  1.000  0.989-  96 3.08  81 3.14  83 3.14  75 3.17  79 3.22  95 3.25
  72  0.972  1.000  0.989-  95 3.08  82 3.14  84 3.14  76 3.17  80 3.22  96 3.25
  73  0.455  0.500  0.238-  69 3.17  65 3.22
  74  0.955  0.500  0.238-  70 3.17  66 3.22
  75  0.455  1.000  0.238-  71 3.17  67 3.22
  76  0.955  1.000  0.238-  72 3.17  68 3.22
  77  0.455  0.500  0.738-  65 3.17  69 3.22
  78  0.955  0.500  0.738-  66 3.17  70 3.22
  79  0.455  1.000  0.738-  67 3.17  71 3.22
  80  0.955  1.000  0.738-  68 3.17  72 3.22
  81  0.450  0.250  0.012-  71 3.14  69 3.14
  82  0.950  0.250  0.012-  72 3.14  70 3.14
  83  0.450  0.750  0.012-  69 3.14  71 3.14
  84  0.950  0.750  0.012-  70 3.14  72 3.14
  85  0.450  0.250  0.512-  67 3.14  65 3.14
  86  0.950  0.250  0.512-  68 3.14  66 3.14
  87  0.450  0.750  0.512-  65 3.14  67 3.14
  88  0.950  0.750  0.512-  66 3.14  68 3.14
  89  0.216  0.500  0.461-  66 3.08  65 3.25
  90  0.716  0.500  0.461-  65 3.08  66 3.25
  91  0.216  1.000  0.461-  68 3.08  67 3.25
  92  0.716  1.000  0.461-  67 3.08  68 3.25
  93  0.216  0.500  0.961-  70 3.08  69 3.25
  94  0.716  0.500  0.961-  69 3.08  70 3.25
  95  0.216  1.000  0.961-  72 3.08  71 3.25
  96  0.716  1.000  0.961-  71 3.08  72 3.25
 
  LATTYP: Found a triclinic cell.
 ALAT       =    17.8238589327
 B/A-ratio  =     0.6989248630
 C/A-ratio  =     1.0156975818
 COS(alpha) =     0.0001355172
 COS(beta)  =     0.5146378593
 COS(gamma) =     0.6988877578
  
  Lattice vectors:
  
 A1 = (  -0.1406063366, -12.4576271275, -12.7466742118)
 A2 = (  -0.0011956322, -12.4575380825,   0.0007464135)
 A3 = ( -12.7162481321,  -0.0020049566, -12.8856194186)


Analysis of symmetry for initial positions (statically):
=====================================================================
 Subroutine PRICEL returns following result:
 
  LATTYP: Found a triclinic cell.
 ALAT       =     6.2887984198
 B/A-ratio  =     2.2187879235
 C/A-ratio  =     1.0135626932
 COS(alpha) =     0.0099265352
 COS(beta)  =     0.0219221098
 COS(gamma) =     0.4504754319
  
  Lattice vectors:
  
 A1 = (  -6.2884187139,  -0.0009579558,  -0.0690993967)
 A2 = (  -6.2872230816,  12.4565801267,  -0.0698458102)
 A3 = (  -0.0697053522,  -0.0000445225,  -6.3737103126)
 
   4 primitive cells build up your supercell.
 

 Routine SETGRP: Setting up the symmetry group for a 
 triclinic supercell.


 Subroutine GETGRP returns: Found  1 space group operations
 (whereof  1 operations were pure point group operations)
 out of a pool of  2 trial point group operations.


The static configuration has the point symmetry C_1 .


Analysis of symmetry for dynamics (positions and initial velocities):
=====================================================================
 Subroutine PRICEL returns following result:
 
  LATTYP: Found a triclinic cell.
 ALAT       =     6.2887984198
 B/A-ratio  =     2.2187879235
 C/A-ratio  =     1.0135626932
 COS(alpha) =     0.0099265352
 COS(beta)  =     0.0219221098
 COS(gamma) =     0.4504754319
  
  Lattice vectors:
  
 A1 = (  -6.2884187139,  -0.0009579558,  -0.0690993967)
 A2 = (  -6.2872230816,  12.4565801267,  -0.0698458102)
 A3 = (  -0.0697053522,  -0.0000445225,  -6.3737103126)
 
   4 primitive cells build up your supercell.
 

 Routine SETGRP: Setting up the symmetry group for a 
 triclinic supercell.


 Subroutine GETGRP returns: Found  1 space group operations
 (whereof  1 operations were pure point group operations)
 out of a pool of  2 trial point group operations.


The dynamic configuration has the point symmetry C_1 .


 Subroutine INISYM returns: Found  1 space group operations
 (whereof  1 operations are pure point group operations),
 and found     4 'primitive' translations

 
 
 KPOINTS: Automatic 3x3x3                         

Automatic generation of k-mesh.
Space group operators:
 irot       det(A)        alpha          n_x          n_y          n_z        tau_x        tau_y        tau_z
    1     1.000000     0.000000     1.000000     0.000000     0.000000     0.000000     0.000000     0.000000
 
 Subroutine IBZKPT returns following result:
 ===========================================
 
 Found     14 irreducible k-points:
 
 Following reciprocal coordinates:
            Coordinates               Weight
  0.000000  0.000000  0.000000      1.000000
  0.333333 -0.000000 -0.000000      2.000000
  0.000000  0.333333 -0.000000      2.000000
  0.333333  0.333333  0.000000      2.000000
 -0.333333  0.333333  0.000000      2.000000
  0.000000  0.000000  0.333333      2.000000
  0.333333  0.000000  0.333333      2.000000
 -0.333333  0.000000  0.333333      2.000000
  0.000000  0.333333  0.333333      2.000000
  0.333333  0.333333  0.333333      2.000000
 -0.333333  0.333333  0.333333      2.000000
  0.000000 -0.333333  0.333333      2.000000
  0.333333 -0.333333  0.333333      2.000000
 -0.333333 -0.333333  0.333333      2.000000
 
 Following cartesian coordinates:
            Coordinates               Weight
  0.000000  0.000000  0.000000      1.000000
  0.026507 -0.000003 -0.000290      2.000000
 -0.000004  0.026758 -0.000000      2.000000
  0.026503  0.026755 -0.000290      2.000000
 -0.026511  0.026760  0.000290      2.000000
 -0.000287  0.000002  0.026152      2.000000
  0.026220 -0.000001  0.025862      2.000000
 -0.026794  0.000004  0.026442      2.000000
 -0.000291  0.026759  0.026152      2.000000
  0.026215  0.026757  0.025862      2.000000
 -0.026798  0.026762  0.026442      2.000000
 -0.000283 -0.026756  0.026152      2.000000
  0.026224 -0.026759  0.025862      2.000000
 -0.026790 -0.026753  0.026442      2.000000
 


--------------------------------------------------------------------------------------------------------




 Dimension of arrays:
   k-points           NKPTS =     14   k-points in BZ     NKDIM =     14   number of bands    NBANDS=    256
   number of dos      NEDOS =    301   number of ions     NIONS =     96
   non local maximal  LDIM  =      6   non local SUM 2l+1 LMDIM =     18
   total plane-waves  NPLWV = ******
   max r-space proj   IRMAX =      1   max aug-charges    IRDMAX= 314103
   dimension x,y,z NGX =   112 NGY =  108 NGZ =  112
   dimension x,y,z NGXF=   224 NGYF=  216 NGZF=  224
   support grid    NGXF=   448 NGYF=  432 NGZF=  448
   ions per type =               8   8  48   8  24
 NGX,Y,Z   is equivalent  to a cutoff of  14.80, 14.41, 14.61 a.u.
 NGXF,Y,Z  is equivalent  to a cutoff of  29.61, 28.83, 29.21 a.u.


 I would recommend the setting:
   dimension x,y,z NGX =   109 NGY =  107 NGZ =  110
 SYSTEM =  MAPbI3-Cubic                            
 POSCAR =  C N H Pb I                              

 Startparameter for this run:
   NWRITE =      2    write-flag & timer
   PREC   = accura    normal or accurate (medium, high low for compatibility)
   ISTART =      0    job   : 0-new  1-cont  2-samecut
   ICHARG =      2    charge: 1-file 2-atom 10-const
   ISPIN  =      1    spin polarized calculation?
   LNONCOLLINEAR =      F non collinear calculations
   LSORBIT =      F    spin-orbit coupling
   INIWAV =      1    electr: 0-lowe 1-rand  2-diag
   LASPH  =      F    aspherical Exc in radial PAW
   METAGGA=      F    non-selfconsistent MetaGGA calc.

 Electronic Relaxation 1
   ENCUT  =  700.0 eV  51.45 Ry    7.17 a.u.  27.13 26.87 27.50*2*pi/ulx,y,z
   ENINI  =  700.0     initial cutoff
   ENAUG  =  644.9 eV  augmentation charge cutoff
   NELM   =     60;   NELMIN=  2; NELMDL= -5     # of ELM steps 
   EDIFF  = 0.1E-09   stopping-criterion for ELM
   LREAL  =      F    real-space projection
   NLSPLINE    = F    spline interpolate recip. space projectors
   LCOMPAT=      F    compatible to vasp.4.4
   GGA_COMPAT  = T    GGA compatible to vasp.4.4-vasp.4.6
   LMAXPAW     = -100 max onsite density
   LMAXMIX     =    2 max onsite mixed and CHGCAR
   VOSKOWN=      0    Vosko Wilk Nusair interpolation
   ROPT   =    0.00000   0.00000   0.00000   0.00000
   ROPT   =    0.00000
 Ionic relaxation
   EDIFFG = 0.1E-08   stopping-criterion for IOM
   NSW    =      0    number of steps for IOM
   NBLOCK =      1;   KBLOCK =      1    inner block; outer block 
   IBRION =     -1    ionic relax: 0-MD 1-quasi-New 2-CG
   NFREE  =      0    steps in history (QN), initial steepest desc. (CG)
   ISIF   =      2    stress and relaxation
   IWAVPR =     10    prediction:  0-non 1-charg 2-wave 3-comb
   ISYM   =      2    0-nonsym 1-usesym 2-fastsym
   LCORR  =      T    Harris-Foulkes like correction to forces

   POTIM  = 0.5000    time-step for ionic-motion
   TEIN   =    0.0    initial temperature
   TEBEG  =    0.0;   TEEND  =   0.0 temperature during run
   SMASS  =  -3.00    Nose mass-parameter (am)
   estimated Nose-frequenzy (Omega)   =  0.10E-29 period in steps =****** mass=  -0.362E-26a.u.
   SCALEE = 1.0000    scale energy and forces
   NPACO  =    256;   APACO  = 16.0  distance and # of slots for P.C.
   PSTRESS=    0.0 pullay stress

  Mass of Ions in am
   POMASS =  12.01 14.00  1.00207.20126.90
  Ionic Valenz
   ZVAL   =   4.00  5.00  1.00 14.00  7.00
  Atomic Wigner-Seitz radii
   RWIGS  =  -1.00 -1.00 -1.00 -1.00 -1.00
  virtual crystal weights 
   VCA    =   1.00  1.00  1.00  1.00  1.00
   NELECT =     400.0000    total number of electrons
   NUPDOWN=      -1.0000    fix difference up-down

 DOS related values:
   EMIN   =  10.00;   EMAX   =-10.00  energy-range for DOS
   EFERMI =   0.00
   ISMEAR =     0;   SIGMA  =   0.00  broadening in eV -4-tet -1-fermi 0-gaus

 Electronic relaxation 2 (details)
   IALGO  =     38    algorithm
   LDIAG  =      T    sub-space diagonalisation (order eigenvalues)
   LSUBROT=      F    optimize rotation matrix (better conditioning)
   TURBO    =      0    0=normal 1=particle mesh
   IRESTART =      0    0=no restart 2=restart with 2 vectors
   NREBOOT  =      0    no. of reboots
   NMIN     =      0    reboot dimension
   EREF     =   0.00    reference energy to select bands
   IMIX   =      4    mixing-type and parameters
     AMIX     =   0.40;   BMIX     =  1.00
     AMIX_MAG =   1.60;   BMIX_MAG =  1.00
     AMIN     =   0.10
     WC   =   100.;   INIMIX=   1;  MIXPRE=   1;  MAXMIX= -45

 Intra band minimization:
   WEIMIN = 0.0000     energy-eigenvalue tresh-hold
   EBREAK =  0.98E-13  absolut break condition
   DEPER  =   0.30     relativ break condition  

   TIME   =   0.40     timestep for ELM

  volume/ion in A,a.u.               =      20.80       140.38
  Fermi-wavevector in a.u.,A,eV,Ry     =   0.957863  1.810099 12.483376  0.917502
  Thomas-Fermi vector in A             =   2.086919
 
 Write flags
   LWAVE  =      F    write WAVECAR
   LCHARG =      F    write CHGCAR
   LVTOT  =      F    write LOCPOT, total local potential
   LVHAR  =      F    write LOCPOT, Hartree potential only
   LELF   =      F    write electronic localiz. function (ELF)
   LORBIT =      0    0 simple, 1 ext, 2 COOP (PROOUT)


 Dipole corrections
   LMONO  =      F    monopole corrections only (constant potential shift)
   LDIPOL =      F    correct potential (dipole corrections)
   IDIPOL =      0    1-x, 2-y, 3-z, 4-all directions 
   EPSILON=  1.0000000 bulk dielectric constant

 Core level calculations are selected ICORELEVEL =  1
 Exchange correlation treatment:
   GGA     =    PS    GGA type
   LEXCH   =    14    internal setting for exchange type
   VOSKOWN=      0    Vosko Wilk Nusair interpolation
   LHFCALC =     F    Hartree Fock is set to
   LHFONE  =     F    Hartree Fock one center treatment
   AEXX    =    0.0000 exact exchange contribution

 Linear response parameters
   LEPSILON=     F    determine dielectric tensor
   LRPA    =     F    only Hartree local field effects (RPA)
   LNABLA  =     F    use nabla operator in PAW spheres
   LVEL    =     F    velocity operator in full k-point grid
   LINTERFAST=   F  fast interpolation
   KINTER  =     0    interpolate to denser k-point grid
   CSHIFT  =0.1000    complex shift for real part using Kramers Kronig
   OMEGAMAX=  -1.0    maximum frequency
   DEG_THRESHOLD= 0.2000000E-02 threshold for treating states as degnerate
   RTIME   =    0.100 relaxation time in fs

 Orbital magnetization related:
   ORBITALMAG=     F  switch on orbital magnetization
   LCHIMAG   =     F  perturbation theory with respect to B field
   DQ        =  0.001000  dq finite difference perturbation B field



--------------------------------------------------------------------------------------------------------


 Static calculation
 charge density and potential will be updated during run
 non-spin polarized calculation
 Variant of blocked Davidson
 Davidson routine will perform the subspace rotation
 perform sub-space diagonalisation
    after iterative eigenvector-optimisation
 modified Broyden-mixing scheme, WC =      100.0
 initial mixing is a Kerker type mixing with AMIX =  0.4000 and BMIX =      1.0000
 Hartree-type preconditioning will be used
 using additional bands           56
 reciprocal scheme for non local part
 use partial core corrections
 calculate Harris-corrections to forces 
   (improved forces if not selfconsistent)
 use gradient corrections 
 use of overlap-Matrix (Vanderbilt PP)
 Gauss-broadening in eV      SIGMA  =   0.00


--------------------------------------------------------------------------------------------------------


  energy-cutoff  :      700.00
  volume of cell :     1996.98
      direct lattice vectors                 reciprocal lattice vectors
    12.576837428  0.001915912  0.138198793     0.079520802 -0.000007684 -0.000869670
     0.001195632 12.457538083 -0.000746413    -0.000012224  0.080272684 -0.000000427
     0.139410704  0.000089045 12.747420625    -0.000862111  0.000004784  0.078456671

  length of vectors
    12.577596840 12.457538162 12.748182927     0.079525558  0.080272685  0.078461408


 
 k-points in units of 2pi/SCALE and weight: Automatic 3x3x3                         
   0.00000000  0.00000000  0.00000000       0.037
   0.02650693 -0.00000256 -0.00028989       0.074
  -0.00000407  0.02675756 -0.00000014       0.074
   0.02650286  0.02675500 -0.00029003       0.074
  -0.02651101  0.02676012  0.00028975       0.074
  -0.00028737  0.00000159  0.02615222       0.074
   0.02621956 -0.00000097  0.02586233       0.074
  -0.02679430  0.00000416  0.02644211       0.074
  -0.00029144  0.02675916  0.02615208       0.074
   0.02621549  0.02675659  0.02586219       0.074
  -0.02679838  0.02676172  0.02644197       0.074
  -0.00028330 -0.02675597  0.02615237       0.074
   0.02622364 -0.02675853  0.02586248       0.074
  -0.02679023 -0.02675341  0.02644226       0.074
 
 k-points in reciprocal lattice and weights: Automatic 3x3x3                         
   0.00000000  0.00000000  0.00000000       0.037
   0.33333333 -0.00000000 -0.00000000       0.074
   0.00000000  0.33333333 -0.00000000       0.074
   0.33333333  0.33333333  0.00000000       0.074
  -0.33333333  0.33333333  0.00000000       0.074
   0.00000000  0.00000000  0.33333333       0.074
   0.33333333  0.00000000  0.33333333       0.074
  -0.33333333  0.00000000  0.33333333       0.074
   0.00000000  0.33333333  0.33333333       0.074
   0.33333333  0.33333333  0.33333333       0.074
  -0.33333333  0.33333333  0.33333333       0.074
   0.00000000 -0.33333333  0.33333333       0.074
   0.33333333 -0.33333333  0.33333333       0.074
  -0.33333333 -0.33333333  0.33333333       0.074
 
 position of ions in fractional coordinates (direct lattice) 
   0.19699413  0.24990828  0.22891535
   0.69699413  0.24990828  0.22891535
   0.19699413  0.74990828  0.22891535
   0.69699413  0.74990828  0.22891535
   0.19699413  0.24990828  0.72891535
   0.69699413  0.24990828  0.72891535
   0.19699413  0.74990828  0.72891535
   0.69699413  0.74990828  0.72891535
   0.30453722  0.25000364  0.27388430
   0.80453722  0.25000364  0.27388430
   0.30453722  0.75000364  0.27388430
   0.80453722  0.75000364  0.27388430
   0.30453722  0.25000364  0.77388430
   0.80453722  0.25000364  0.77388430
   0.30453722  0.75000364  0.77388430
   0.80453722  0.75000364  0.77388430
   0.20507517  0.24982110  0.14288863
   0.70507517  0.24982110  0.14288863
   0.20507517  0.74982110  0.14288863
   0.70507517  0.74982110  0.14288863
   0.20507517  0.24982110  0.64288863
   0.70507517  0.24982110  0.64288863
   0.20507517  0.74982110  0.64288863
   0.70507517  0.74982110  0.64288863
   0.15433781  0.32235219  0.25551532
   0.65433781  0.32235219  0.25551532
   0.15433781  0.82235219  0.25551532
   0.65433781  0.82235219  0.25551532
   0.15433781  0.32235219  0.75551532
   0.65433781  0.32235219  0.75551532
   0.15433781  0.82235219  0.75551532
   0.65433781  0.82235219  0.75551532
   0.15444283  0.17747607  0.25565071
   0.65444283  0.17747607  0.25565071
   0.15444283  0.67747607  0.25565071
   0.65444283  0.67747607  0.25565071
   0.15444283  0.17747607  0.75565071
   0.65444283  0.17747607  0.75565071
   0.15444283  0.67747607  0.75565071
   0.65444283  0.67747607  0.75565071
   0.34813458  0.31787428  0.25075649
   0.84813458  0.31787428  0.25075649
   0.34813458  0.81787428  0.25075649
   0.84813458  0.81787428  0.25075649
   0.34813458  0.31787428  0.75075649
   0.84813458  0.31787428  0.75075649
   0.34813458  0.81787428  0.75075649
   0.84813458  0.81787428  0.75075649
   0.34820530  0.18210489  0.25089090
   0.84820530  0.18210489  0.25089090
   0.34820530  0.68210489  0.25089090
   0.84820530  0.68210489  0.25089090
   0.34820530  0.18210489  0.75089090
   0.84820530  0.18210489  0.75089090
   0.34820530  0.68210489  0.75089090
   0.84820530  0.68210489  0.75089090
   0.30317007  0.25009352  0.35560924
   0.80317007  0.25009352  0.35560924
   0.30317007  0.75009352  0.35560924
   0.80317007  0.75009352  0.35560924
   0.30317007  0.25009352  0.85560924
   0.80317007  0.25009352  0.85560924
   0.30317007  0.75009352  0.85560924
   0.80317007  0.75009352  0.85560924
   0.47244178  0.49998979  0.48881145
   0.97244178  0.49998979  0.48881145
   0.47244178  0.99998979  0.48881145
   0.97244178  0.99998979  0.48881145
   0.47244178  0.49998979  0.98881145
   0.97244178  0.49998979  0.98881145
   0.47244178  0.99998979  0.98881145
   0.97244178  0.99998979  0.98881145
   0.45474367  0.49999105  0.23757274
   0.95474367  0.49999105  0.23757274
   0.45474367  0.99999105  0.23757274
   0.95474367  0.99999105  0.23757274
   0.45474367  0.49999105  0.73757274
   0.95474367  0.49999105  0.73757274
   0.45474367  0.99999105  0.73757274
   0.95474367  0.99999105  0.73757274
   0.44963544  0.24997901  0.01183222
   0.94963544  0.24997901  0.01183222
   0.44963544  0.74997901  0.01183222
   0.94963544  0.74997901  0.01183222
   0.44963544  0.24997901  0.51183222
   0.94963544  0.24997901  0.51183222
   0.44963544  0.74997901  0.51183222
   0.94963544  0.74997901  0.51183222
   0.21617144  0.49999744  0.46123970
   0.71617144  0.49999744  0.46123970
   0.21617144  0.99999744  0.46123970
   0.71617144  0.99999744  0.46123970
   0.21617144  0.49999744  0.96123970
   0.71617144  0.49999744  0.96123970
   0.21617144  0.99999744  0.96123970
   0.71617144  0.99999744  0.96123970
 
 position of ions in cartesian coordinates  (Angst):
   2.50977523  3.11363966  2.94511813
   8.79819394  3.11459762  3.01421752
   2.51037304  9.34240870  2.94474492
   8.79879176  9.34336666  3.01384432
   2.57948058  3.11368418  9.31882844
   8.86789929  3.11464214  9.38792784
   2.58007840  9.34245323  9.31845523
   8.86849711  9.34341118  9.38755463
   3.86859641  3.11503773  3.53321840
  10.15701512  3.11599568  3.60231780
   3.86919422  9.34380677  3.53284519
  10.15761294  9.34476473  3.60194459
   3.93830176  3.11508225  9.90692871
  10.22672047  3.11604021  9.97602811
   3.93889958  9.34385129  9.90655551
  10.22731829  9.34480925  9.97565490
   2.59941594  3.11256145  1.84961609
   8.88783465  3.11351941  1.91871549
   2.60001375  9.34133049  1.84924288
   8.88843247  9.34228845  1.91834228
   2.66912129  3.11260597  8.22332640
   8.95754000  3.11356393  8.29242580
   2.66971911  9.34137501  8.22295319
   8.95813782  9.34233297  8.29205259
   1.97708849  4.01603309  3.27824994
   8.26550720  4.01699105  3.34734934
   1.97768630 10.24480213  3.27787673
   8.26610502 10.24576009  3.34697613
   2.04679384  4.01607761  9.65196025
   8.33521255  4.01703557  9.72105965
   2.04739166 10.24484666  9.65158705
   8.33581037 10.24580461  9.72068644
   1.97825505  2.21123361  3.28009843
   8.26667377  2.21219156  3.34919783
   1.97885287  8.44000265  3.27972523
   8.26727158  8.44096060  3.34882462
   2.04796040  2.21127813  9.65380875
   8.33637912  2.21223609  9.72290814
   2.04855822  8.44004717  9.65343554
   8.33697693  8.44100513  9.72253494
   4.41377018  3.96062031  3.24437298
  10.70218890  3.96157826  3.31347237
   4.41436800 10.18938935  3.24399977
  10.70278671 10.19034731  3.31309917
   4.48347553  3.96066483  9.61808329
  10.77189425  3.96162279  9.68718269
   4.48407335 10.18943387  9.61771008
  10.77249206 10.19039183  9.68680948
   4.41451606  2.26926804  3.24619746
  10.70293477  2.27022600  3.31529685
   4.41511388  8.49803708  3.24582425
  10.70353259  8.49899504  3.31492365
   4.48422141  2.26931256  9.61990777
  10.77264013  2.27027052  9.68900717
   4.48481923  8.49808161  9.61953456
  10.77323794  8.49903956  9.68863396
   3.86279548  3.11616208  4.57481169
  10.15121419  3.11712004  4.64391108
   3.86339329  9.34493112  4.57443848
  10.15181201  9.34588908  4.64353788
   3.93250083  3.11620661 10.94852200
  10.22091954  3.11716456 11.01762139
   3.93309864  9.34497565 10.94814879
  10.22151736  9.34593360 11.01724819
   6.01056676  6.22959059  6.29600281
  12.29898548  6.23054855  6.36510220
   6.01116458 12.45835963  6.29562960
  12.29958329 12.45931759  6.36472900
   6.08027211  6.22963512 12.66971312
  12.36869083  6.23059307 12.73881252
   6.08086993 12.45840416 12.66933991
  12.36928864 12.45936211 12.73843931
   5.75295525  6.22954994  3.09091150
  12.04137397  6.23050790  3.16001089
   5.75355307 12.45831898  3.09053829
  12.04197178 12.45927694  3.15963769
   5.82266060  6.22959447  9.46462181
  12.11107932  6.23055242  9.53372121
   5.82325842 12.45836351  9.46424860
  12.11167713 12.45932146  9.53334800
   5.65694025  3.11498556  0.21278274
  11.94535896  3.11594351  0.28188214
   5.65753806  9.34375460  0.21240954
  11.94595678  9.34471256  0.28150893
   5.72664560  3.11503008  6.58649306
  12.01506431  3.11598804  6.65559245
   5.72724341  9.34379912  6.58611985
  12.01566213  9.34475708  6.65521925
   2.78365260  6.22919234  5.90911792
   9.07207132  6.23015030  5.97821731
   2.78425042 12.45796138  5.90874471
   9.07266913 12.45891934  5.97784411
   2.85335795  6.22923686 12.28282823
   9.14177667  6.23019482 12.35192762
   2.85395577 12.45800590 12.28245502
   9.14237448 12.45896386 12.35155442
 


--------------------------------------------------------------------------------------------------------


 k-point  1 :   0.0000 0.0000 0.0000  plane waves:   84007
 k-point  2 :   0.3333-0.0000-0.0000  plane waves:   84003
 k-point  3 :   0.0000 0.3333-0.0000  plane waves:   83995
 k-point  4 :   0.3333 0.3333 0.0000  plane waves:   84018
 k-point  5 :  -0.3333 0.3333 0.0000  plane waves:   84019
 k-point  6 :   0.0000 0.0000 0.3333  plane waves:   83960
 k-point  7 :   0.3333 0.0000 0.3333  plane waves:   83937
 k-point  8 :  -0.3333 0.0000 0.3333  plane waves:   83982
 k-point  9 :   0.0000 0.3333 0.3333  plane waves:   83984
 k-point 10 :   0.3333 0.3333 0.3333  plane waves:   84012
 k-point 11 :  -0.3333 0.3333 0.3333  plane waves:   83970
 k-point 12 :   0.0000-0.3333 0.3333  plane waves:   83977
 k-point 13 :   0.3333-0.3333 0.3333  plane waves:   84013
 k-point 14 :  -0.3333-0.3333 0.3333  plane waves:   83973

 maximum and minimum number of plane-waves per node :     28039    27934

 maximum number of plane-waves:     84019
 maximum index in each direction: 
   IXMAX=   27   IYMAX=   27   IZMAX=   27
   IXMIN=  -27   IYMIN=  -27   IZMIN=  -27

 NGX is ok and might be reduce to 110
 WARNING: aliasing errors must be expected set NGY to 110 to avoid them
 NGZ is ok and might be reduce to 110
 aliasing errors are usually negligible using standard VASP settings
 and one can safely disregard these warnings

 parallel 3D FFT for wavefunctions:
    minimum data exchange during FFTs selected (reduces bandwidth)
 parallel 3D FFT for charge:
    minimum data exchange during FFTs selected (reduces bandwidth)


 total amount of memory used by VASP on root node   697522. kBytes
========================================================================

   base      :      30000. kBytes
   nonl-proj :     325712. kBytes
   fftplans  :      80881. kBytes
   grid      :      57435. kBytes
   one-center:        497. kBytes
   wavefun   :     202997. kBytes
 
     INWAV:  cpu time    0.0000: real time    0.0000
 Broyden mixing: mesh for mixing (old mesh)
   NGX = 55   NGY = 53   NGZ = 55
  (NGX  =224   NGY  =216   NGZ  =224)
  gives a total of 160325 points

 initial charge density was supplied:
 charge density of overlapping atoms calculated
 number of electron     400.0000000 magnetization 
 keeping initial charge density in first step


--------------------------------------------------------------------------------------------------------


 Maximum index for augmentation-charges        13843 (set IRDMAX)


--------------------------------------------------------------------------------------------------------


 First call to EWALD:  gamma=   0.141
 Maximum number of real-space cells 3x 3x 3
 Maximum number of reciprocal cells 3x 3x 3

 FEWALD executed in parallel
    FEWALD:  cpu time    0.0040: real time    0.0038


----------------------------------------- Iteration    1(   1)  ---------------------------------------


    POTLOK:  cpu time    0.4480: real time    0.4463
    SETDIJ:  cpu time    0.7600: real time    0.7624
     EDDAV:  cpu time   71.8125: real time   71.8581
       DOS:  cpu time    0.0000: real time    0.0014
    --------------------------------------------
      LOOP:  cpu time   73.0206: real time   73.0898

 eigenvalue-minimisations  :  7176
 total energy-change (2. order) : 0.3603738E+04  (-0.1894930E+05)
 number of electron     400.0000000 magnetization 
 augmentation part      400.0000000 magnetization 

 Free energy of the ion-electron system (eV)
  ---------------------------------------------------
  alpha Z        PSCENC =       370.05370877
  Ewald energy   TEWEN  =    -15504.44764173
  -Hartree energ DENC   =     -8139.72641594
  -exchange      EXHF   =         0.00000000
  -V(xc)+E(xc)   XCENC  =       390.16423610
  PAW double counting   =     20601.23165652   -19855.90553853
  entropy T*S    EENTRO =        -0.00000001
  eigenvalues    EBANDS =       993.36161122
  atomic energy  EATOM  =     24749.00668030
  Solvation  Ediel_sol  =         0.00000000
  ---------------------------------------------------
  free energy    TOTEN  =      3603.73829670 eV

  energy without entropy =     3603.73829671  energy(sigma->0) =     3603.73829671


--------------------------------------------------------------------------------------------------------




----------------------------------------- Iteration    1(   2)  ---------------------------------------


     EDDAV:  cpu time   78.1089: real time   78.1574
       DOS:  cpu time    0.0040: real time    0.0024
    --------------------------------------------
      LOOP:  cpu time   78.1169: real time   78.1874

 eigenvalue-minimisations  :  7992
 total energy-change (2. order) :-0.3404291E+04  (-0.3210153E+04)
 number of electron     400.0000000 magnetization 
 augmentation part      400.0000000 magnetization 

 Free energy of the ion-electron system (eV)
  ---------------------------------------------------
  alpha Z        PSCENC =       370.05370877
  Ewald energy   TEWEN  =    -15504.44764173
  -Hartree energ DENC   =     -8139.72641594
  -exchange      EXHF   =         0.00000000
  -V(xc)+E(xc)   XCENC  =       390.16423610
  PAW double counting   =     20601.23165652   -19855.90553853
  entropy T*S    EENTRO =        -0.00001554
  eigenvalues    EBANDS =     -2410.92908388
  atomic energy  EATOM  =     24749.00668030
  Solvation  Ediel_sol  =         0.00000000
  ---------------------------------------------------
  free energy    TOTEN  =       199.44758608 eV

  energy without entropy =      199.44760162  energy(sigma->0) =      199.44759385


--------------------------------------------------------------------------------------------------------




----------------------------------------- Iteration    1(   3)  ---------------------------------------


     EDDAV:  cpu time   89.6856: real time   89.7413
       DOS:  cpu time    0.0000: real time    0.0009
    --------------------------------------------
      LOOP:  cpu time   89.6856: real time   89.7524

 eigenvalue-minimisations  :  9488
 total energy-change (2. order) :-0.5982824E+03  (-0.5892566E+03)
 number of electron     400.0000000 magnetization 
 augmentation part      400.0000000 magnetization 

 Free energy of the ion-electron system (eV)
  ---------------------------------------------------
  alpha Z        PSCENC =       370.05370877
  Ewald energy   TEWEN  =    -15504.44764173
  -Hartree energ DENC   =     -8139.72641594
  -exchange      EXHF   =         0.00000000
  -V(xc)+E(xc)   XCENC  =       390.16423610
  PAW double counting   =     20601.23165652   -19855.90553853
  entropy T*S    EENTRO =        -0.00000000
  eigenvalues    EBANDS =     -3009.21151029
  atomic energy  EATOM  =     24749.00668030
  Solvation  Ediel_sol  =         0.00000000
  ---------------------------------------------------
  free energy    TOTEN  =      -398.83482480 eV

  energy without entropy =     -398.83482480  energy(sigma->0) =     -398.83482480


--------------------------------------------------------------------------------------------------------




----------------------------------------- Iteration    1(   4)  ---------------------------------------


     EDDAV:  cpu time   90.6657: real time   90.7208
       DOS:  cpu time    0.0000: real time    0.0007
    --------------------------------------------
      LOOP:  cpu time   90.6697: real time   90.7687

 eigenvalue-minimisations  :  9648
 total energy-change (2. order) :-0.3992568E+02  (-0.3975268E+02)
 number of electron     400.0000000 magnetization 
 augmentation part      400.0000000 magnetization 

 Free energy of the ion-electron system (eV)
  ---------------------------------------------------
  alpha Z        PSCENC =       370.05370877
  Ewald energy   TEWEN  =    -15504.44764173
  -Hartree energ DENC   =     -8139.72641594
  -exchange      EXHF   =         0.00000000
  -V(xc)+E(xc)   XCENC  =       390.16423610
  PAW double counting   =     20601.23165652   -19855.90553853
  entropy T*S    EENTRO =         0.00000000
  eigenvalues    EBANDS =     -3049.13719131
  atomic energy  EATOM  =     24749.00668030
  Solvation  Ediel_sol  =         0.00000000
  ---------------------------------------------------
  free energy    TOTEN  =      -438.76050581 eV

  energy without entropy =     -438.76050581  energy(sigma->0) =     -438.76050581


--------------------------------------------------------------------------------------------------------




----------------------------------------- Iteration    1(   5)  ---------------------------------------


     EDDAV:  cpu time   91.7377: real time   91.7911
       DOS:  cpu time    0.0000: real time    0.0007
    CHARGE:  cpu time    3.3522: real time    3.3569
    MIXING:  cpu time    0.0160: real time    0.0133
    --------------------------------------------
      LOOP:  cpu time   95.1059: real time   95.2437

 eigenvalue-minimisations  :  9768
 total energy-change (2. order) :-0.1478260E+01  (-0.1476102E+01)
 number of electron     399.9999999 magnetization 
 augmentation part        7.5669640 magnetization 

 Broyden mixing:
  rms(total) = 0.29788E+01    rms(broyden)= 0.29787E+01
  rms(prec ) = 0.35305E+01
  weight for this iteration     100.00

 Free energy of the ion-electron system (eV)
  ---------------------------------------------------
  alpha Z        PSCENC =       370.05370877
  Ewald energy   TEWEN  =    -15504.44764173
  -Hartree energ DENC   =     -8139.72641594
  -exchange      EXHF   =         0.00000000
  -V(xc)+E(xc)   XCENC  =       390.16423610
  PAW double counting   =     20601.23165652   -19855.90553853
  entropy T*S    EENTRO =         0.00000000
  eigenvalues    EBANDS =     -3050.61545137
  atomic energy  EATOM  =     24749.00668030
  Solvation  Ediel_sol  =         0.00000000
  ---------------------------------------------------
  free energy    TOTEN  =      -440.23876588 eV

  energy without entropy =     -440.23876588  energy(sigma->0) =     -440.23876588


--------------------------------------------------------------------------------------------------------




----------------------------------------- Iteration    1(   6)  ---------------------------------------


    POTLOK:  cpu time    0.4440: real time    0.4431
    SETDIJ:  cpu time    0.7640: real time    0.7655
     EDDAV:  cpu time   88.4255: real time   88.4818
       DOS:  cpu time    0.0040: real time    0.0020
    CHARGE:  cpu time    3.3522: real time    3.3533
    MIXING:  cpu time    0.0120: real time    0.0133
    --------------------------------------------
      LOOP:  cpu time   93.0018: real time   93.0876

 eigenvalue-minimisations  :  9432
 total energy-change (2. order) : 0.2069982E+02  (-0.4192120E+01)
 number of electron     399.9999999 magnetization 
 augmentation part        7.8742279 magnetization 

 Broyden mixing:
  rms(total) = 0.15764E+01    rms(broyden)= 0.15764E+01
  rms(prec ) = 0.17539E+01
  weight for this iteration     100.00

 eigenvalues of (default mixing * dielectric matrix)
  average eigenvalue GAMMA=   1.5496
  1.5496

 Free energy of the ion-electron system (eV)
  ---------------------------------------------------
  alpha Z        PSCENC =       370.05370877
  Ewald energy   TEWEN  =    -15504.44764173
  -Hartree energ DENC   =     -8313.52924957
  -exchange      EXHF   =         0.00000000
  -V(xc)+E(xc)   XCENC  =       404.41792206
  PAW double counting   =     23082.23625390   -22335.12868918
  entropy T*S    EENTRO =         0.00000000
  eigenvalues    EBANDS =     -2872.14793246
  atomic energy  EATOM  =     24749.00668030
  Solvation  Ediel_sol  =         0.00000000
  ---------------------------------------------------
  free energy    TOTEN  =      -419.53894790 eV

  energy without entropy =     -419.53894790  energy(sigma->0) =     -419.53894790


--------------------------------------------------------------------------------------------------------




----------------------------------------- Iteration    1(   7)  ---------------------------------------


    POTLOK:  cpu time    0.4400: real time    0.4407
    SETDIJ:  cpu time    0.7600: real time    0.7629
     EDDAV:  cpu time   95.2500: real time   95.3073
       DOS:  cpu time    0.0000: real time    0.0010
    CHARGE:  cpu time    3.3562: real time    3.3596
    MIXING:  cpu time    0.0120: real time    0.0136
    --------------------------------------------
      LOOP:  cpu time   99.8262: real time   99.9307

 eigenvalue-minimisations  : 10232
 total energy-change (2. order) : 0.2486329E+01  (-0.1459107E+01)
 number of electron     399.9999999 magnetization 
 augmentation part        8.0082470 magnetization 

 Broyden mixing:
  rms(total) = 0.78485E+00    rms(broyden)= 0.78483E+00
  rms(prec ) = 0.83695E+00
  weight for this iteration     100.00

 eigenvalues of (default mixing * dielectric matrix)
  average eigenvalue GAMMA=   1.9242
  1.4473  2.4012

 Free energy of the ion-electron system (eV)
  ---------------------------------------------------
  alpha Z        PSCENC =       370.05370877
  Ewald energy   TEWEN  =    -15504.44764173
  -Hartree energ DENC   =     -8403.19667531
  -exchange      EXHF   =         0.00000000
  -V(xc)+E(xc)   XCENC  =       413.98805979
  PAW double counting   =     26199.32470884   -25451.24159326
  entropy T*S    EENTRO =         0.00000000
  eigenvalues    EBANDS =     -2790.53986659
  atomic energy  EATOM  =     24749.00668030
  Solvation  Ediel_sol  =         0.00000000
  ---------------------------------------------------
  free energy    TOTEN  =      -417.05261919 eV

  energy without entropy =     -417.05261919  energy(sigma->0) =     -417.05261919


--------------------------------------------------------------------------------------------------------




----------------------------------------- Iteration    1(   8)  ---------------------------------------


    POTLOK:  cpu time    0.4440: real time    0.4419
    SETDIJ:  cpu time    0.7600: real time    0.7624
     EDDAV:  cpu time   82.5892: real time   82.6396
       DOS:  cpu time    0.0000: real time    0.0011
    CHARGE:  cpu time    3.3602: real time    3.3610
    MIXING:  cpu time    0.0160: real time    0.0137
    --------------------------------------------
      LOOP:  cpu time   87.1694: real time   87.2439

 eigenvalue-minimisations  :  8640
 total energy-change (2. order) : 0.1722463E+00  (-0.3008804E+00)
 number of electron     399.9999999 magnetization 
 augmentation part        7.9444805 magnetization 

 Broyden mixing:
  rms(total) = 0.18136E+00    rms(broyden)= 0.18136E+00
  rms(prec ) = 0.22002E+00
  weight for this iteration     100.00

 eigenvalues of (default mixing * dielectric matrix)
  average eigenvalue GAMMA=   1.6344
  2.3803  1.2615  1.2615

 Free energy of the ion-electron system (eV)
  ---------------------------------------------------
  alpha Z        PSCENC =       370.05370877
  Ewald energy   TEWEN  =    -15504.44764173
  -Hartree energ DENC   =     -8411.78123391
  -exchange      EXHF   =         0.00000000
  -V(xc)+E(xc)   XCENC  =       417.24965772
  PAW double counting   =     28680.22379859   -27933.17336559
  entropy T*S    EENTRO =         0.00000000
  eigenvalues    EBANDS =     -2784.01197707
  atomic energy  EATOM  =     24749.00668030
  Solvation  Ediel_sol  =         0.00000000
  ---------------------------------------------------
  free energy    TOTEN  =      -416.88037292 eV

  energy without entropy =     -416.88037292  energy(sigma->0) =     -416.88037292


--------------------------------------------------------------------------------------------------------




----------------------------------------- Iteration    1(   9)  ---------------------------------------


    POTLOK:  cpu time    0.4440: real time    0.4435
    SETDIJ:  cpu time    0.7600: real time    0.7619
     EDDAV:  cpu time   88.6415: real time   88.6949
       DOS:  cpu time    0.0000: real time    0.0031
    CHARGE:  cpu time    3.3482: real time    3.3504
    MIXING:  cpu time    0.0120: real time    0.0138
    --------------------------------------------
      LOOP:  cpu time   93.2098: real time   93.3150

 eigenvalue-minimisations  :  9408
 total energy-change (2. order) : 0.6975721E-01  (-0.7400963E-01)
 number of electron     399.9999999 magnetization 
 augmentation part        7.9548351 magnetization 

 Broyden mixing:
  rms(total) = 0.72667E-01    rms(broyden)= 0.72659E-01
  rms(prec ) = 0.81669E-01
  weight for this iteration     100.00

 eigenvalues of (default mixing * dielectric matrix)
  average eigenvalue GAMMA=   1.5474
  2.3317  1.5449  1.1565  1.1565

 Free energy of the ion-electron system (eV)
  ---------------------------------------------------
  alpha Z        PSCENC =       370.05370877
  Ewald energy   TEWEN  =    -15504.44764173
  -Hartree energ DENC   =     -8429.64576817
  -exchange      EXHF   =         0.00000000
  -V(xc)+E(xc)   XCENC  =       418.31167270
  PAW double counting   =     28699.20068577   -27952.23222812
  entropy T*S    EENTRO =         0.00000000
  eigenvalues    EBANDS =     -2767.05772524
  atomic energy  EATOM  =     24749.00668030
  Solvation  Ediel_sol  =         0.00000000
  ---------------------------------------------------
  free energy    TOTEN  =      -416.81061571 eV

  energy without entropy =     -416.81061571  energy(sigma->0) =     -416.81061571


--------------------------------------------------------------------------------------------------------




----------------------------------------- Iteration    1(  10)  ---------------------------------------


    POTLOK:  cpu time    0.4400: real time    0.4412
    SETDIJ:  cpu time    0.7600: real time    0.7618
     EDDAV:  cpu time   86.1454: real time   86.1993
       DOS:  cpu time    0.0040: real time    0.0039
    CHARGE:  cpu time    3.3562: real time    3.3559
    MIXING:  cpu time    0.0120: real time    0.0142
    --------------------------------------------
      LOOP:  cpu time   90.7217: real time   90.8025

 eigenvalue-minimisations  :  9000
 total energy-change (2. order) :-0.1125217E-01  (-0.1017701E-01)
 number of electron     399.9999999 magnetization 
 augmentation part        7.9318658 magnetization 

 Broyden mixing:
  rms(total) = 0.43939E-01    rms(broyden)= 0.43938E-01
  rms(prec ) = 0.50595E-01
  weight for this iteration     100.00

 eigenvalues of (default mixing * dielectric matrix)
  average eigenvalue GAMMA=   1.4660
  2.3917  1.9453  1.0736  1.0736  0.8455

 Free energy of the ion-electron system (eV)
  ---------------------------------------------------
  alpha Z        PSCENC =       370.05370877
  Ewald energy   TEWEN  =    -15504.44764173
  -Hartree energ DENC   =     -8430.40620389
  -exchange      EXHF   =         0.00000000
  -V(xc)+E(xc)   XCENC  =       418.41374675
  PAW double counting   =     28743.09220105   -27996.35417985
  entropy T*S    EENTRO =         0.00000000
  eigenvalues    EBANDS =     -2766.18017929
  atomic energy  EATOM  =     24749.00668030
  Solvation  Ediel_sol  =         0.00000000
  ---------------------------------------------------
  free energy    TOTEN  =      -416.82186789 eV

  energy without entropy =     -416.82186789  energy(sigma->0) =     -416.82186789


--------------------------------------------------------------------------------------------------------




----------------------------------------- Iteration    1(  11)  ---------------------------------------


    POTLOK:  cpu time    0.4400: real time    0.4433
    SETDIJ:  cpu time    0.7640: real time    0.7642
     EDDAV:  cpu time   92.1458: real time   92.2030
       DOS:  cpu time    0.0040: real time    0.0020
    CHARGE:  cpu time    3.3562: real time    3.3585
    MIXING:  cpu time    0.0160: real time    0.0145
    --------------------------------------------
      LOOP:  cpu time   96.7300: real time   96.8202

 eigenvalue-minimisations  :  9840
 total energy-change (2. order) :-0.2628538E-03  (-0.1258975E-02)
 number of electron     399.9999999 magnetization 
 augmentation part        7.9325057 magnetization 

 Broyden mixing:
  rms(total) = 0.19231E-01    rms(broyden)= 0.19230E-01
  rms(prec ) = 0.22903E-01
  weight for this iteration     100.00

 eigenvalues of (default mixing * dielectric matrix)
  average eigenvalue GAMMA=   1.5306
  2.4416  1.9820  1.5612  1.0877  1.0557  1.0557

 Free energy of the ion-electron system (eV)
  ---------------------------------------------------
  alpha Z        PSCENC =       370.05370877
  Ewald energy   TEWEN  =    -15504.44764173
  -Hartree energ DENC   =     -8429.76200424
  -exchange      EXHF   =         0.00000000
  -V(xc)+E(xc)   XCENC  =       418.43592490
  PAW double counting   =     28779.15356587   -28032.48793777
  entropy T*S    EENTRO =         0.00000000
  eigenvalues    EBANDS =     -2766.77442683
  atomic energy  EATOM  =     24749.00668030
  Solvation  Ediel_sol  =         0.00000000
  ---------------------------------------------------
  free energy    TOTEN  =      -416.82213074 eV

  energy without entropy =     -416.82213074  energy(sigma->0) =     -416.82213074


--------------------------------------------------------------------------------------------------------




----------------------------------------- Iteration    1(  12)  ---------------------------------------


    POTLOK:  cpu time    0.4400: real time    0.4423
    SETDIJ:  cpu time    0.7640: real time    0.7635
     EDDAV:  cpu time   92.3178: real time   92.3777
       DOS:  cpu time    0.0000: real time    0.0011
    CHARGE:  cpu time    3.3602: real time    3.3628
    MIXING:  cpu time    0.0160: real time    0.0148
    --------------------------------------------
      LOOP:  cpu time   96.9021: real time   97.0664

 eigenvalue-minimisations  :  9800
 total energy-change (2. order) :-0.1401980E-02  (-0.8801525E-03)
 number of electron     399.9999999 magnetization 
 augmentation part        7.9434222 magnetization 

 Broyden mixing:
  rms(total) = 0.10531E-01    rms(broyden)= 0.10531E-01
  rms(prec ) = 0.12597E-01
  weight for this iteration     100.00

 eigenvalues of (default mixing * dielectric matrix)
  average eigenvalue GAMMA=   1.4836
  2.6254  2.3117  1.3038  1.3038  0.9430  0.9488  0.9488

 Free energy of the ion-electron system (eV)
  ---------------------------------------------------
  alpha Z        PSCENC =       370.05370877
  Ewald energy   TEWEN  =    -15504.44764173
  -Hartree energ DENC   =     -8430.22406106
  -exchange      EXHF   =         0.00000000
  -V(xc)+E(xc)   XCENC  =       418.49536174
  PAW double counting   =     28770.31749280   -28023.67001774
  entropy T*S    EENTRO =        -0.00000000
  eigenvalues    EBANDS =     -2766.35505581
  atomic energy  EATOM  =     24749.00668030
  Solvation  Ediel_sol  =         0.00000000
  ---------------------------------------------------
  free energy    TOTEN  =      -416.82353272 eV

  energy without entropy =     -416.82353272  energy(sigma->0) =     -416.82353272


--------------------------------------------------------------------------------------------------------




----------------------------------------- Iteration    1(  13)  ---------------------------------------


    POTLOK:  cpu time    0.4440: real time    0.4427
    SETDIJ:  cpu time    0.7640: real time    0.7644
     EDDAV:  cpu time   82.0491: real time   82.1007
       DOS:  cpu time    0.0000: real time    0.0009
    CHARGE:  cpu time    3.3562: real time    3.3562
    MIXING:  cpu time    0.0160: real time    0.0149
    --------------------------------------------
      LOOP:  cpu time   86.6294: real time   86.7160

 eigenvalue-minimisations  :  8464
 total energy-change (2. order) :-0.1323800E-03  (-0.1325816E-03)
 number of electron     399.9999999 magnetization 
 augmentation part        7.9419394 magnetization 

 Broyden mixing:
  rms(total) = 0.69731E-02    rms(broyden)= 0.69729E-02
  rms(prec ) = 0.79330E-02
  weight for this iteration     100.00

 eigenvalues of (default mixing * dielectric matrix)
  average eigenvalue GAMMA=   1.4526
  2.5983  2.3755  1.5568  1.1471  0.9803  0.9803  0.9915  0.9915

 Free energy of the ion-electron system (eV)
  ---------------------------------------------------
  alpha Z        PSCENC =       370.05370877
  Ewald energy   TEWEN  =    -15504.44764173
  -Hartree energ DENC   =     -8430.54888593
  -exchange      EXHF   =         0.00000000
  -V(xc)+E(xc)   XCENC  =       418.52234511
  PAW double counting   =     28770.62366963   -28023.98802232
  entropy T*S    EENTRO =         0.00000000
  eigenvalues    EBANDS =     -2766.04551893
  atomic energy  EATOM  =     24749.00668030
  Solvation  Ediel_sol  =         0.00000000
  ---------------------------------------------------
  free energy    TOTEN  =      -416.82366510 eV

  energy without entropy =     -416.82366510  energy(sigma->0) =     -416.82366510


--------------------------------------------------------------------------------------------------------




----------------------------------------- Iteration    1(  14)  ---------------------------------------


    POTLOK:  cpu time    0.4400: real time    0.4400
    SETDIJ:  cpu time    0.7640: real time    0.7648
     EDDAV:  cpu time   83.0172: real time   83.0682
       DOS:  cpu time    0.0000: real time    0.0009
    CHARGE:  cpu time    3.3562: real time    3.3580
    MIXING:  cpu time    0.0160: real time    0.0153
    --------------------------------------------
      LOOP:  cpu time   87.5935: real time   87.6904

 eigenvalue-minimisations  :  8536
 total energy-change (2. order) :-0.4091073E-04  (-0.2744776E-04)
 number of electron     399.9999999 magnetization 
 augmentation part        7.9420872 magnetization 

 Broyden mixing:
  rms(total) = 0.28745E-02    rms(broyden)= 0.28744E-02
  rms(prec ) = 0.33734E-02
  weight for this iteration     100.00

 eigenvalues of (default mixing * dielectric matrix)
  average eigenvalue GAMMA=   1.5348
  2.7323  2.7323  1.9255  1.0518  1.0518  1.2527  0.9465  1.0602  1.0602

 Free energy of the ion-electron system (eV)
  ---------------------------------------------------
  alpha Z        PSCENC =       370.05370877
  Ewald energy   TEWEN  =    -15504.44764173
  -Hartree energ DENC   =     -8430.86568563
  -exchange      EXHF   =         0.00000000
  -V(xc)+E(xc)   XCENC  =       418.54211543
  PAW double counting   =     28765.42966254   -28018.78004874
  entropy T*S    EENTRO =         0.00000000
  eigenvalues    EBANDS =     -2765.76249695
  atomic energy  EATOM  =     24749.00668030
  Solvation  Ediel_sol  =         0.00000000
  ---------------------------------------------------
  free energy    TOTEN  =      -416.82370601 eV

  energy without entropy =     -416.82370601  energy(sigma->0) =     -416.82370601


--------------------------------------------------------------------------------------------------------




----------------------------------------- Iteration    1(  15)  ---------------------------------------


    POTLOK:  cpu time    0.4400: real time    0.4424
    SETDIJ:  cpu time    0.7640: real time    0.7636
     EDDAV:  cpu time   78.4489: real time   78.4996
       DOS:  cpu time    0.0040: real time    0.0010
    CHARGE:  cpu time    3.3562: real time    3.3590
    MIXING:  cpu time    0.0160: real time    0.0156
    --------------------------------------------
[...]
   0.563E+01 0.474E-01 0.524E+02   -.531E+01 -.532E-01 -.581E+02   -.320E+00 0.577E-02 0.572E+01   0.548E-08 -.123E-07 0.561E-07
   0.563E+01 0.474E-01 0.524E+02   -.531E+01 -.532E-01 -.581E+02   -.320E+00 0.577E-02 0.572E+01   -.205E-07 -.145E-07 0.547E-07
   0.306E+02 -.392E+02 -.102E+02   -.334E+02 0.439E+02 0.118E+02   0.287E+01 -.465E+01 -.165E+01   0.242E-07 -.727E-07 0.319E-09
   0.306E+02 -.392E+02 -.102E+02   -.334E+02 0.439E+02 0.118E+02   0.287E+01 -.465E+01 -.165E+01   0.540E-07 -.807E-07 0.143E-07
   0.306E+02 -.392E+02 -.102E+02   -.334E+02 0.439E+02 0.118E+02   0.287E+01 -.465E+01 -.165E+01   0.314E-07 -.644E-07 -.105E-07
   0.306E+02 -.392E+02 -.102E+02   -.334E+02 0.439E+02 0.118E+02   0.287E+01 -.465E+01 -.165E+01   0.347E-07 -.651E-07 0.238E-08
   0.306E+02 -.392E+02 -.102E+02   -.334E+02 0.439E+02 0.118E+02   0.287E+01 -.465E+01 -.165E+01   0.304E-07 -.691E-07 -.566E-07
   0.306E+02 -.392E+02 -.102E+02   -.334E+02 0.439E+02 0.118E+02   0.287E+01 -.465E+01 -.165E+01   0.378E-07 -.652E-07 -.689E-07
   0.306E+02 -.392E+02 -.102E+02   -.334E+02 0.439E+02 0.118E+02   0.287E+01 -.465E+01 -.165E+01   0.369E-07 -.773E-07 -.443E-07
   0.306E+02 -.392E+02 -.102E+02   -.334E+02 0.439E+02 0.118E+02   0.287E+01 -.465E+01 -.165E+01   0.432E-07 -.893E-07 -.586E-07
   0.305E+02 0.393E+02 -.103E+02   -.334E+02 -.439E+02 0.119E+02   0.287E+01 0.465E+01 -.166E+01   0.277E-07 0.652E-07 -.123E-07
   0.305E+02 0.393E+02 -.103E+02   -.334E+02 -.439E+02 0.119E+02   0.287E+01 0.465E+01 -.166E+01   0.387E-07 0.648E-07 0.376E-08
   0.305E+02 0.393E+02 -.103E+02   -.334E+02 -.439E+02 0.119E+02   0.287E+01 0.465E+01 -.166E+01   0.277E-07 0.718E-07 0.180E-08
   0.305E+02 0.393E+02 -.103E+02   -.334E+02 -.439E+02 0.119E+02   0.287E+01 0.465E+01 -.166E+01   0.500E-07 0.811E-07 0.127E-07
   0.305E+02 0.393E+02 -.103E+02   -.334E+02 -.439E+02 0.119E+02   0.287E+01 0.465E+01 -.166E+01   0.330E-07 0.774E-07 -.427E-07
   0.305E+02 0.393E+02 -.103E+02   -.334E+02 -.439E+02 0.119E+02   0.287E+01 0.465E+01 -.166E+01   0.466E-07 0.883E-07 -.604E-07
   0.305E+02 0.393E+02 -.103E+02   -.334E+02 -.439E+02 0.119E+02   0.287E+01 0.465E+01 -.166E+01   0.340E-07 0.689E-07 -.583E-07
   0.305E+02 0.393E+02 -.103E+02   -.334E+02 -.439E+02 0.119E+02   0.287E+01 0.465E+01 -.166E+01   0.344E-07 0.662E-07 -.674E-07
   -.334E+02 -.483E+02 0.173E+02   0.370E+02 0.538E+02 -.192E+02   -.357E+01 -.553E+01 0.189E+01   -.393E-07 -.268E-07 0.473E-07
   -.334E+02 -.483E+02 0.173E+02   0.370E+02 0.538E+02 -.192E+02   -.357E+01 -.553E+01 0.189E+01   -.354E-08 0.119E-07 0.509E-08
   -.334E+02 -.483E+02 0.173E+02   0.370E+02 0.538E+02 -.192E+02   -.357E+01 -.553E+01 0.189E+01   -.130E-07 0.261E-07 0.302E-07
   -.334E+02 -.483E+02 0.173E+02   0.370E+02 0.538E+02 -.192E+02   -.357E+01 -.553E+01 0.189E+01   -.331E-08 0.206E-07 0.358E-08
   -.334E+02 -.483E+02 0.173E+02   0.370E+02 0.538E+02 -.192E+02   -.357E+01 -.553E+01 0.189E+01   -.114E-07 0.206E-07 -.726E-07
   -.334E+02 -.483E+02 0.173E+02   0.370E+02 0.538E+02 -.192E+02   -.357E+01 -.553E+01 0.189E+01   -.342E-08 0.208E-07 -.318E-07
   -.334E+02 -.483E+02 0.173E+02   0.370E+02 0.538E+02 -.192E+02   -.357E+01 -.553E+01 0.189E+01   -.303E-07 -.260E-07 -.558E-07
   -.334E+02 -.483E+02 0.173E+02   0.370E+02 0.538E+02 -.192E+02   -.357E+01 -.553E+01 0.189E+01   -.118E-07 -.405E-08 -.294E-07
   -.335E+02 0.483E+02 0.172E+02   0.370E+02 -.538E+02 -.191E+02   -.358E+01 0.553E+01 0.188E+01   -.167E-07 -.283E-07 0.375E-07
   -.335E+02 0.483E+02 0.172E+02   0.370E+02 -.538E+02 -.191E+02   -.358E+01 0.553E+01 0.188E+01   -.217E-09 -.182E-07 -.347E-08
   -.335E+02 0.483E+02 0.172E+02   0.370E+02 -.538E+02 -.191E+02   -.358E+01 0.553E+01 0.188E+01   -.357E-07 0.290E-07 0.403E-07
   -.335E+02 0.483E+02 0.172E+02   0.370E+02 -.538E+02 -.191E+02   -.358E+01 0.553E+01 0.188E+01   -.652E-08 -.146E-07 0.119E-07
   -.335E+02 0.483E+02 0.172E+02   0.370E+02 -.538E+02 -.191E+02   -.358E+01 0.553E+01 0.188E+01   -.311E-07 0.218E-07 -.623E-07
   -.335E+02 0.483E+02 0.172E+02   0.370E+02 -.538E+02 -.191E+02   -.358E+01 0.553E+01 0.188E+01   -.961E-08 0.559E-08 -.239E-07
   -.335E+02 0.483E+02 0.172E+02   0.370E+02 -.538E+02 -.191E+02   -.358E+01 0.553E+01 0.188E+01   -.109E-07 -.163E-07 -.661E-07
   -.335E+02 0.483E+02 0.172E+02   0.370E+02 -.538E+02 -.191E+02   -.358E+01 0.553E+01 0.188E+01   -.557E-08 -.226E-07 -.371E-07
   0.378E+01 -.737E-01 -.644E+02   -.378E+01 0.813E-01 0.715E+02   -.682E-03 -.762E-02 -.703E+01   -.122E-08 -.325E-08 0.464E-07
   0.378E+01 -.737E-01 -.644E+02   -.378E+01 0.813E-01 0.715E+02   -.682E-03 -.762E-02 -.703E+01   -.227E-07 0.736E-08 -.235E-08
   0.378E+01 -.737E-01 -.644E+02   -.378E+01 0.813E-01 0.715E+02   -.682E-03 -.762E-02 -.703E+01   -.625E-09 0.315E-08 0.434E-07
   0.378E+01 -.737E-01 -.644E+02   -.378E+01 0.813E-01 0.715E+02   -.682E-03 -.762E-02 -.703E+01   -.230E-07 -.739E-08 0.113E-08
   0.378E+01 -.737E-01 -.644E+02   -.378E+01 0.813E-01 0.715E+02   -.682E-03 -.762E-02 -.703E+01   -.546E-07 -.224E-08 -.453E-07
   0.378E+01 -.737E-01 -.644E+02   -.378E+01 0.813E-01 0.715E+02   -.682E-03 -.762E-02 -.703E+01   -.235E-08 0.170E-08 -.150E-07
   0.378E+01 -.737E-01 -.644E+02   -.378E+01 0.813E-01 0.715E+02   -.682E-03 -.762E-02 -.703E+01   -.423E-07 0.228E-08 -.383E-07
   0.378E+01 -.737E-01 -.644E+02   -.378E+01 0.813E-01 0.715E+02   -.682E-03 -.762E-02 -.703E+01   -.145E-07 -.199E-08 -.250E-07
   -.313E+02 0.685E-01 -.117E+02   0.302E+02 -.738E-01 0.114E+02   0.112E+01 0.507E-02 0.280E+00   0.137E-07 -.939E-08 0.196E-06
   -.313E+02 0.685E-01 -.117E+02   0.302E+02 -.738E-01 0.114E+02   0.112E+01 0.507E-02 0.280E+00   0.136E-07 0.374E-08 -.377E-07
   -.313E+02 0.685E-01 -.117E+02   0.302E+02 -.738E-01 0.114E+02   0.112E+01 0.507E-02 0.280E+00   -.850E-07 0.124E-07 -.265E-06
   -.313E+02 0.685E-01 -.117E+02   0.302E+02 -.738E-01 0.114E+02   0.112E+01 0.507E-02 0.280E+00   0.513E-07 -.415E-08 -.224E-06
   -.313E+02 0.685E-01 -.117E+02   0.302E+02 -.738E-01 0.114E+02   0.112E+01 0.507E-02 0.280E+00   -.203E-07 0.110E-06 -.275E-06
   -.313E+02 0.685E-01 -.117E+02   0.302E+02 -.738E-01 0.114E+02   0.112E+01 0.507E-02 0.280E+00   0.866E-07 -.596E-07 -.569E-07
   -.313E+02 0.685E-01 -.117E+02   0.302E+02 -.738E-01 0.114E+02   0.112E+01 0.507E-02 0.280E+00   -.136E-06 -.142E-06 0.127E-06
   -.313E+02 0.685E-01 -.117E+02   0.302E+02 -.738E-01 0.114E+02   0.112E+01 0.507E-02 0.280E+00   0.153E-06 0.130E-06 0.229E-06
   -.173E+02 0.396E-01 0.563E+01   0.175E+02 -.404E-01 -.556E+01   -.165E+00 0.626E-03 -.665E-01   -.191E-07 0.186E-07 0.395E-06
   -.173E+02 0.396E-01 0.563E+01   0.175E+02 -.404E-01 -.556E+01   -.165E+00 0.626E-03 -.665E-01   -.370E-08 -.167E-07 0.200E-06
   -.173E+02 0.396E-01 0.563E+01   0.175E+02 -.404E-01 -.556E+01   -.165E+00 0.626E-03 -.665E-01   -.376E-07 -.194E-07 0.322E-06
   -.173E+02 0.396E-01 0.563E+01   0.175E+02 -.404E-01 -.556E+01   -.165E+00 0.626E-03 -.665E-01   0.189E-07 0.186E-07 0.634E-07
   -.173E+02 0.396E-01 0.563E+01   0.175E+02 -.404E-01 -.556E+01   -.165E+00 0.626E-03 -.665E-01   -.180E-07 0.117E-07 -.421E-06
   -.173E+02 0.396E-01 0.563E+01   0.175E+02 -.404E-01 -.556E+01   -.165E+00 0.626E-03 -.665E-01   0.166E-07 -.874E-08 -.213E-06
   -.173E+02 0.396E-01 0.563E+01   0.175E+02 -.404E-01 -.556E+01   -.165E+00 0.626E-03 -.665E-01   -.494E-07 -.124E-07 -.345E-06
   -.173E+02 0.396E-01 0.563E+01   0.175E+02 -.404E-01 -.556E+01   -.165E+00 0.626E-03 -.665E-01   0.399E-07 0.959E-08 -.951E-07
   -.143E+02 -.543E-01 -.162E+02   0.142E+02 0.556E-01 0.168E+02   0.714E-01 -.969E-03 -.591E+00   -.362E-07 -.596E-07 0.586E-07
   -.143E+02 -.543E-01 -.162E+02   0.142E+02 0.556E-01 0.168E+02   0.714E-01 -.969E-03 -.591E+00   0.400E-07 -.586E-07 0.866E-07
   -.143E+02 -.543E-01 -.162E+02   0.142E+02 0.556E-01 0.168E+02   0.714E-01 -.969E-03 -.591E+00   -.384E-07 0.654E-07 0.618E-07
   -.143E+02 -.543E-01 -.162E+02   0.142E+02 0.556E-01 0.168E+02   0.714E-01 -.969E-03 -.591E+00   0.432E-07 0.490E-07 0.809E-07
   -.143E+02 -.543E-01 -.162E+02   0.142E+02 0.556E-01 0.168E+02   0.714E-01 -.969E-03 -.591E+00   -.973E-08 0.465E-07 -.145E-07
   -.143E+02 -.543E-01 -.162E+02   0.142E+02 0.556E-01 0.168E+02   0.714E-01 -.969E-03 -.591E+00   0.174E-07 0.898E-07 -.151E-07
   -.143E+02 -.543E-01 -.162E+02   0.142E+02 0.556E-01 0.168E+02   0.714E-01 -.969E-03 -.591E+00   -.777E-08 -.471E-07 -.138E-07
   -.143E+02 -.543E-01 -.162E+02   0.142E+02 0.556E-01 0.168E+02   0.714E-01 -.969E-03 -.591E+00   0.161E-07 -.899E-07 -.143E-07
   0.365E+01 0.111E-01 -.251E+01   -.311E+01 -.106E-01 0.210E+01   -.540E+00 -.602E-03 0.411E+00   0.412E-07 0.827E-11 0.889E-07
   0.365E+01 0.111E-01 -.251E+01   -.311E+01 -.106E-01 0.210E+01   -.540E+00 -.602E-03 0.411E+00   -.256E-07 0.157E-08 0.610E-07
   0.365E+01 0.111E-01 -.251E+01   -.311E+01 -.106E-01 0.210E+01   -.540E+00 -.602E-03 0.411E+00   0.109E-06 0.364E-09 -.317E-07
   0.365E+01 0.111E-01 -.251E+01   -.311E+01 -.106E-01 0.210E+01   -.540E+00 -.602E-03 0.411E+00   -.825E-07 -.150E-08 -.437E-07
   0.365E+01 0.111E-01 -.251E+01   -.311E+01 -.106E-01 0.210E+01   -.540E+00 -.602E-03 0.411E+00   -.153E-06 0.658E-08 -.913E-07
   0.365E+01 0.111E-01 -.251E+01   -.311E+01 -.106E-01 0.210E+01   -.540E+00 -.602E-03 0.411E+00   0.152E-06 -.379E-08 -.781E-07
   0.365E+01 0.111E-01 -.251E+01   -.311E+01 -.106E-01 0.210E+01   -.540E+00 -.602E-03 0.411E+00   -.166E-06 -.576E-08 0.299E-07
   0.365E+01 0.111E-01 -.251E+01   -.311E+01 -.106E-01 0.210E+01   -.540E+00 -.602E-03 0.411E+00   0.175E-06 0.404E-08 0.377E-07
 -----------------------------------------------------------------------------------------------
   -.531E+02 -.109E+00 -.240E+02   0.739E-12 0.289E-12 0.394E-12   0.531E+02 0.109E+00 0.240E+02   -.243E-05 0.341E-07 -.155E-05
 
 
 POSITION                                       TOTAL-FORCE (eV/Angst)
 -----------------------------------------------------------------------------------
      2.50978      3.11364      2.94512        -0.000532     -0.000030      0.001623
      8.79819      3.11460      3.01422        -0.000532     -0.000030      0.001623
      2.51037      9.34241      2.94474        -0.000532     -0.000030      0.001623
      8.79879      9.34337      3.01384        -0.000532     -0.000030      0.001623
      2.57948      3.11368      9.31883        -0.000532     -0.000030      0.001623
      8.86790      3.11464      9.38793        -0.000532     -0.000030      0.001623
      2.58008      9.34245      9.31846        -0.000532     -0.000030      0.001623
      8.86850      9.34341      9.38755        -0.000532     -0.000030      0.001623
      3.86860      3.11504      3.53322         0.002223     -0.000094     -0.000236
     10.15702      3.11600      3.60232         0.002223     -0.000094     -0.000236
      3.86919      9.34381      3.53285         0.002223     -0.000094     -0.000236
     10.15761      9.34476      3.60194         0.002223     -0.000094     -0.000236
      3.93830      3.11508      9.90693         0.002223     -0.000094     -0.000236
     10.22672      3.11604      9.97603         0.002223     -0.000094     -0.000236
      3.93890      9.34385      9.90656         0.002223     -0.000094     -0.000236
     10.22732      9.34481      9.97565         0.002223     -0.000094     -0.000236
      2.59942      3.11256      1.84962        -0.000665     -0.000011      0.000618
      8.88783      3.11352      1.91872        -0.000665     -0.000011      0.000618
      2.60001      9.34133      1.84924        -0.000665     -0.000011      0.000618
      8.88843      9.34229      1.91834        -0.000665     -0.000011      0.000618
      2.66912      3.11261      8.22333        -0.000665     -0.000011      0.000618
      8.95754      3.11356      8.29243        -0.000665     -0.000011      0.000618
      2.66972      9.34138      8.22295        -0.000665     -0.000011      0.000618
      8.95814      9.34233      8.29205        -0.000665     -0.000011      0.000618
      1.97709      4.01603      3.27825         0.000294      0.000084      0.001681
      8.26551      4.01699      3.34735         0.000294      0.000084      0.001681
      1.97769     10.24480      3.27788         0.000294      0.000084      0.001681
      8.26611     10.24576      3.34698         0.000294      0.000084      0.001681
      2.04679      4.01608      9.65196         0.000294      0.000084      0.001681
      8.33521      4.01704      9.72106         0.000294      0.000084      0.001681
      2.04739     10.24485      9.65159         0.000294      0.000084      0.001681
      8.33581     10.24580      9.72069         0.000294      0.000084      0.001681
      1.97826      2.21123      3.28010         0.000196      0.000148      0.001609
      8.26667      2.21219      3.34920         0.000196      0.000148      0.001609
      1.97885      8.44000      3.27973         0.000196      0.000148      0.001609
      8.26727      8.44096      3.34882         0.000196      0.000148      0.001609
      2.04796      2.21128      9.65381         0.000196      0.000148      0.001609
      8.33638      2.21224      9.72291         0.000196      0.000148      0.001609
      2.04856      8.44005      9.65344         0.000196      0.000148      0.001609
      8.33698      8.44101      9.72253         0.000196      0.000148      0.001609
      4.41377      3.96062      3.24437         0.000962      0.000227      0.000081
     10.70219      3.96158      3.31347         0.000962      0.000227      0.000081
      4.41437     10.18939      3.24400         0.000962      0.000227      0.000081
     10.70279     10.19035      3.31310         0.000962      0.000227      0.000081
      4.48348      3.96066      9.61808         0.000962      0.000227      0.000081
     10.77189      3.96162      9.68718         0.000962      0.000227      0.000081
      4.48407     10.18943      9.61771         0.000962      0.000227      0.000081
     10.77249     10.19039      9.68681         0.000962      0.000227      0.000081
      4.41452      2.26927      3.24620         0.000939     -0.000086     -0.000159
     10.70293      2.27023      3.31530         0.000939     -0.000086     -0.000159
      4.41511      8.49804      3.24582         0.000939     -0.000086     -0.000159
     10.70353      8.49900      3.31492         0.000939     -0.000086     -0.000159
      4.48422      2.26931      9.61991         0.000939     -0.000086     -0.000159
     10.77264      2.27027      9.68901         0.000939     -0.000086     -0.000159
      4.48482      8.49808      9.61953         0.000939     -0.000086     -0.000159
     10.77324      8.49904      9.68863         0.000939     -0.000086     -0.000159
      3.86280      3.11616      4.57481         0.001390     -0.000048      0.000271
     10.15121      3.11712      4.64391         0.001390     -0.000048      0.000271
      3.86339      9.34493      4.57444         0.001390     -0.000048      0.000271
     10.15181      9.34589      4.64354         0.001390     -0.000048      0.000271
      3.93250      3.11621     10.94852         0.001390     -0.000048      0.000271
     10.22092      3.11716     11.01762         0.001390     -0.000048      0.000271
      3.93310      9.34498     10.94815         0.001390     -0.000048      0.000271
     10.22152      9.34593     11.01725         0.001390     -0.000048      0.000271
      6.01057      6.22959      6.29600        -0.000993     -0.000206      0.002529
     12.29899      6.23055      6.36510        -0.000993     -0.000206      0.002529
      6.01116     12.45836      6.29563        -0.000993     -0.000206      0.002529
     12.29958     12.45932      6.36473        -0.000993     -0.000206      0.002529
      6.08027      6.22964     12.66971        -0.000993     -0.000206      0.002529
     12.36869      6.23059     12.73881        -0.000993     -0.000206      0.002529
      6.08087     12.45840     12.66934        -0.000993     -0.000206      0.002529
     12.36929     12.45936     12.73844        -0.000993     -0.000206      0.002529
      5.75296      6.22955      3.09091        -0.000733     -0.000164     -0.004127
     12.04137      6.23051      3.16001        -0.000733     -0.000164     -0.004127
      5.75355     12.45832      3.09054        -0.000733     -0.000164     -0.004127
     12.04197     12.45928      3.15964        -0.000733     -0.000164     -0.004127
      5.82266      6.22959      9.46462        -0.000733     -0.000164     -0.004127
     12.11108      6.23055      9.53372        -0.000733     -0.000164     -0.004127
      5.82326     12.45836      9.46425        -0.000733     -0.000164     -0.004127
     12.11168     12.45932      9.53335        -0.000733     -0.000164     -0.004127
      5.65694      3.11499      0.21278        -0.001791      0.000330     -0.005113
     11.94536      3.11594      0.28188        -0.001791      0.000330     -0.005113
      5.65754      9.34375      0.21241        -0.001791      0.000330     -0.005113
     11.94596      9.34471      0.28151        -0.001791      0.000330     -0.005113
      5.72665      3.11503      6.58649        -0.001791      0.000330     -0.005113
     12.01506      3.11599      6.65559        -0.001791      0.000330     -0.005113
      5.72724      9.34380      6.58612        -0.001791      0.000330     -0.005113
     12.01566      9.34476      6.65522        -0.001791      0.000330     -0.005113
      2.78365      6.22919      5.90912        -0.001292     -0.000150      0.001222
      9.07207      6.23015      5.97822        -0.001292     -0.000150      0.001222
      2.78425     12.45796      5.90874        -0.001292     -0.000150      0.001222
      9.07267     12.45892      5.97784        -0.001292     -0.000150      0.001222
      2.85336      6.22924     12.28283        -0.001292     -0.000150      0.001222
      9.14178      6.23019     12.35193        -0.001292     -0.000150      0.001222
      2.85396     12.45801     12.28246        -0.001292     -0.000150      0.001222
      9.14237     12.45896     12.35155        -0.001292     -0.000150      0.001222
 -----------------------------------------------------------------------------------
    total drift:                                0.004564     -0.000037     -0.001064


--------------------------------------------------------------------------------------------------------



  FREE ENERGIE OF THE ION-ELECTRON SYSTEM (eV)
  ---------------------------------------------------
  free  energy   TOTEN  =      -416.82375334 eV

  energy  without entropy=     -416.82375334  energy(sigma->0) =     -416.82375334
 


--------------------------------------------------------------------------------------------------------


    POTLOK:  cpu time    1.2441: real time    1.2475


--------------------------------------------------------------------------------------------------------


     LOOP+:  cpu time 2779.9737: real time 2783.0094
    4ORBIT:  cpu time    0.0000: real time    0.0000

 total amount of memory used by VASP on root node   697522. kBytes
========================================================================

   base      :      30000. kBytes
   nonl-proj :     325712. kBytes
   fftplans  :      80881. kBytes
   grid      :      57435. kBytes
   one-center:        497. kBytes
   wavefun   :     202997. kBytes
 
  
  
 General timing and accounting informations for this job:
 ========================================================
  
                  Total CPU time used (sec):     2809.576
                            User time (sec):     2808.308
                          System time (sec):        1.268
                         Elapsed time (sec):     2814.875
  
                   Maximum memory used (kb):      646440.
                   Average memory used (kb):           0.
  
                          Minor page faults:       264003
                          Major page faults:            0
                 Voluntary context switches:         1060
