 running on   96 total cores
 distrk:  each k-point on   24 cores,    4 groups
 distr:  one band on    3 cores,    8 groups
 using from now: INCAR     
 vasp.5.4.1 24Jun15 (build Nov 25 2015 16:01:35) complex                        
  
 POSCAR found type information on POSCAR  C  N  H  Pb I 
 POSCAR found :  5 types and      96 ions
 scaLAPACK will be used

 ----------------------------------------------------------------------------- 
|                                                                             |
|           W    W    AA    RRRRR   N    N  II  N    N   GGGG   !!!           |
|           W    W   A  A   R    R  NN   N  II  NN   N  G    G  !!!           |
|           W    W  A    A  R    R  N N  N  II  N N  N  G       !!!           |
|           W WW W  AAAAAA  RRRRR   N  N N  II  N  N N  G  GGG   !            |
|           WW  WW  A    A  R   R   N   NN  II  N   NN  G    G                |
|           W    W  A    A  R    R  N    N  II  N    N   GGGG   !!!           |
|                                                                             |
|      For optimal performance we recommend to set                            |
|        NCORE= 4 - approx SQRT( number of cores)                             |
|      NCORE specifies how many cores store one orbital (NPAR=cpu/NCORE).     |
|      This setting can  greatly improve the performance of VASP for DFT.     |
|      The default, NPAR=number of cores might be grossly inefficient         |
|      on modern multi-core architectures or massively parallel machines.     |
|      Do your own testing !!!!                                               |
|      Unfortunately you need to use the default for GW and RPA calculations. |
|      (for HF NCORE is supported but not extensively tested yet)             |
|                                                                             |
 ----------------------------------------------------------------------------- 


 ----------------------------------------------------------------------------- 
|                                                                             |
|           W    W    AA    RRRRR   N    N  II  N    N   GGGG   !!!           |
|           W    W   A  A   R    R  NN   N  II  NN   N  G    G  !!!           |
|           W    W  A    A  R    R  N N  N  II  N N  N  G       !!!           |
|           W WW W  AAAAAA  RRRRR   N  N N  II  N  N N  G  GGG   !            |
|           WW  WW  A    A  R   R   N   NN  II  N   NN  G    G                |
|           W    W  A    A  R    R  N    N  II  N    N   GGGG   !!!           |
|                                                                             |
|      You have enabled k-point parallelism (KPAR>1).                         |
|      This developmental code was originally  written by Paul Kent at ORNL,  |
|      and carefully double checked in Vienna.                                |
|      GW as well as linear response parallelism added by Martijn Marsman     |
|      and Georg Kresse.                                                      |
|      Carefully verify results versus KPAR=1.                                |
|      Report problems to Paul Kent and Vienna.                               |
|                                                                             |
 ----------------------------------------------------------------------------- 


 ----------------------------------------------------------------------------- 
|                                                                             |
|  ADVICE TO THIS USER RUNNING 'VASP/VAMP'   (HEAR YOUR MASTER'S VOICE ...):  |
|                                                                             |
|      You have a (more or less) 'large supercell' and for larger cells       |
|      it might be more efficient to use real space projection opertators     |
|      So try LREAL= Auto  in the INCAR   file.                               |
|      Mind: At the moment your POTCAR file does not contain real space       |
|       projectors, and has to be modified,  BUT if you                       |
|      want to do an extremely  accurate calculation you might also keep the  |
|      reciprocal projection scheme          (i.e. LREAL=.FALSE.)             |
|                                                                             |
 ----------------------------------------------------------------------------- 


 ----------------------------------------------------------------------------- 
|                                                                             |
|  ADVICE TO THIS USER RUNNING 'VASP/VAMP'   (HEAR YOUR MASTER'S VOICE ...):  |
|                                                                             |
|      You enforced a specific xc-type in the INCAR file,                     |
|      a different type was found on the POTCAR file                          |
|          I HOPE YOU KNOW, WHAT YOU ARE  DOING                               |
|                                                                             |
 ----------------------------------------------------------------------------- 

 LDA part: xc-table for Pade appr. of Perdew
 POSCAR, INCAR and KPOINTS ok, starting setup
 WARNING: small aliasing (wrap around) errors must be expected
 FFT: planning ...
 WAVECAR not read
 entering main loop
       N       E                     dE             d eps       ncg     rms          rms(c)
DAV:   1     0.360373829670E+04    0.36037E+04   -0.18949E+05  7176   0.170E+03
DAV:   2     0.199447586081E+03   -0.34043E+04   -0.32102E+04  7992   0.355E+02
DAV:   3    -0.398834824797E+03   -0.59828E+03   -0.58926E+03  9488   0.172E+02
DAV:   4    -0.438760505814E+03   -0.39926E+02   -0.39753E+02  9648   0.488E+01
DAV:   5    -0.440238765876E+03   -0.14783E+01   -0.14761E+01  9768   0.908E+00    0.298E+01
DAV:   6    -0.419538947900E+03    0.20700E+02   -0.41921E+01  9432   0.103E+01    0.158E+01
DAV:   7    -0.417052619190E+03    0.24863E+01   -0.14591E+01 10232   0.636E+00    0.785E+00
DAV:   8    -0.416880372924E+03    0.17225E+00   -0.30088E+00  8640   0.315E+00    0.181E+00
DAV:   9    -0.416810615711E+03    0.69757E-01   -0.74010E-01  9408   0.173E+00    0.727E-01
DAV:  10    -0.416821867886E+03   -0.11252E-01   -0.10177E-01  9000   0.563E-01    0.439E-01
DAV:  11    -0.416822130740E+03   -0.26285E-03   -0.12590E-02  9840   0.262E-01    0.192E-01
DAV:  12    -0.416823532719E+03   -0.14020E-02   -0.88015E-03  9800   0.149E-01    0.105E-01
DAV:  13    -0.416823665099E+03   -0.13238E-03   -0.13258E-03  8464   0.749E-02    0.697E-02
DAV:  14    -0.416823706010E+03   -0.40911E-04   -0.27448E-04  8536   0.289E-02    0.287E-02
DAV:  15    -0.416823749501E+03   -0.43491E-04   -0.13183E-04  8096   0.190E-02    0.112E-02
DAV:  16    -0.416823753319E+03   -0.38186E-05   -0.13474E-05 10520   0.698E-03    0.113E-02
DAV:  17    -0.416823753316E+03    0.32596E-08   -0.44499E-06  8120   0.368E-03    0.461E-03
DAV:  18    -0.416823753365E+03   -0.48352E-07   -0.73251E-06 10400   0.420E-03    0.375E-03
DAV:  19    -0.416823753302E+03    0.62664E-07   -0.68747E-07  8256   0.194E-03    0.229E-03
DAV:  20    -0.416823753312E+03   -0.10281E-07   -0.45512E-07  9472   0.102E-03    0.461E-04
DAV:  21    -0.416823753345E+03   -0.33313E-07   -0.43877E-08  8760   0.413E-04    0.293E-04
DAV:  22    -0.416823753337E+03    0.88294E-08   -0.40391E-09  8176   0.171E-04    0.225E-04
DAV:  23    -0.416823753338E+03   -0.16153E-08    0.13414E-09  8704   0.809E-05    0.237E-04
DAV:  24    -0.416823753337E+03    0.16662E-08    0.15622E-09  7104   0.441E-05    0.215E-04
DAV:  25    -0.416823753335E+03    0.13570E-08    0.18663E-09  6544   0.453E-05    0.219E-04
DAV:  26    -0.416823753336E+03   -0.85493E-09    0.18283E-09  4648   0.267E-05    0.215E-04
DAV:  27    -0.416823753337E+03   -0.12151E-08    0.16856E-09  4800   0.281E-05    0.211E-04
DAV:  28    -0.416823753338E+03   -0.52751E-09    0.18600E-09  4216   0.190E-05    0.211E-04
DAV:  29    -0.416823753338E+03   -0.62209E-09    0.15912E-09  4208   0.937E-06    0.211E-04
DAV:  30    -0.416823753338E+03    0.34561E-09    0.14260E-09  4208   0.700E-06    0.211E-04
DAV:  31    -0.416823753338E+03    0.17099E-09    0.14091E-09  4208   0.557E-06    0.211E-04
DAV:  32    -0.416823753338E+03   -0.28740E-09    0.11823E-09  4208   0.580E-06    0.211E-04
DAV:  33    -0.416823753338E+03   -0.47294E-10    0.98340E-10  4208   0.308E-06
   1 F= -.41682375E+03 E0= -.41682375E+03  d E =0.000000E+00
Application 22454143 resources: utime ~269622s, stime ~248s, Rss ~646440, inblocks ~882016, outblocks ~776284
