Name                                    
   5.65360000000000     
     0.500000    0.500000    0.000000
     0.500000    0.000000   -0.500000
     0.000000    0.500000   -0.500000
   Ga   As
     1     1
Direct
  0.000000  0.000000  0.000000
  0.250000  0.250000  0.250000
 
   60   60   60
  744.96      732.54      696.44      639.90      567.82      485.99      400.45      316.78      239.66      172.64    
  117.91      76.359      47.506      29.690      20.293      16.134      14.021      12.423      11.205      10.275    
  9.5532      8.9811      8.5223      8.1541      7.8611      7.6320      7.4573      7.3290      7.2412      7.1899    
  7.1730      7.1899      7.2412      7.3290      7.4573      7.6320      7.8611      8.1541      8.5223      8.9811    
  9.5532      10.275      11.205      12.423      14.021      16.134      20.293      29.690      47.506      76.359    
  117.91      172.64      239.66      316.78      400.45      485.99      567.82      639.90      696.44      732.54    
  732.54      708.23      661.85      597.51      520.62      437.15      352.91      273.04      201.63      141.51    
  94.172      59.783      37.239      24.359      18.206      15.529      13.763      12.415      11.394      10.612    
  10.001      9.5157      9.1272      8.8179      8.5750      8.3881      8.2485      8.1494      8.0857      8.0545    
  8.0545      8.0857      8.1494      8.2485      8.3881      8.5750      8.8179      9.1272      9.5157      10.001    
  10.612      11.394      12.415      13.763      15.529      18.206      24.359      37.239      59.783      94.172    
  141.51      201.63      273.04      352.91      437.15      520.62      597.51      661.85      708.23      732.54    
  696.44      661.85      607.71      538.74      460.55      378.93      299.25      226.03      162.61      111.09    
  72.208      45.455      29.146      20.703      17.031      15.098      13.631      12.526      11.691      11.048    
  10.544      10.144      9.8262      9.5765      9.3838      9.2386      9.1331      9.0614      9.0197      9.0060    
  9.0197      9.0614      9.1331      9.2386      9.3838      9.5765      9.8262      10.144      10.544      11.048    
  11.691      12.526      13.631      15.098      17.031      20.703      29.146      45.455      72.208      111.09    
  162.61      226.03      299.25      378.93      460.55      538.74      607.71      661.85      696.44      708.34    
  639.90      597.51      538.74      468.59      392.55      315.99      243.66      179.30      125.51      83.569    
  53.529      34.231      23.527      18.595      16.378      14.816      13.641      12.762      12.098      11.585    
  11.184      10.868      10.620      10.430      10.287      10.181      10.108      10.061      10.038      10.038    
  10.061      10.108      10.181      10.287      10.430      10.620      10.868      11.184      11.585      12.098    
  12.762      13.641      14.816      16.378      18.595      23.527      34.231      53.529      83.569      125.51    
  179.30      243.66      315.99      392.55      468.59      538.74      597.51      639.90      662.13      662.13    
  567.82      520.62      460.55      392.55      321.74      252.90      190.01      136.01      92.690      60.584    
  39.056      26.420      20.210      17.552      15.927      14.701      13.794      13.121      12.612      12.222    
  11.919      11.686      11.508      11.376      11.279      11.211      11.166      11.139      11.131      11.139    
  11.166      11.211      11.279      11.376      11.508      11.686      11.919      12.222      12.612      13.121    
  13.794      14.701      15.927      17.552      20.210      26.420      39.056      60.584      92.690      136.01    
  190.01      252.90      321.74      392.55      460.55      520.62      567.82      597.99      608.37      597.99    
  485.99      437.15      378.93      315.99      252.90      193.70      141.55      98.595      65.810      43.032    
  29.037      21.754      18.586      16.917      15.669      14.753      14.086      13.595      13.229      12.954    
  12.747      12.594      12.484      12.406      12.353      12.318      12.297      12.286      12.286      12.297    
  12.318      12.353      12.406      12.484      12.594      12.747      12.954      13.229      13.595      14.086    
  14.753      15.669      16.917      18.586      21.754      29.037      43.032      65.810      98.595      141.55    
  193.70      252.90      315.99      378.93      437.15      485.99      521.27      539.77      539.77      521.27    
  400.45      352.91      299.25      243.66      190.01      141.55      100.64      68.589      45.649      31.024    
  23.050      19.452      17.742      16.503      15.601      14.959      14.502      14.176      13.941      13.774    
  13.660      13.585      13.539      13.512      13.498      13.491      13.487      13.486      13.487      13.491    
  13.498      13.512      13.539      13.585      13.660      13.774      13.941      14.176      14.502      14.959    
  15.601      16.503      17.742      19.452      23.050      31.024      45.649      68.589      100.64      141.55    
  190.01      243.66      299.25      352.91      400.45      437.87      461.82      470.06      461.82      437.87    
  316.78      273.04      226.03      179.30      136.01      98.595      68.589      46.561      32.097      23.915    
  20.089      18.362      17.166      16.305      15.707      15.301      15.028      14.849      14.738      14.676    
  14.650      14.648      14.662      14.680      14.699      14.712      14.719      14.719      14.712      14.699    
  14.680      14.662      14.648      14.650      14.676      14.738      14.849      15.028      15.301      15.707    
  16.305      17.166      18.362      20.089      23.915      32.097      46.561      68.589      98.595      136.01    
  179.30      226.03      273.04      316.78      353.60      380.24      394.23      394.23      380.24      353.60    
  239.66      201.63      162.61      125.51      92.690      65.810      45.649      32.097      24.220      20.428    
  18.747      17.628      16.832      16.299      15.959      15.756      15.647      15.605      15.609      15.646    
  15.704      15.771      15.837      15.894      15.937      15.964      15.973      15.964      15.937      15.894    
  15.837      15.771      15.704      15.646      15.609      15.605      15.647      15.756      15.959      16.299    
  16.832      17.628      18.747      20.428      24.220      32.097      45.649      65.810      92.690      125.51    
  162.61      201.63      239.66      273.58      300.39      317.58      323.50      317.58      300.39      273.58    
  172.64      141.51      111.09      83.569      60.584      43.032      31.024      23.915      20.428      18.878    
  17.865      17.160      16.709      16.451      16.330      16.304      16.343      16.428      16.543      16.674    
  16.809      16.936      17.046      17.133      17.191      17.219      17.219      17.191      17.133      17.046    
  16.936      16.809      16.674      16.543      16.428      16.343      16.304      16.330      16.451      16.709    
  17.160      17.865      18.878      20.428      23.915      31.024      43.032      60.584      83.569      111.09    
  141.51      172.64      201.93      226.78      244.84      254.35      254.35      244.84      226.78      201.93    
  117.91      94.172      72.208      53.529      39.056      29.037      23.050      20.089      18.747      17.865    
  17.270      16.919      16.755      16.727      16.794      16.926      17.102      17.306      17.523      17.741    
  17.944      18.120      18.258      18.354      18.410      18.428      18.410      18.354      18.258      18.120    
  17.944      17.741      17.523      17.306      17.102      16.926      16.794      16.727      16.755      16.919    
  17.270      17.865      18.747      20.089      23.050      29.037      39.056      53.529      72.208      94.172    
  117.91      141.51      162.83      179.84      190.80      194.59      190.80      179.84      162.83      141.51    
  76.359      59.783      45.455      34.231      26.420      21.754      19.452      18.362      17.628      17.160    
  16.919      16.858      16.930      17.096      17.328      17.604      17.907      18.223      18.534      18.825    
  19.073      19.267      19.407      19.495      19.537      19.537      19.495      19.407      19.267      19.073    
  18.825      18.534      18.223      17.907      17.604      17.328      17.096      16.930      16.858      16.919    
  17.160      17.628      18.362      19.452      21.754      26.420      34.231      45.455      59.783      76.359    
  93.872      110.73      125.25      135.91      141.56      141.56      135.91      125.25      110.73      93.872    
  47.506      37.239      29.146      23.527      20.210      18.586      17.742      17.166      16.832      16.709    
  16.755      16.930      17.198      17.533      17.914      18.323      18.744      19.159      19.543      19.870    
  20.128      20.316      20.440      20.510      20.532      20.510      20.440      20.316      20.128      19.870    
  19.543      19.159      18.744      18.323      17.914      17.533      17.198      16.930      16.755      16.709    
  16.832      17.166      17.742      18.586      20.210      23.527      29.146      37.239      47.506      59.213    
  71.294      82.504      91.601      97.533      99.592      97.533      91.601      82.504      71.294      59.213    
  29.690      24.359      20.703      18.595      17.552      16.917      16.503      16.305      16.299      16.451    
  16.727      17.096      17.533      18.019      18.535      19.065      19.590      20.074      20.487      20.816    
  21.058      21.223      21.323      21.370      21.370      21.323      21.223      21.058      20.816      20.487    
  20.074      19.590      19.065      18.535      18.019      17.533      17.096      16.727      16.451      16.299    
  16.305      16.503      16.917      17.552      18.595      20.703      24.359      29.690      36.452      44.071    
  51.741      58.557      63.664      66.399      66.399      63.664      58.557      51.741      44.071      36.452    
  20.293      18.206      17.031      16.378      15.927      15.669      15.601      15.707      15.959      16.330    
  16.794      17.328      17.914      18.535      19.174      19.809      20.399      20.907      21.315      21.620    
  21.833      21.968      22.041      22.065      22.041      21.968      21.833      21.620      21.315      20.907    
  20.399      19.809      19.174      18.535      17.914      17.328      16.794      16.330      15.959      15.707    
  15.601      15.669      15.927      16.378      17.031      18.206      20.293      23.412      27.402      31.860    
  36.231      39.911      42.366      43.227      42.366      39.911      36.231      31.860      27.402      23.412    
  16.134      15.529      15.098      14.816      14.701      14.753      14.959      15.301      15.756      16.304    
  16.926      17.604      18.323      19.065      19.809      20.508      21.119      21.617      21.996      22.267    
  22.444      22.549      22.597      22.597      22.549      22.444      22.267      21.996      21.617      21.119    
  20.508      19.809      19.065      18.323      17.604      16.926      16.304      15.756      15.301      14.959    
  14.753      14.701      14.816      15.098      15.529      16.134      17.145      18.697      20.719      22.972    
  25.117      26.798      27.721      27.721      26.798      25.117      22.972      20.719      18.697      17.145    
  14.021      13.763      13.631      13.641      13.794      14.086      14.502      15.028      15.647      16.343    
  17.102      17.907      18.744      19.590      20.399      21.119      21.718      22.185      22.525      22.757    
  22.902      22.979      23.003      22.979      22.902      22.757      22.525      22.185      21.718      21.119    
  20.399      19.590      18.744      17.907      17.102      16.343      15.647      15.028      14.502      14.086    
  13.794      13.641      13.631      13.763      14.021      14.380      14.830      15.462      16.290      17.211    
  18.056      18.651      18.865      18.651      18.056      17.211      16.290      15.462      14.830      14.380    
  12.423      12.415      12.526      12.762      13.121      13.595      14.176      14.849      15.605      16.428    
  17.306      18.223      19.159      20.074      20.907      21.617      22.185      22.611      22.912      23.108    
  23.223      23.276      23.276      23.223      23.108      22.912      22.611      22.185      21.617      20.907    
  20.074      19.159      18.223      17.306      16.428      15.605      14.849      14.176      13.595      13.121    
  12.762      12.526      12.415      12.423      12.535      12.731      12.982      13.257      13.543      13.833    
  14.077      14.218      14.218      14.077      13.833      13.543      13.257      12.982      12.731      12.535    
  11.205      11.394      11.691      12.098      12.612      13.229      13.941      14.738      15.609      16.543    
  17.523      18.534      19.543      20.487      21.315      21.996      22.525      22.912      23.176      23.342    
  23.431      23.459      23.431      23.342      23.176      22.912      22.525      21.996      21.315      20.487    
  19.543      18.534      17.523      16.543      15.609      14.738      13.941      13.229      12.612      12.098    
  11.691      11.394      11.205      11.116      11.115      11.182      11.297      11.435      11.572      11.687    
  11.763      11.790      11.763      11.687      11.572      11.435      11.297      11.182      11.115      11.116    
  10.275      10.612      11.048      11.585      12.222      12.954      13.774      14.676      15.646      16.674    
  17.741      18.825      19.870      20.816      21.620      22.267      22.757      23.108      23.342      23.482    
  23.547      23.547      23.482      23.342      23.108      22.757      22.267      21.620      20.816      19.870    
  18.825      17.741      16.674      15.646      14.676      13.774      12.954      12.222      11.585      11.048    
  10.612      10.275      10.033      9.8752      9.7909      9.7651      9.7809      9.8209      9.8684      9.9090    
  9.9322      9.9322      9.9091      9.8684      9.8209      9.7809      9.7651      9.7909      9.8752      10.033    
  9.5532      10.001      10.544      11.184      11.919      12.747      13.660      14.650      15.704      16.809    
  17.944      19.073      20.128      21.058      21.833      22.444      22.902      23.223      23.431      23.547    
  23.584      23.547      23.431      23.223      22.902      22.444      21.833      21.058      20.128      19.073    
  17.944      16.809      15.704      14.650      13.660      12.747      11.919      11.184      10.544      10.001    
  9.5532      9.1952      8.9203      8.7192      8.5811      8.4943      8.4462      8.4246      8.4184      8.4186    
  8.4193      8.4186      8.4184      8.4246      8.4462      8.4943      8.5811      8.7192      8.9203      9.1952    
  8.9811      9.5157      10.144      10.868      11.686      12.594      13.585      14.648      15.771      16.936    
  18.120      19.267      20.316      21.223      21.968      22.549      22.979      23.276      23.459      23.547    
  23.547      23.459      23.276      22.979      22.549      21.968      21.223      20.316      19.267      18.120    
  16.936      15.771      14.648      13.585      12.594      11.686      10.868      10.144      9.5157      8.9811    
  8.5355      8.1722      7.8833      7.6596      7.4920      7.3711      7.2879      7.2341      7.2027      7.1884    
  7.1884      7.2027      7.2341      7.2879      7.3711      7.4920      7.6596      7.8833      8.1722      8.5355    
  8.5223      9.1272      9.8262      10.620      11.508      12.484      13.539      14.662      15.837      17.046    
  18.258      19.407      20.440      21.323      22.041      22.597      23.003      23.276      23.431      23.482    
  23.431      23.276      23.003      22.597      22.041      21.323      20.440      19.407      18.258      17.046    
  15.837      14.662      13.539      12.484      11.508      10.620      9.8262      9.1272      8.5223      8.0072    
  7.5755      7.2194      6.9306      6.7009      6.5224      6.3881      6.2914      6.2268      6.1899      6.1779    
  6.1899      6.2268      6.2914      6.3881      6.5224      6.7009      6.9306      7.2194      7.5755      8.0072    
  8.1541      8.8179      9.5765      10.430      11.376      12.406      13.512      14.680      15.894      17.133    
  18.354      19.495      20.510      21.370      22.065      22.597      22.979      23.223      23.342      23.342    
  23.223      22.979      22.597      22.065      21.370      20.510      19.495      18.354      17.133      15.894    
  14.680      13.512      12.406      11.376      10.430      9.5765      8.8179      8.1541      7.5815      7.0942    
  6.6847      6.3449      6.0666      5.8428      5.6669      5.5334      5.4379      5.3764      5.3464      5.3464    
  5.3764      5.4379      5.5334      5.6669      5.8428      6.0666      6.3449      6.6847      7.0942      7.5815    
  7.8611      8.5750      9.3838      10.287      11.279      12.353      13.498      14.699      15.937      17.191    
  18.410      19.537      20.532      21.370      22.041      22.549      22.902      23.108      23.176      23.108    
  22.902      22.549      22.041      21.370      20.532      19.537      18.410      17.191      15.937      14.699    
  13.498      12.353      11.279      10.287      9.3838      8.5750      7.8611      7.2398      6.7058      6.2519    
  5.8702      5.5526      5.2920      5.0820      4.9176      4.7943      4.7089      4.6588      4.6423      4.6588    
  4.7089      4.7943      4.9176      5.0820      5.2920      5.5526      5.8702      6.2519      6.7058      7.2398    
  7.6320      8.3881      9.2386      10.181      11.211      12.318      13.491      14.712      15.964      17.219    
  18.428      19.537      20.510      21.323      21.968      22.444      22.757      22.912      22.912      22.757    
  22.444      21.968      21.323      20.510      19.537      18.428      17.219      15.964      14.712      13.491    
  12.318      11.211      10.181      9.2386      8.3881      7.6320      6.9691      6.3950      5.9032      5.4859    
  5.1352      4.8436      4.6049      4.4139      4.2662      4.1585      4.0883      4.0537      4.0537      4.0883    
  4.1585      4.2662      4.4139      4.6049      4.8436      5.1352      5.4859      5.9032      6.3950      6.9691    
  7.4573      8.2485      9.1331      10.108      11.166      12.297      13.487      14.719      15.973      17.219    
  18.410      19.495      20.440      21.223      21.833      22.267      22.525      22.611      22.525      22.267    
  21.833      21.223      20.440      19.495      18.410      17.219      15.973      14.719      13.487      12.297    
  11.166      10.108      9.1331      8.2485      7.4573      6.7591      6.1505      5.6258      5.1776      4.7981    
  4.4798      4.2162      4.0018      3.8324      3.7044      3.6150      3.5623      3.5448      3.5623      3.6150    
  3.7044      3.8324      4.0018      4.2162      4.4798      4.7981      5.1776      5.6258      6.1505      6.7591    
  7.3290      8.1494      9.0614      10.061      11.139      12.286      13.486      14.719      15.964      17.191    
  18.354      19.407      20.316      21.058      21.620      21.996      22.185      22.185      21.996      21.620    
  21.058      20.316      19.407      18.354      17.191      15.964      14.719      13.486      12.286      11.139    
  10.061      9.0614      8.1494      7.3290      6.6009      5.9628      5.4095      4.9342      4.5294      4.1875    
  3.9018      3.6668      3.4778      3.3311      3.2238      3.1537      3.1191      3.1191      3.1537      3.2238    
  3.3311      3.4778      3.6668      3.9018      4.1875      4.5294      4.9342      5.4095      5.9628      6.6009    
  7.2412      8.0857      9.0197      10.038      11.131      12.286      13.487      14.712      15.937      17.133    
  18.258      19.267      20.128      20.816      21.315      21.617      21.718      21.617      21.315      20.816    
  20.128      19.267      18.258      17.133      15.937      14.712      13.487      12.286      11.131      10.038    
  9.0197      8.0857      7.2412      6.4879      5.8242      5.2459      4.7467      4.3193      3.9563      3.6508    
  3.3972      3.1904      3.0267      2.9029      2.8164      2.7654      2.7485      2.7654      2.8164      2.9029    
  3.0267      3.1904      3.3972      3.6508      3.9563      4.3193      4.7467      5.2459      5.8242      6.4878    
  7.1899      8.0545      9.0060      10.038      11.139      12.297      13.491      14.699      15.894      17.046    
  18.120      19.073      19.870      20.487      20.907      21.119      21.119      20.907      20.487      19.870    
  19.073      18.120      17.046      15.894      14.699      13.491      12.297      11.139      10.038      9.0060    
  8.0545      7.1899      6.4149      5.7289      5.1284      4.6076      4.1598      3.7776      3.4542      3.1835    
  2.9606      2.7813      2.6422      2.5406      2.4741      2.4413      2.4413      2.4741      2.5406      2.6422    
  2.7813      2.9606      3.1835      3.4542      3.7776      4.1598      4.6076      5.1284      5.7289      6.4149    
  7.1730      8.0545      9.0197      10.061      11.166      12.318      13.498      14.680      15.837      16.936    
  17.944      18.825      19.543      20.074      20.399      20.508      20.399      20.074      19.543      18.825    
  17.944      16.936      15.837      14.680      13.498      12.318      11.166      10.061      9.0197      8.0545    
  7.1730      6.3791      5.6731      5.0523      4.5117      4.0448      3.6447      3.3045      3.0181      2.7801    
  2.5864      2.4331      2.3174      2.2367      2.1891      2.1734      2.1891      2.2367      2.3174      2.4331    
  2.5864      2.7801      3.0181      3.3045      3.6447      4.0448      4.5117      5.0523      5.6731      6.3791    
  7.1899      8.0857      9.0614      10.108      11.211      12.353      13.512      14.662      15.771      16.809    
  17.741      18.534      19.159      19.590      19.809      19.809      19.590      19.159      18.534      17.741    
  16.809      15.771      14.662      13.512      12.353      11.211      10.108      9.0614      8.0857      7.1899    
  6.3791      5.6547      5.0149      4.4554      3.9702      3.5528      3.1963      2.8947      2.6424      2.4349    
  2.2684      2.1395      2.0455      1.9843      1.9540      1.9540      1.9843      2.0455      2.1395      2.2684    
  2.4349      2.6424      2.8947      3.1963      3.5528      3.9702      4.4554      5.0149      5.6547      6.3791    
  7.2412      8.1494      9.1331      10.181      11.279      12.406      13.539      14.648      15.704      16.674    
  17.523      18.223      18.744      19.065      19.174      19.065      18.744      18.223      17.523      16.674    
  15.704      14.648      13.539      12.406      11.279      10.181      9.1331      8.1494      7.2412      6.4149    
  5.6731      5.0149      4.4368      3.9335      3.4987      3.1259      2.8091      2.5426      2.3217      2.1423    
  2.0009      1.8944      1.8204      1.7768      1.7624      1.7768      1.8204      1.8944      2.0009      2.1423    
  2.3217      2.5426      2.8091      3.1259      3.4987      3.9335      4.4368      5.0149      5.6731      6.4149    
  7.3290      8.2485      9.2386      10.287      11.376      12.484      13.585      14.650      15.646      16.543    
  17.306      17.907      18.323      18.535      18.535      18.323      17.907      17.306      16.543      15.646    
  14.650      13.585      12.484      11.376      10.287      9.2386      8.2485      7.3290      6.4879      5.7289    
  5.0523      4.4554      3.9335      3.4808      3.0912      2.7587      2.4775      2.2430      2.0507      1.8970    
  1.7785      1.6923      1.6363      1.6088      1.6088      1.6363      1.6923      1.7785      1.8970      2.0507    
  2.2430      2.4775      2.7587      3.0912      3.4808      3.9335      4.4554      5.0523      5.7289      6.4879    
  7.4573      8.3881      9.3838      10.430      11.508      12.594      13.660      14.676      15.609      16.428    
  17.102      17.604      17.914      18.019      17.914      17.604      17.102      16.428      15.609      14.676    
  13.660      12.594      11.508      10.430      9.3838      8.3881      7.4573      6.6009      5.8242      5.1284    
  4.5117      3.9702      3.4987      3.0912      2.7420      2.4454      2.1965      1.9909      1.8246      1.6941    
  1.5962      1.5284      1.4885      1.4754      1.4885      1.5284      1.5962      1.6941      1.8246      1.9909    
  2.1965      2.4454      2.7420      3.0912      3.4987      3.9702      4.5117      5.1284      5.8242      6.6009    
  7.6320      8.5750      9.5765      10.620      11.686      12.747      13.774      14.738      15.605      16.343    
  16.926      17.328      17.533      17.533      17.328      16.926      16.343      15.605      14.738      13.774    
  12.747      11.686      10.620      9.5765      8.5750      7.6320      6.7591      5.9628      5.2459      4.6076    
  4.0448      3.5528      3.1259      2.7587      2.4454      2.1812      1.9614      1.7819      1.6389      1.5292    
  1.4498      1.3983      1.3729      1.3729      1.3983      1.4498      1.5292      1.6389      1.7819      1.9614    
  2.1812      2.4454      2.7587      3.1259      3.5528      4.0448      4.6076      5.2459      5.9628      6.7591    
  7.8611      8.8179      9.8262      10.868      11.919      12.954      13.941      14.849      15.647      16.304    
  16.794      17.096      17.198      17.096      16.794      16.304      15.647      14.849      13.941      12.954    
  11.919      10.868      9.8262      8.8179      7.8611      6.9691      6.1505      5.4095      4.7467      4.1598    
  3.6447      3.1963      2.8091      2.4775      2.1965      1.9614      1.7677      1.6117      1.4897      1.3985    
  1.3355      1.2985      1.2863      1.2985      1.3355      1.3985      1.4897      1.6117      1.7677      1.9614    
  2.1965      2.4775      2.8091      3.1963      3.6447      4.1598      4.7467      5.4095      6.1505      6.9691    
  8.1541      9.1272      10.144      11.184      12.222      13.229      14.176      15.028      15.756      16.330    
  16.727      16.930      16.930      16.727      16.330      15.756      15.028      14.176      13.229      12.222    
  11.184      10.144      9.1272      8.1541      7.2398      6.3950      5.6258      4.9342      4.3193      3.7776    
  3.3045      2.8947      2.5426      2.2430      1.9909      1.7819      1.6117      1.4766      1.3731      1.2984    
  1.2500      1.2262      1.2262      1.2500      1.2984      1.3731      1.4766      1.6117      1.7819      1.9909    
  2.2430      2.5426      2.8947      3.3045      3.7776      4.3193      4.9342      5.6258      6.3950      7.2398    
  8.5223      9.5157      10.544      11.585      12.612      13.595      14.502      15.301      15.959      16.451    
  16.755      16.858      16.755      16.451      15.959      15.301      14.502      13.595      12.612      11.585    
  10.544      9.5157      8.5223      7.5815      6.7058      5.9032      5.1776      4.5294      3.9563      3.4542    
  3.0181      2.6424      2.3217      2.0507      1.8246      1.6389      1.4897      1.3731      1.2862      1.2261    
  1.1909      1.1793      1.1909      1.2261      1.2862      1.3731      1.4897      1.6389      1.8246      2.0507    
  2.3217      2.6424      3.0181      3.4542      3.9563      4.5294      5.1776      5.9032      6.7058      7.5815    
  8.9811      10.001      11.048      12.098      13.121      14.086      14.959      15.707      16.299      16.709    
  16.919      16.919      16.709      16.299      15.707      14.959      14.086      13.121      12.098      11.048    
  10.001      8.9811      8.0072      7.0942      6.2519      5.4859      4.7981      4.1875      3.6508      3.1835    
  2.7801      2.4349      2.1423      1.8970      1.6941      1.5292      1.3985      1.2984      1.2261      1.1792    
  1.1562      1.1562      1.1792      1.2261      1.2984      1.3985      1.5292      1.6941      1.8970      2.1423    
  2.4349      2.7801      3.1835      3.6508      4.1875      4.7981      5.4859      6.2519      7.0942      8.0072    
  9.5532      10.612      11.691      12.762      13.794      14.753      15.601      16.305      16.832      17.160    
  17.270      17.160      16.832      16.305      15.601      14.753      13.794      12.762      11.691      10.612    
  9.5532      8.5355      7.5755      6.6847      5.8702      5.1352      4.4798      3.9018      3.3972      2.9606    
  2.5864      2.2684      2.0009      1.7785      1.5962      1.4498      1.3355      1.2500      1.1909      1.1562    
  1.1448      1.1562      1.1909      1.2500      1.3355      1.4498      1.5962      1.7785      2.0009      2.2684    