   2   2   1   0
  0.2258839E+02  0.3997699E-09  0.3997699E-09  0.3997699E-09  0.5000000E-15
  1.000000000000000E-004
  CAR 
 Name                                    
     19.52575350    -12.54351935  301      3.86525859      1.00000000
    -12.544  0.0000E+00  0.0000E+00
    -12.437  0.0000E+00  0.0000E+00
    -12.330  0.0000E+00  0.0000E+00
    -12.223  0.0000E+00  0.0000E+00
    -12.116  0.0000E+00  0.0000E+00
    -12.009  0.0000E+00  0.0000E+00
    -11.902  0.0000E+00  0.0000E+00
    -11.795  0.0000E+00  0.0000E+00
    -11.688  0.0000E+00  0.0000E+00
    -11.581  0.0000E+00  0.0000E+00
    -11.475  0.0000E+00  0.0000E+00
    -11.368  0.0000E+00  0.0000E+00
    -11.261  0.0000E+00  0.0000E+00
    -11.154  0.0000E+00  0.0000E+00
    -11.047  0.1316E+02  0.1407E+01
    -10.940  0.2593E+02  0.4632E+01
    -10.833  0.3716E+02  0.1000E+02
    -10.726  0.0000E+00  0.1000E+02
    -10.619  0.0000E+00  0.1000E+02
    -10.512  0.0000E+00  0.1000E+02
    -10.406  0.0000E+00  0.1000E+02
    -10.299  0.0000E+00  0.1000E+02
    -10.192  0.0000E+00  0.1000E+02
    -10.085  0.0000E+00  0.1000E+02
     -9.978  0.0000E+00  0.1000E+02
     -9.871  0.0000E+00  0.1000E+02
     -9.764  0.0000E+00  0.1000E+02
     -9.657  0.0000E+00  0.1000E+02
     -9.550  0.0000E+00  0.1000E+02
     -9.443  0.0000E+00  0.1000E+02
     -9.337  0.0000E+00  0.1000E+02
     -9.230  0.0000E+00  0.1000E+02
     -9.123  0.0000E+00  0.1000E+02
     -9.016  0.0000E+00  0.1000E+02
     -8.909  0.8662E-01  0.1001E+02
     -8.802  0.0000E+00  0.1001E+02
     -8.695  0.0000E+00  0.1001E+02
     -8.588  0.6929E+00  0.1008E+02
     -8.481  0.5197E+00  0.1014E+02
     -8.375  0.0000E+00  0.1014E+02
     -8.268  0.0000E+00  0.1014E+02
     -8.161  0.4248E-09  0.1014E+02
     -8.054  0.1039E+01  0.1025E+02
     -7.947  0.0000E+00  0.1025E+02
     -7.840  0.4840E+00  0.1030E+02
     -7.733  0.6929E+00  0.1055E+02
     -7.626  0.0000E+00  0.1055E+02
     -7.519  0.0000E+00  0.1055E+02
     -7.412  0.1365E-08  0.1055E+02
     -7.306  0.5197E+00  0.1060E+02
     -7.199  0.2079E+01  0.1082E+02
     -7.092  0.2425E+01  0.1108E+02
     -6.985  0.2079E+01  0.1131E+02
     -6.878  0.0000E+00  0.1131E+02
     -6.771  0.0000E+00  0.1131E+02
     -6.664  0.1852E+01  0.1150E+02
     -6.557  0.3118E+01  0.1186E+02
     -6.450  0.7616E-07  0.1186E+02
     -6.343  0.1299E+01  0.1200E+02
     -6.237  0.0000E+00  0.1200E+02
     -6.130  0.0000E+00  0.1200E+02
     -6.023  0.0000E+00  0.1200E+02
     -5.916  0.0000E+00  0.1200E+02
     -5.809  0.0000E+00  0.1200E+02
     -5.702  0.0000E+00  0.1200E+02
     -5.595  0.0000E+00  0.1200E+02
     -5.488  0.0000E+00  0.1200E+02
     -5.381  0.0000E+00  0.1200E+02
     -5.274  0.0000E+00  0.1200E+02
     -5.168  0.0000E+00  0.1200E+02
     -5.061  0.0000E+00  0.1200E+02
     -4.954  0.0000E+00  0.1200E+02
     -4.847  0.0000E+00  0.1200E+02
     -4.740  0.0000E+00  0.1200E+02
     -4.633  0.0000E+00  0.1200E+02
     -4.526  0.0000E+00  0.1200E+02
     -4.419  0.0000E+00  0.1200E+02
     -4.312  0.0000E+00  0.1200E+02
     -4.206  0.0000E+00  0.1200E+02
     -4.099  0.0000E+00  0.1200E+02
     -3.992  0.0000E+00  0.1200E+02
     -3.885  0.0000E+00  0.1200E+02
     -3.778  0.0000E+00  0.1200E+02
     -3.671  0.0000E+00  0.1200E+02
     -3.564  0.0000E+00  0.1200E+02
     -3.457  0.0000E+00  0.1200E+02
     -3.350  0.0000E+00  0.1200E+02
     -3.243  0.0000E+00  0.1200E+02
     -3.137  0.0000E+00  0.1200E+02
     -3.030  0.2506E+00  0.1203E+02
     -2.923  0.5939E-02  0.1203E+02
     -2.816  0.3465E+00  0.1218E+02
     -2.709  0.1744E+01  0.1236E+02
     -2.602  0.5163E+01  0.1295E+02
     -2.495  0.0000E+00  0.1295E+02
     -2.388  0.0000E+00  0.1295E+02
     -2.281  0.0000E+00  0.1295E+02
     -2.174  0.2077E+01  0.1318E+02
     -2.068  0.1025E-10  0.1318E+02
     -1.961  0.2079E+01  0.1340E+02
     -1.854  0.0000E+00  0.1340E+02
     -1.747  0.0000E+00  0.1340E+02
     -1.640  0.6291E-07  0.1340E+02
     -1.533  0.1213E+01  0.1353E+02
     -1.426  0.0000E+00  0.1353E+02
     -1.319  0.0000E+00  0.1353E+02
     -1.212  0.0000E+00  0.1353E+02
     -1.105  0.0000E+00  0.1353E+02
     -0.999  0.9758E-09  0.1353E+02
     -0.892  0.2079E+01  0.1375E+02
     -0.785  0.0000E+00  0.1375E+02
     -0.678  0.0000E+00  0.1375E+02
     -0.571  0.0000E+00  0.1375E+02
     -0.464  0.0000E+00  0.1375E+02
     -0.357  0.3038E-03  0.1375E+02
     -0.250  0.1267E-09  0.1386E+02
     -0.143  0.1039E+01  0.1397E+02
     -0.037  0.0000E+00  0.1397E+02
      0.070  0.2240E-07  0.1397E+02
      0.177  0.2079E+01  0.1419E+02
      0.284  0.0000E+00  0.1419E+02
      0.391  0.2837E-07  0.1419E+02
      0.498  0.1690E+01  0.1438E+02
      0.605  0.3118E+01  0.1486E+02
      0.712  0.0000E+00  0.1486E+02
      0.819  0.0000E+00  0.1486E+02
      0.926  0.1561E-01  0.1486E+02
      1.032  0.2632E-08  0.1508E+02
      1.139  0.2331E+01  0.1533E+02
      1.246  0.0000E+00  0.1549E+02
      1.353  0.2079E+01  0.1571E+02
      1.460  0.2079E+01  0.1594E+02
      1.567  0.5029E+00  0.1599E+02
      1.674  0.1261E-01  0.1605E+02
      1.781  0.2079E+01  0.1638E+02
      1.888  0.1039E+01  0.1649E+02
      1.995  0.2079E+01  0.1671E+02
      2.101  0.1154E-15  0.1671E+02
      2.208  0.2083E+01  0.1694E+02
      2.315  0.0000E+00  0.1716E+02
      2.422  0.0000E+00  0.1716E+02
      2.529  0.0000E+00  0.1716E+02
      2.636  0.2079E+01  0.1738E+02
      2.743  0.6929E+00  0.1745E+02
      2.850  0.1039E+01  0.1756E+02
      2.957  0.1386E+01  0.1771E+02
      3.064  0.0000E+00  0.1771E+02
      3.170  0.0000E+00  0.1771E+02
      3.277  0.2399E+00  0.1774E+02
      3.384  0.2445E-09  0.1782E+02
      3.491  0.1386E+01  0.1797E+02
      3.598  0.0000E+00  0.1797E+02
      3.705  0.0000E+00  0.1797E+02
      3.812  0.1062E+00  0.1798E+02
      3.919  0.0000E+00  0.1800E+02
      4.026  0.0000E+00  0.1800E+02
      4.133  0.0000E+00  0.1800E+02
      4.239  0.4023E-05  0.1800E+02
      4.346  0.8661E-01  0.1801E+02
      4.453  0.0000E+00  0.1801E+02
      4.560  0.0000E+00  0.1801E+02
      4.667  0.0000E+00  0.1801E+02
      4.774  0.3465E+00  0.1805E+02
      4.881  0.0000E+00  0.1805E+02
      4.988  0.6929E+00  0.1812E+02
      5.095  0.0000E+00  0.1812E+02
      5.201  0.2599E+00  0.1815E+02
      5.308  0.5184E+00  0.1820E+02
      5.415  0.9527E+00  0.1831E+02
      5.522  0.6341E-09  0.1831E+02
      5.629  0.2079E+01  0.1853E+02
      5.736  0.0000E+00  0.1853E+02
      5.843  0.0000E+00  0.1853E+02
      5.950  0.3798E-01  0.1853E+02
      6.057  0.3738E-01  0.1864E+02
      6.164  0.2308E-15  0.1886E+02
      6.270  0.4423E+01  0.1933E+02
      6.377  0.1544E+01  0.1953E+02
      6.484  0.0000E+00  0.1953E+02
      6.591  0.0000E+00  0.1953E+02
      6.698  0.0000E+00  0.1953E+02
      6.805  0.1731E-15  0.1953E+02
      6.912  0.5197E+00  0.1958E+02
      7.019  0.1039E+01  0.1969E+02
      7.126  0.2079E+01  0.1992E+02
      7.233  0.3118E+01  0.2025E+02
      7.339  0.1191E-03  0.2025E+02
      7.446  0.2079E+01  0.2047E+02
      7.553  0.2327E+01  0.2072E+02
      7.660  0.2079E+01  0.2094E+02
      7.767  0.0000E+00  0.2094E+02
      7.874  0.0000E+00  0.2094E+02
      7.981  0.0000E+00  0.2094E+02
      8.088  0.3338E+01  0.2130E+02
      8.195  0.1156E+00  0.2133E+02
      8.302  0.1039E+01  0.2165E+02
      8.408  0.1730E+01  0.2183E+02
      8.515  0.3465E+01  0.2228E+02
      8.622  0.0000E+00  0.2228E+02
      8.729  0.0000E+00  0.2228E+02
      8.836  0.2078E+01  0.2250E+02
      8.943  0.0000E+00  0.2250E+02
      9.050  0.3394E+00  0.2254E+02
      9.157  0.2079E+01  0.2283E+02
      9.264  0.0000E+00  0.2283E+02
      9.370  0.8037E+00  0.2292E+02
      9.477  0.0000E+00  0.2317E+02
      9.584  0.2079E+01  0.2339E+02
      9.691  0.1039E+01  0.2350E+02
      9.798  0.3340E-10  0.2350E+02
      9.905  0.2079E+01  0.2372E+02
     10.012  0.2079E+01  0.2394E+02
     10.119  0.0000E+00  0.2394E+02
     10.226  0.0000E+00  0.2394E+02
     10.333  0.0000E+00  0.2394E+02
     10.439  0.0000E+00  0.2394E+02
     10.546  0.0000E+00  0.2394E+02
     10.653  0.0000E+00  0.2394E+02
     10.760  0.1270E+00  0.2396E+02
     10.867  0.1931E+01  0.2437E+02
     10.974  0.1708E+01  0.2468E+02
     11.081  0.3006E-12  0.2469E+02
     11.188  0.3501E+01  0.2506E+02
     11.295  0.1039E+01  0.2519E+02
     11.402  0.2398E+01  0.2545E+02
     11.508  0.1039E+01  0.2556E+02
     11.615  0.2073E+01  0.2579E+02
     11.722  0.3038E-07  0.2579E+02
     11.829  0.2079E+01  0.2601E+02
     11.936  0.0000E+00  0.2601E+02
     12.043  0.8488E-05  0.2601E+02
     12.150  0.2079E+01  0.2623E+02
     12.257  0.0000E+00  0.2623E+02
     12.364  0.5850E+00  0.2629E+02
     12.471  0.6929E+00  0.2658E+02
     12.577  0.2257E+01  0.2682E+02
     12.684  0.0000E+00  0.2688E+02
     12.791  0.6836E+00  0.2695E+02
     12.898  0.0000E+00  0.2725E+02
     13.005  0.0000E+00  0.2725E+02
     13.112  0.3206E-02  0.2725E+02
     13.219  0.0000E+00  0.2747E+02
     13.326  0.5189E+00  0.2753E+02
     13.433  0.2400E+01  0.2778E+02
     13.539  0.5232E+00  0.2784E+02
     13.646  0.1039E+01  0.2812E+02
     13.753  0.2079E+01  0.2834E+02
     13.860  0.2885E-16  0.2834E+02
     13.967  0.6929E+00  0.2842E+02
     14.074  0.2757E-02  0.2842E+02
     14.181  0.0000E+00  0.2845E+02
     14.288  0.2124E-03  0.2845E+02
     14.395  0.2597E+01  0.2884E+02
     14.502  0.2079E+01  0.2906E+02
     14.608  0.0000E+00  0.2906E+02
     14.715  0.2337E+01  0.2931E+02
     14.822  0.1039E+01  0.2943E+02
     14.929  0.2079E+01  0.2965E+02
     15.036  0.0000E+00  0.2965E+02
     15.143  0.0000E+00  0.2965E+02
     15.250  0.4427E+00  0.2970E+02
     15.357  0.0000E+00  0.2987E+02
     15.464  0.9061E+00  0.2997E+02
     15.571  0.5001E-13  0.3009E+02
     15.677  0.2861E+01  0.3040E+02
     15.784  0.0000E+00  0.3044E+02
     15.891  0.3698E+00  0.3048E+02
     15.998  0.1029E+01  0.3078E+02
     16.105  0.2079E+01  0.3100E+02
     16.212  0.0000E+00  0.3100E+02
     16.319  0.0000E+00  0.3100E+02
     16.426  0.0000E+00  0.3100E+02
     16.533  0.2079E+01  0.3122E+02
     16.640  0.2078E+01  0.3144E+02
     16.746  0.3300E+00  0.3148E+02
     16.853  0.2010E+01  0.3171E+02
     16.960  0.0000E+00  0.3172E+02
     17.067  0.9056E+00  0.3182E+02
     17.174  0.2599E+00  0.3189E+02
     17.281  0.0000E+00  0.3189E+02
     17.388  0.0000E+00  0.3189E+02
     17.495  0.0000E+00  0.3189E+02
     17.602  0.0000E+00  0.3189E+02
     17.708  0.0000E+00  0.3189E+02
     17.815  0.0000E+00  0.3189E+02
     17.922  0.1970E-05  0.3189E+02
     18.029  0.1039E+01  0.3200E+02
     18.136  0.0000E+00  0.3200E+02
     18.243  0.0000E+00  0.3200E+02
     18.350  0.0000E+00  0.3200E+02
     18.457  0.0000E+00  0.3200E+02
     18.564  0.0000E+00  0.3200E+02
     18.671  0.0000E+00  0.3200E+02
     18.777  0.0000E+00  0.3200E+02
     18.884  0.0000E+00  0.3200E+02
     18.991  0.0000E+00  0.3200E+02
     19.098  0.0000E+00  0.3200E+02
     19.205  0.0000E+00  0.3200E+02
     19.312  0.0000E+00  0.3200E+02
     19.419  0.0000E+00  0.3200E+02
     19.526  0.0000E+00  0.3200E+02
     19.52575350    -12.54351935  301      3.86525859      1.00000000
    -12.544  0.0000E+00  0.0000E+00  0.0000E+00
    -12.437  0.0000E+00  0.0000E+00  0.0000E+00
    -12.330  0.0000E+00  0.0000E+00  0.0000E+00
    -12.223  0.0000E+00  0.0000E+00  0.0000E+00
    -12.116  0.0000E+00  0.0000E+00  0.0000E+00
    -12.009  0.0000E+00  0.0000E+00  0.0000E+00
    -11.902  0.0000E+00  0.0000E+00  0.0000E+00
    -11.795  0.0000E+00  0.0000E+00  0.0000E+00
    -11.688  0.0000E+00  0.0000E+00  0.0000E+00
    -11.581  0.0000E+00  0.0000E+00  0.0000E+00
    -11.475  0.0000E+00  0.0000E+00  0.0000E+00
    -11.368  0.0000E+00  0.0000E+00  0.0000E+00
    -11.261  0.0000E+00  0.0000E+00  0.0000E+00
    -11.154  0.0000E+00  0.0000E+00  0.0000E+00
    -11.047  0.6035E-02  0.1272E-01  0.1251E+02
    -10.940  0.1282E-02  0.2700E-02  0.2553E+02
    -10.833  0.5458E-03  0.9780E-04  0.3676E+02
    -10.726  0.0000E+00  0.0000E+00  0.0000E+00
    -10.619  0.0000E+00  0.0000E+00  0.0000E+00
    -10.512  0.0000E+00  0.0000E+00  0.0000E+00
    -10.406  0.0000E+00  0.0000E+00  0.0000E+00
    -10.299  0.0000E+00  0.0000E+00  0.0000E+00
    -10.192  0.0000E+00  0.0000E+00  0.0000E+00
    -10.085  0.0000E+00  0.0000E+00  0.0000E+00
     -9.978  0.0000E+00  0.0000E+00  0.0000E+00
     -9.871  0.0000E+00  0.0000E+00  0.0000E+00
     -9.764  0.0000E+00  0.0000E+00  0.0000E+00
     -9.657  0.0000E+00  0.0000E+00  0.0000E+00
     -9.550  0.0000E+00  0.0000E+00  0.0000E+00
     -9.443  0.0000E+00  0.0000E+00  0.0000E+00
     -9.337  0.0000E+00  0.0000E+00  0.0000E+00
     -9.230  0.0000E+00  0.0000E+00  0.0000E+00
     -9.123  0.0000E+00  0.0000E+00  0.0000E+00
     -9.016  0.0000E+00  0.0000E+00  0.0000E+00
     -8.909  0.1514E-01  0.1509E-13  0.4373E-13
     -8.802  0.0000E+00  0.0000E+00  0.0000E+00
     -8.695  0.0000E+00  0.0000E+00  0.0000E+00
     -8.588  0.1134E+00  0.3329E-02  0.8837E-02
     -8.481  0.8298E-01  0.3435E-02  0.7970E-02
     -8.375  0.0000E+00  0.0000E+00  0.0000E+00
     -8.268  0.0000E+00  0.0000E+00  0.0000E+00
     -8.161  0.6136E-10  0.5309E-11  0.1082E-10
     -8.054  0.1501E+00  0.1299E-01  0.2649E-01
     -7.947  0.0000E+00  0.0000E+00  0.0000E+00
     -7.840  0.6350E-01  0.8430E-02  0.1459E-01
     -7.733  0.8952E-01  0.1202E-01  0.2315E-01
     -7.626  0.0000E+00  0.0000E+00  0.0000E+00
     -7.519  0.0000E+00  0.0000E+00  0.0000E+00
     -7.412  0.1406E-09  0.3738E-10  0.4769E-10
     -7.306  0.5355E-01  0.1423E-01  0.1816E-01
     -7.199  0.2036E+00  0.5538E-01  0.8749E-01
     -7.092  0.2109E+00  0.7366E-01  0.1030E+00
     -6.985  0.1653E+00  0.6471E-01  0.9673E-01
     -6.878  0.0000E+00  0.0000E+00  0.0000E+00
     -6.771  0.0000E+00  0.0000E+00  0.0000E+00
     -6.664  0.7553E-01  0.8041E-01  0.8778E-01
     -6.557  0.1126E+00  0.1326E+00  0.1621E+00
     -6.450  0.1215E-18  0.4142E-08  0.3830E-08
     -6.343  0.5320E-12  0.6835E-01  0.6957E-01
     -6.237  0.0000E+00  0.0000E+00  0.0000E+00
     -6.130  0.0000E+00  0.0000E+00  0.0000E+00
     -6.023  0.0000E+00  0.0000E+00  0.0000E+00
     -5.916  0.0000E+00  0.0000E+00  0.0000E+00
     -5.809  0.0000E+00  0.0000E+00  0.0000E+00
     -5.702  0.0000E+00  0.0000E+00  0.0000E+00
     -5.595  0.0000E+00  0.0000E+00  0.0000E+00
     -5.488  0.0000E+00  0.0000E+00  0.0000E+00
     -5.381  0.0000E+00  0.0000E+00  0.0000E+00
     -5.274  0.0000E+00  0.0000E+00  0.0000E+00
     -5.168  0.0000E+00  0.0000E+00  0.0000E+00
     -5.061  0.0000E+00  0.0000E+00  0.0000E+00
     -4.954  0.0000E+00  0.0000E+00  0.0000E+00
     -4.847  0.0000E+00  0.0000E+00  0.0000E+00
     -4.740  0.0000E+00  0.0000E+00  0.0000E+00
     -4.633  0.0000E+00  0.0000E+00  0.0000E+00
     -4.526  0.0000E+00  0.0000E+00  0.0000E+00
     -4.419  0.0000E+00  0.0000E+00  0.0000E+00
     -4.312  0.0000E+00  0.0000E+00  0.0000E+00
     -4.206  0.0000E+00  0.0000E+00  0.0000E+00
     -4.099  0.0000E+00  0.0000E+00  0.0000E+00
     -3.992  0.0000E+00  0.0000E+00  0.0000E+00
     -3.885  0.0000E+00  0.0000E+00  0.0000E+00
     -3.778  0.0000E+00  0.0000E+00  0.0000E+00
     -3.671  0.0000E+00  0.0000E+00  0.0000E+00
     -3.564  0.0000E+00  0.0000E+00  0.0000E+00
     -3.457  0.0000E+00  0.0000E+00  0.0000E+00
     -3.350  0.0000E+00  0.0000E+00  0.0000E+00
     -3.243  0.0000E+00  0.0000E+00  0.0000E+00
     -3.137  0.0000E+00  0.0000E+00  0.0000E+00
     -3.030  0.1124E+00  0.4423E-12  0.1479E-02
     -2.923  0.2804E-02  0.8626E-06  0.1501E-04
     -2.816  0.9303E-01  0.2101E-01  0.1002E-03
     -2.709  0.7171E+00  0.3471E-01  0.4842E-02
     -2.602  0.1916E+01  0.1442E+00  0.2979E-01
     -2.495  0.0000E+00  0.0000E+00  0.0000E+00
     -2.388  0.0000E+00  0.0000E+00  0.0000E+00
     -2.281  0.0000E+00  0.0000E+00  0.0000E+00
     -2.174  0.5990E+00  0.1100E+00  0.1789E-01
     -2.068  0.3558E-11  0.3247E-12  0.1357E-12
     -1.961  0.7215E+00  0.6585E-01  0.2751E-01
     -1.854  0.0000E+00  0.0000E+00  0.0000E+00
     -1.747  0.0000E+00  0.0000E+00  0.0000E+00
     -1.640  0.1420E-07  0.4420E-08  0.8430E-09
     -1.533  0.3296E+00  0.6265E-01  0.2036E-01
     -1.426  0.0000E+00  0.0000E+00  0.0000E+00
     -1.319  0.0000E+00  0.0000E+00  0.0000E+00
     -1.212  0.0000E+00  0.0000E+00  0.0000E+00
     -1.105  0.0000E+00  0.0000E+00  0.0000E+00
     -0.999  0.2528E-09  0.5369E-10  0.2041E-10
     -0.892  0.5385E+00  0.1144E+00  0.4349E-01
     -0.785  0.0000E+00  0.0000E+00  0.0000E+00
     -0.678  0.0000E+00  0.0000E+00  0.0000E+00
     -0.571  0.0000E+00  0.0000E+00  0.0000E+00
     -0.464  0.0000E+00  0.0000E+00  0.0000E+00
     -0.357  0.7233E-04  0.1849E-04  0.7379E-05
     -0.250  0.6375E-12  0.2014E-10  0.1176E-11
     -0.143  0.5229E-02  0.1652E+00  0.9646E-02
     -0.037  0.0000E+00  0.0000E+00  0.0000E+00
      0.070  0.5310E-09  0.3436E-08  0.2674E-09
      0.177  0.4928E-01  0.3189E+00  0.2482E-01
      0.284  0.0000E+00  0.0000E+00  0.0000E+00
      0.391  0.1456E-09  0.4321E-08  0.4791E-09
      0.498  0.1171E-01  0.2690E+00  0.2405E-01
      0.605  0.4475E-01  0.5387E+00  0.2850E-01
      0.712  0.0000E+00  0.0000E+00  0.0000E+00
      0.819  0.0000E+00  0.0000E+00  0.0000E+00
      0.926  0.7934E-03  0.2318E-02  0.2695E-03
      1.032  0.4818E-09  0.2008E-09  0.7919E-10
      1.139  0.2883E+00  0.2645E+00  0.5338E-01
      1.246  0.0000E+00  0.0000E+00  0.0000E+00
      1.353  0.4646E-02  0.3753E+00  0.3066E-01
      1.460  0.2399E-13  0.3975E+00  0.2332E-01
      1.567  0.5060E-14  0.9422E-01  0.7334E-02
      1.674  0.3121E-03  0.2022E-02  0.2854E-03
      1.781  0.1259E-01  0.3682E+00  0.4024E-01
      1.888  0.1224E-08  0.1953E+00  0.1743E-01
      1.995  0.8929E-01  0.3159E+00  0.5156E-01
      2.101  0.7147E-29  0.2110E-16  0.2489E-17
      2.208  0.1297E-12  0.3808E+00  0.4494E-01
      2.315  0.0000E+00  0.0000E+00  0.0000E+00
      2.422  0.0000E+00  0.0000E+00  0.0000E+00
      2.529  0.0000E+00  0.0000E+00  0.0000E+00
      2.636  0.5856E-13  0.3643E+00  0.5857E-01
      2.743  0.7515E-12  0.1212E+00  0.1965E-01
      2.850  0.3826E-13  0.1645E+00  0.3824E-01
      2.957  0.9354E-13  0.2287E+00  0.4716E-01
      3.064  0.0000E+00  0.0000E+00  0.0000E+00
      3.170  0.0000E+00  0.0000E+00  0.0000E+00
      3.277  0.9078E-14  0.3568E-01  0.1028E-01
      3.384  0.3236E-22  0.3257E-10  0.1213E-10
      3.491  0.1832E-12  0.1846E+00  0.6875E-01
      3.598  0.0000E+00  0.0000E+00  0.0000E+00
      3.705  0.0000E+00  0.0000E+00  0.0000E+00
      3.812  0.9796E-13  0.1067E-01  0.6678E-02
      3.919  0.0000E+00  0.0000E+00  0.0000E+00
      4.026  0.0000E+00  0.0000E+00  0.0000E+00
      4.133  0.0000E+00  0.0000E+00  0.0000E+00
      4.239  0.1700E-05  0.1875E-17  0.2341E-18
      4.346  0.3659E-01  0.4035E-13  0.5039E-14
      4.453  0.0000E+00  0.0000E+00  0.0000E+00
      4.560  0.0000E+00  0.0000E+00  0.0000E+00
      4.667  0.0000E+00  0.0000E+00  0.0000E+00
      4.774  0.1015E+00  0.1923E-01  0.6512E-02
      4.881  0.0000E+00  0.0000E+00  0.0000E+00
      4.988  0.1940E+00  0.5107E-01  0.9901E-02
      5.095  0.0000E+00  0.0000E+00  0.0000E+00
      5.201  0.1017E-11  0.3927E-01  0.1229E-01
      5.308  0.5790E-01  0.6360E-01  0.1809E-01
      5.415  0.2327E+00  0.6744E-01  0.1729E-01
      5.522  0.6002E-10  0.6136E-10  0.2852E-10
      5.629  0.1968E+00  0.2012E+00  0.9350E-01
      5.736  0.0000E+00  0.0000E+00  0.0000E+00
      5.843  0.0000E+00  0.0000E+00  0.0000E+00
      5.950  0.4456E-02  0.3683E-02  0.1597E-02
      6.057  0.6496E-02  0.3577E-02  0.1178E-02
      6.164  0.4614E-16  0.2414E-16  0.5623E-17
      6.270  0.7858E+00  0.4551E+00  0.1276E+00
      6.377  0.2921E+00  0.1510E+00  0.3559E-01
      6.484  0.0000E+00  0.0000E+00  0.0000E+00
      6.591  0.0000E+00  0.0000E+00  0.0000E+00
      6.698  0.0000E+00  0.0000E+00  0.0000E+00
      6.805  0.1341E-16  0.3822E-16  0.8456E-18
      6.912  0.4025E-01  0.1148E+00  0.2539E-02
      7.019  0.2820E-11  0.1456E+00  0.5866E-01
      7.126  0.2142E+00  0.1741E+00  0.9373E-01
      7.233  0.5055E+00  0.1711E+00  0.1367E+00
      7.339  0.2056E-04  0.7319E-05  0.4957E-05
      7.446  0.3588E+00  0.1277E+00  0.8650E-01
      7.553  0.2015E+00  0.5224E+00  0.3508E-01
      7.660  0.1749E+00  0.3763E+00  0.5081E-01
      7.767  0.0000E+00  0.0000E+00  0.0000E+00
      7.874  0.0000E+00  0.0000E+00  0.0000E+00
      7.981  0.0000E+00  0.0000E+00  0.0000E+00
      8.088  0.1729E-02  0.8449E+00  0.1190E+00
      8.195  0.6085E-02  0.1807E-01  0.4648E-02
      8.302  0.4400E-01  0.2120E+00  0.4170E-01
      8.408  0.2827E-03  0.5293E+00  0.6174E-01
      8.515  0.5730E-01  0.7025E+00  0.1595E+00
      8.622  0.0000E+00  0.0000E+00  0.0000E+00
      8.729  0.0000E+00  0.0000E+00  0.0000E+00
      8.836  0.7569E-03  0.3444E+00  0.1106E+00
      8.943  0.0000E+00  0.0000E+00  0.0000E+00
      9.050  0.1106E-13  0.1151E+00  0.1071E-01
      9.157  0.4194E-12  0.5610E+00  0.9466E-01
      9.264  0.0000E+00  0.0000E+00  0.0000E+00
      9.370  0.1229E-02  0.1225E+00  0.5037E-01
      9.477  0.0000E+00  0.0000E+00  0.0000E+00
      9.584  0.6476E-12  0.4854E+00  0.1205E+00
      9.691  0.1363E+00  0.2076E-01  0.2421E-01
      9.798  0.1091E-23  0.9587E-11  0.1568E-11
      9.905  0.6803E-13  0.5966E+00  0.9758E-01
     10.012  0.1655E+00  0.2262E+00  0.6593E-01
     10.119  0.0000E+00  0.0000E+00  0.0000E+00
     10.226  0.0000E+00  0.0000E+00  0.0000E+00
     10.333  0.0000E+00  0.0000E+00  0.0000E+00
     10.439  0.0000E+00  0.0000E+00  0.0000E+00
     10.546  0.0000E+00  0.0000E+00  0.0000E+00
     10.653  0.0000E+00  0.0000E+00  0.0000E+00
     10.760  0.2640E-02  0.2073E-01  0.6631E-02
     10.867  0.4494E-01  0.3481E+00  0.8646E-01
     10.974  0.2282E-01  0.3580E+00  0.6274E-01
     11.081  0.3630E-15  0.9065E-13  0.1550E-13
     11.188  0.7203E-01  0.8265E+00  0.1822E+00
     11.295  0.2553E-02  0.3637E+00  0.5213E-01
     11.402  0.9860E-01  0.4555E+00  0.9031E-01
     11.508  0.2919E-01  0.1195E+00  0.7561E-01
     11.615  0.1458E-01  0.6364E+00  0.1007E+00
     11.722  0.6402E-21  0.7414E-10  0.3965E-08
     11.829  0.1198E-12  0.3284E+00  0.1821E+00
     11.936  0.0000E+00  0.0000E+00  0.0000E+00
     12.043  0.5051E-18  0.2242E-05  0.4462E-06
     12.150  0.1237E-12  0.5492E+00  0.1093E+00
     12.257  0.0000E+00  0.0000E+00  0.0000E+00
     12.364  0.1938E-01  0.6584E-01  0.4431E-01
     12.471  0.7440E-01  0.3146E-01  0.9896E-02
     12.577  0.9000E-01  0.2428E+00  0.1406E+00
     12.684  0.0000E+00  0.0000E+00  0.0000E+00
     12.791  0.2131E-11  0.1531E-01  0.8908E-01
     12.898  0.0000E+00  0.0000E+00  0.0000E+00
     13.005  0.0000E+00  0.0000E+00  0.0000E+00
     13.112  0.7919E-04  0.6333E-04  0.2452E-03
     13.219  0.0000E+00  0.0000E+00  0.0000E+00
     13.326  0.8830E-01  0.8162E-01  0.2105E-02
     13.433  0.9787E-12  0.1486E+00  0.2921E+00
     13.539  0.5328E-02  0.5420E-01  0.3023E-01
     13.646  0.2649E-03  0.1411E+00  0.7823E-01
     13.753  0.4836E-01  0.4203E+00  0.8275E-01
     13.860  0.2507E-25  0.6805E-24  0.5163E-17
     13.967  0.9433E-09  0.1928E+00  0.4656E-01
     14.074  0.3213E-03  0.7439E-05  0.2265E-04
     14.181  0.0000E+00  0.0000E+00  0.0000E+00
     14.288  0.2533E-04  0.3880E-04  0.1725E-05
     14.395  0.6891E-01  0.2844E+00  0.2007E+00
     14.502  0.1404E+00  0.2802E+00  0.6225E-01
     14.608  0.0000E+00  0.0000E+00  0.0000E+00
     14.715  0.2680E-01  0.9468E-01  0.2632E+00
     14.822  0.4831E-02  0.1750E+00  0.9610E-01
     14.929  0.5229E-02  0.5852E+00  0.1882E+00
     15.036  0.0000E+00  0.0000E+00  0.0000E+00
     15.143  0.0000E+00  0.0000E+00  0.0000E+00
     15.250  0.3403E-01  0.2556E-01  0.1769E-01
     15.357  0.0000E+00  0.0000E+00  0.0000E+00
     15.464  0.4205E-01  0.7997E-01  0.5919E-01
     15.571  0.7385E-19  0.8612E-14  0.1978E-14
     15.677  0.1080E-05  0.4261E+00  0.1797E+00
     15.784  0.0000E+00  0.0000E+00  0.0000E+00
     15.891  0.2054E-02  0.2400E-01  0.4012E-01
     15.998  0.3621E-09  0.3629E+00  0.5471E-01
     16.105  0.6316E-11  0.2468E+00  0.1837E+00
     16.212  0.0000E+00  0.0000E+00  0.0000E+00
     16.319  0.0000E+00  0.0000E+00  0.0000E+00
     16.426  0.0000E+00  0.0000E+00  0.0000E+00
     16.533  0.3760E-02  0.5646E+00  0.1125E+00
     16.640  0.2248E-01  0.7454E+00  0.8117E-01
     16.746  0.1625E-01  0.1191E+00  0.1249E-02
     16.853  0.4929E-01  0.4136E+00  0.8567E-01
     16.960  0.0000E+00  0.0000E+00  0.0000E+00
     17.067  0.1446E-01  0.7591E-02  0.1158E+00
     17.174  0.1524E-06  0.1237E-01  0.3570E-01
     17.281  0.0000E+00  0.0000E+00  0.0000E+00
     17.388  0.0000E+00  0.0000E+00  0.0000E+00
     17.495  0.0000E+00  0.0000E+00  0.0000E+00
     17.602  0.0000E+00  0.0000E+00  0.0000E+00
     17.708  0.0000E+00  0.0000E+00  0.0000E+00
     17.815  0.0000E+00  0.0000E+00  0.0000E+00
     17.922  0.4520E-07  0.3971E-06  0.1075E-07
     18.029  0.2385E-01  0.2095E+00  0.5671E-02
     18.136  0.0000E+00  0.0000E+00  0.0000E+00
     18.243  0.0000E+00  0.0000E+00  0.0000E+00
     18.350  0.0000E+00  0.0000E+00  0.0000E+00
     18.457  0.0000E+00  0.0000E+00  0.0000E+00
     18.564  0.0000E+00  0.0000E+00  0.0000E+00
     18.671  0.0000E+00  0.0000E+00  0.0000E+00
     18.777  0.0000E+00  0.0000E+00  0.0000E+00
     18.884  0.0000E+00  0.0000E+00  0.0000E+00
     18.991  0.0000E+00  0.0000E+00  0.0000E+00
     19.098  0.0000E+00  0.0000E+00  0.0000E+00
     19.205  0.0000E+00  0.0000E+00  0.0000E+00
     19.312  0.0000E+00  0.0000E+00  0.0000E+00
     19.419  0.0000E+00  0.0000E+00  0.0000E+00
     19.526  0.0000E+00  0.0000E+00  0.0000E+00
     19.52575350    -12.54351935  301      3.86525859      1.00000000
    -12.544  0.0000E+00  0.0000E+00  0.0000E+00
    -12.437  0.0000E+00  0.0000E+00  0.0000E+00
    -12.330  0.0000E+00  0.0000E+00  0.0000E+00
    -12.223  0.0000E+00  0.0000E+00  0.0000E+00
    -12.116  0.0000E+00  0.0000E+00  0.0000E+00
    -12.009  0.0000E+00  0.0000E+00  0.0000E+00
    -11.902  0.0000E+00  0.0000E+00  0.0000E+00
    -11.795  0.0000E+00  0.0000E+00  0.0000E+00
    -11.688  0.0000E+00  0.0000E+00  0.0000E+00
    -11.581  0.0000E+00  0.0000E+00  0.0000E+00
    -11.475  0.0000E+00  0.0000E+00  0.0000E+00
    -11.368  0.0000E+00  0.0000E+00  0.0000E+00
    -11.261  0.0000E+00  0.0000E+00  0.0000E+00
    -11.154  0.0000E+00  0.0000E+00  0.0000E+00
    -11.047  0.3260E+00  0.2974E-02  0.1141E-02
    -10.940  0.1162E-01  0.6550E-01  0.1029E-01
    -10.833  0.6222E-03  0.4363E-02  0.7655E-02
    -10.726  0.0000E+00  0.0000E+00  0.0000E+00
    -10.619  0.0000E+00  0.0000E+00  0.0000E+00
    -10.512  0.0000E+00  0.0000E+00  0.0000E+00
    -10.406  0.0000E+00  0.0000E+00  0.0000E+00
    -10.299  0.0000E+00  0.0000E+00  0.0000E+00
    -10.192  0.0000E+00  0.0000E+00  0.0000E+00
    -10.085  0.0000E+00  0.0000E+00  0.0000E+00
     -9.978  0.0000E+00  0.0000E+00  0.0000E+00
     -9.871  0.0000E+00  0.0000E+00  0.0000E+00
     -9.764  0.0000E+00  0.0000E+00  0.0000E+00
     -9.657  0.0000E+00  0.0000E+00  0.0000E+00
     -9.550  0.0000E+00  0.0000E+00  0.0000E+00
     -9.443  0.0000E+00  0.0000E+00  0.0000E+00
     -9.337  0.0000E+00  0.0000E+00  0.0000E+00
     -9.230  0.0000E+00  0.0000E+00  0.0000E+00
     -9.123  0.0000E+00  0.0000E+00  0.0000E+00
     -9.016  0.0000E+00  0.0000E+00  0.0000E+00
     -8.909  0.3655E-01  0.8744E-15  0.1271E-15
     -8.802  0.0000E+00  0.0000E+00  0.0000E+00
     -8.695  0.0000E+00  0.0000E+00  0.0000E+00
     -8.588  0.2934E+00  0.1959E-02  0.6725E-04
     -8.481  0.2208E+00  0.1966E-02  0.6018E-04
     -8.375  0.0000E+00  0.0000E+00  0.0000E+00
     -8.268  0.0000E+00  0.0000E+00  0.0000E+00
     -8.161  0.1849E-09  0.2516E-11  0.1071E-12
     -8.054  0.4524E+00  0.6156E-02  0.2621E-03
     -7.947  0.0000E+00  0.0000E+00  0.0000E+00
     -7.840  0.2161E+00  0.3428E-02  0.1611E-03
     -7.733  0.3131E+00  0.4083E-02  0.3283E-03
     -7.626  0.0000E+00  0.0000E+00  0.0000E+00
     -7.519  0.0000E+00  0.0000E+00  0.0000E+00
     -7.412  0.6437E-09  0.1156E-10  0.5279E-12
     -7.306  0.2451E+00  0.4403E-02  0.2010E-03
     -7.199  0.1011E+01  0.1195E-01  0.1193E-02
     -7.092  0.1202E+01  0.1521E-01  0.1238E-02
     -6.985  0.1061E+01  0.7806E-02  0.1414E-02
     -6.878  0.0000E+00  0.0000E+00  0.0000E+00
     -6.771  0.0000E+00  0.0000E+00  0.0000E+00
     -6.664  0.1006E+01  0.7720E-02  0.7282E-03
     -6.557  0.1734E+01  0.7292E-02  0.1139E-02
     -6.450  0.4462E-07  0.3084E-20  0.2854E-10
     -6.343  0.7669E+00  0.6249E-05  0.2585E-03
     -6.237  0.0000E+00  0.0000E+00  0.0000E+00
     -6.130  0.0000E+00  0.0000E+00  0.0000E+00
     -6.023  0.0000E+00  0.0000E+00  0.0000E+00
     -5.916  0.0000E+00  0.0000E+00  0.0000E+00
     -5.809  0.0000E+00  0.0000E+00  0.0000E+00
     -5.702  0.0000E+00  0.0000E+00  0.0000E+00
     -5.595  0.0000E+00  0.0000E+00  0.0000E+00
     -5.488  0.0000E+00  0.0000E+00  0.0000E+00
     -5.381  0.0000E+00  0.0000E+00  0.0000E+00
     -5.274  0.0000E+00  0.0000E+00  0.0000E+00
     -5.168  0.0000E+00  0.0000E+00  0.0000E+00
     -5.061  0.0000E+00  0.0000E+00  0.0000E+00
     -4.954  0.0000E+00  0.0000E+00  0.0000E+00
     -4.847  0.0000E+00  0.0000E+00  0.0000E+00
     -4.740  0.0000E+00  0.0000E+00  0.0000E+00
     -4.633  0.0000E+00  0.0000E+00  0.0000E+00
     -4.526  0.0000E+00  0.0000E+00  0.0000E+00
     -4.419  0.0000E+00  0.0000E+00  0.0000E+00
     -4.312  0.0000E+00  0.0000E+00  0.0000E+00
     -4.206  0.0000E+00  0.0000E+00  0.0000E+00
     -4.099  0.0000E+00  0.0000E+00  0.0000E+00
     -3.992  0.0000E+00  0.0000E+00  0.0000E+00
     -3.885  0.0000E+00  0.0000E+00  0.0000E+00
     -3.778  0.0000E+00  0.0000E+00  0.0000E+00
     -3.671  0.0000E+00  0.0000E+00  0.0000E+00
     -3.564  0.0000E+00  0.0000E+00  0.0000E+00
     -3.457  0.0000E+00  0.0000E+00  0.0000E+00
     -3.350  0.0000E+00  0.0000E+00  0.0000E+00
     -3.243  0.0000E+00  0.0000E+00  0.0000E+00
     -3.137  0.0000E+00  0.0000E+00  0.0000E+00
     -3.030  0.1490E-15  0.3761E-01  0.1253E-02