    2    2    1    1
  0.2258839E+02  0.3997699E-09  0.3997699E-09  0.3997699E-09  0.5000000E-15
  1.000000000000000E-004
  CAR 
 Name                                    
     18    162     16
 
  0.0000000E+00  0.0000000E+00  0.0000000E+00  0.4629630E-02
    1      -10.973082   1.000000
    2      -10.973082   1.000000
    3      -10.973082   1.000000
    4      -10.891799   1.000000
    5      -10.891799   1.000000
    6       -8.939571   1.000000
    7        3.813443   1.000000
    8        3.813444   1.000000
    9        3.813444   1.000000
   10        4.267037   0.000000
   11        7.497161   0.000000
   12        7.497168   0.000000
   13        7.497168   0.000000
   14       11.200040   0.000000
   15       13.917967   0.000000
   16       13.917969   0.000000
 
  0.1666667E+00  0.0000000E+00  0.0000000E+00  0.3703704E-01
    1      -10.996120   1.000000
    2      -10.967085   1.000000
    3      -10.967085   1.000000
    4      -10.892001   1.000000
    5      -10.892001   1.000000
    6       -8.617229   1.000000
    7        1.073327   1.000000
    8        3.428579   1.000000
    9        3.428581   1.000000
   10        5.390206   0.000000
   11        8.047325   0.000000
   12        8.047330   0.000000
   13        8.426159   0.000000
   14       12.582027   0.000000
   15       12.793608   0.000000
   16       12.793608   0.000000
 
  0.3333333E+00  0.0000000E+00  0.0000000E+00  0.3703704E-01
    1      -11.036182   1.000000
    2      -10.957096   1.000000
    3      -10.957096   1.000000
    4      -10.890285   1.000000
    5      -10.890285   1.000000
    6       -7.784003   1.000000
    7       -1.603075   1.000000
    8        2.879284   1.000000
    9        2.879286   1.000000
   10        4.957396   0.000000
   11        8.458284   0.000000
   12        8.458289   0.000000
   13       10.961116   0.000000
   14       12.399235   0.000000
   15       13.417791   0.000000
   16       13.417792   0.000000
 
  0.5000000E+00  0.0000000E+00  0.0000000E+00  0.1851852E-01
    1      -11.054126   1.000000
    2      -10.953395   1.000000
    3      -10.953395   1.000000
    4      -10.888098   1.000000
    5      -10.888098   1.000000
    6       -7.159919   1.000000
    7       -2.872308   1.000000
    8        2.663546   1.000000
    9        2.663548   1.000000
   10        4.738062   0.000000
   11        8.391861   0.000000
   12        8.391865   0.000000
   13       11.391271   0.000000
   14       14.091025   0.000000
   15       15.622787   0.000000
   16       15.622843   0.000000
 
  0.1666667E+00  0.1666667E+00  0.0000000E+00  0.2777778E-01
    1      -11.008301   1.000000
    2      -10.961121   1.000000
    3      -10.961121   1.000000
    4      -10.897220   1.000000
    5      -10.888569   1.000000
    6       -8.509847   1.000000
    7        1.079553   1.000000
    8        2.788519   1.000000
    9        2.788521   1.000000
   10        6.270267   0.000000
   11        6.862034   0.000000
   12        9.052968   0.000000
   13        9.052972   0.000000
   14       11.183426   0.000000
   15       13.304809   0.000000
   16       14.366080   0.000000
 
  0.3333333E+00  0.1666667E+00  0.0000000E+00  0.1111111E+00
    1      -11.039291   1.000000
    2      -10.952414   1.000000
    3      -10.949926   1.000000
    4      -10.900153   1.000000
    5      -10.886102   1.000000
    6       -7.834867   1.000000
    7       -0.955310   1.000000
    8        1.926949   1.000000
    9        2.228656   1.000000
   10        6.244551   0.000000
   11        7.535371   0.000000
   12        9.372557   0.000000
   13        9.845001   0.000000
   14       12.548570   0.000000
   15       14.441152   0.000000
   16       14.692586   0.000000
 
  0.5000000E+00  0.1666667E+00  0.0000000E+00  0.1111111E+00
    1      -11.058394   1.000000
    2      -10.949360   1.000000
    3      -10.945202   1.000000
    4      -10.895818   1.000000
    5      -10.886648   1.000000
    6       -7.028828   1.000000
    7       -2.617163   1.000000
    8        1.143321   1.000000
    9        2.159767   1.000000
   10        6.071490   0.000000
   11        8.205873   0.000000
   12        9.538581   0.000000
   13       10.771082   0.000000
   14       13.544221   0.000000
   15       15.255480   0.000000
   16       15.648362   0.000000
 
 -0.3333333E+00  0.1666667E+00  0.0000000E+00  0.1111111E+00
    1      -11.051635   1.000000
    2      -10.950690   1.000000
    3      -10.949146   1.000000
    4      -10.892247   1.000000
    5      -10.890756   1.000000
    6       -7.257557   1.000000
    7       -2.196461   1.000000
    8        0.942771   1.000000
    9        2.602383   1.000000
   10        6.221830   0.000000
   11        8.460077   0.000000
   12        9.081440   0.000000
   13       10.867334   0.000000
   14       12.800949   0.000000
   15       13.704327   0.000000
   16       15.464788   0.000000
 
 -0.1666667E+00  0.1666667E+00  0.0000000E+00  0.5555556E-01
    1      -11.023399   1.000000
    2      -10.960129   1.000000
    3      -10.956857   1.000000
    4      -10.894846   1.000000
    5      -10.889865   1.000000
    6       -8.117292   1.000000
    7       -0.332881   1.000000
    8        1.689788   1.000000
    9        3.282528   1.000000
   10        6.353889   0.000000
   11        8.225383   0.000000
   12        8.348175   0.000000
   13        9.389315   0.000000
   14       11.760580   0.000000
   15       13.586669   0.000000
   16       14.312764   0.000000
 
  0.3333333E+00  0.3333333E+00  0.0000000E+00  0.2777778E-01
    1      -11.063054   1.000000
    2      -10.936327   1.000000
    3      -10.936327   1.000000
    4      -10.910630   1.000000
    5      -10.882101   1.000000
    6       -7.371148   1.000000
    7       -1.570095   1.000000
    8        1.567246   1.000000
    9        1.567248   1.000000
   10        5.288499   0.000000
   11        6.363939   0.000000
   12       11.798071   0.000000
   13       11.798076   0.000000
   14       12.364866   0.000000
   15       15.684158   0.000000
   16       16.743975   0.000000
 
  0.5000000E+00  0.3333333E+00  0.0000000E+00  0.1111111E+00
    1      -11.075088   1.000000
    2      -10.934205   1.000000
    3      -10.930057   1.000000
    4      -10.910121   1.000000
    5      -10.882232   1.000000
    6       -6.672867   1.000000
    7       -2.627382   1.000000
    8        0.501436   1.000000
    9        1.413573   1.000000
   10        5.565925   0.000000
   11        7.067642   0.000000
   12       11.379946   0.000000
   13       12.074466   0.000000
   14       14.371972   0.000000
   15       16.044844   0.000000
   16       16.615250   0.000000
 
 -0.3333333E+00  0.3333333E+00  0.0000000E+00  0.5555556E-01
    1      -11.067696   1.000000
    2      -10.942659   1.000000
    3      -10.935330   1.000000
    4      -10.900406   1.000000
    5      -10.888572   1.000000
    6       -6.606753   1.000000
    7       -2.677600   1.000000
    8       -0.205532   1.000000
    9        1.840483   1.000000
   10        5.962435   0.000000
   11        9.632647   0.000000
   12       10.943791   0.000000
   13       11.266055   0.000000
   14       11.442814   0.000000
   15       13.407960   0.000000
   16       17.954976   0.000000
 
  0.5000000E+00  0.5000000E+00  0.0000000E+00  0.1388889E-01
    1      -11.085825   1.000000
    2      -10.923491   1.000000
    3      -10.923491   1.000000
    4      -10.918010   1.000000
    5      -10.878870   1.000000
    6       -6.415032   1.000000
    7       -3.042396   1.000000
    8        1.112895   1.000000
    9        1.112897   1.000000
   10        5.158148   0.000000
   11        5.380549   0.000000
   12       13.938200   0.000000
   13       13.938205   0.000000
   14       14.691220   0.000000
   15       17.083237   0.000000
   16       17.110379   0.000000
 
  0.5000000E+00  0.3333333E+00  0.1666667E+00  0.1111111E+00
    1      -11.059826   1.000000
    2      -10.945747   1.000000
    3      -10.938724   1.000000
    4      -10.902539   1.000000
    5      -10.885825   1.000000
    6       -7.116594   1.000000
    7       -2.019414   1.000000
    8        0.562889   1.000000
    9        1.739393   1.000000
   10        7.186877   0.000000
   11        7.603538   0.000000
   12        8.811814   0.000000
   13       11.595784   0.000000
   14       13.132823   0.000000
   15       14.850864   0.000000
   16       16.840318   0.000000
 
 -0.3333333E+00  0.3333333E+00  0.1666667E+00  0.1111111E+00
    1      -11.067388   1.000000
    2      -10.945162   1.000000
    3      -10.933690   1.000000
    4      -10.900172   1.000000
    5      -10.888261   1.000000
    6       -6.605666   1.000000
    7       -2.715941   1.000000
    8        0.109986   1.000000
    9        1.326693   1.000000
   10        7.366706   0.000000
   11        8.076782   0.000000
   12        9.961527   0.000000
   13       11.132459   0.000000
   14       12.370254   0.000000
   15       15.897765   0.000000
   16       16.494825   0.000000
 
 -0.3333333E+00  0.5000000E+00  0.1666667E+00  0.5555556E-01
    1      -11.076354   1.000000
    2      -10.937050   1.000000
    3      -10.927381   1.000000
    4      -10.907322   1.000000
    5      -10.884658   1.000000
    6       -6.370458   1.000000
    7       -2.904852   1.000000
    8        0.429523   1.000000
    9        0.571058   1.000000
   10        6.991997   0.000000
   11        7.202612   0.000000
   12       10.858384   0.000000
   13       11.147085   0.000000
   14       14.797007   0.000000
   15       15.981766   0.000000
   16       17.059198   0.000000
 
  0.0000000E+00  0.0000000E+00  0.0000000E+00  0.0000000E+00
    1      -10.973082   1.000000
    2      -10.973082   1.000000
    3      -10.973082   1.000000
    4      -10.891799   1.000000
    5      -10.891799   1.000000
    6       -8.939571   1.000000
    7        3.813443   1.000000
    8        3.813444   1.000000
    9        3.813444   1.000000
   10        4.267037   0.000000
   11        7.497161   0.000000
   12        7.497168   0.000000
   13        7.497168   0.000000
   14       11.200040   0.000000
   15       13.917967   0.000000
   16       13.917967   0.000000
 
  0.1428571E-01  0.0000000E+00  0.1428571E-01  0.0000000E+00
    1      -10.973400   1.000000
    2      -10.972988   1.000000
    3      -10.972988   1.000000
    4      -10.891836   1.000000
    5      -10.891773   1.000000
    6       -8.936330   1.000000
    7        3.696597   1.000000
    8        3.802131   1.000000
    9        3.802132   1.000000
   10        4.383468   0.000000
   11        7.484129   0.000000
   12        7.512439   0.000000
   13        7.512443   0.000000
   14       11.220517   0.000000
   15       13.841589   0.000000
   16       13.921266   0.000000
 
  0.2857143E-01  0.0000000E+00  0.2857143E-01  0.0000000E+00
    1      -10.974346   1.000000
    2      -10.972708   1.000000
    3      -10.972708   1.000000
    4      -10.891950   1.000000
    5      -10.891696   1.000000
    6       -8.926595   1.000000
    7        3.476418   1.000000
    8        3.768796   1.000000
    9        3.768797   1.000000
   10        4.602228   0.000000
   11        7.445971   0.000000
   12        7.557647   0.000000
   13        7.557651   0.000000
   14       11.280939   0.000000
   15       13.647928   0.000000
   16       13.931171   0.000000
 
  0.4285714E-01  0.0000000E+00  0.4285714E-01  0.0000000E+00
    1      -10.975899   1.000000
    2      -10.972238   1.000000
    3      -10.972238   1.000000
    4      -10.892135   1.000000
    5      -10.891570   1.000000
    6       -8.910389   1.000000
    7        3.233973   1.000000
    8        3.715131   1.000000
    9        3.715132   1.000000
   10        4.841773   0.000000
   11        7.385355   0.000000
   12        7.631083   0.000000
   13        7.631087   0.000000
   14       11.378520   0.000000
   15       13.392919   0.000000
   16       13.947646   0.000000
 
  0.5714286E-01  0.0000000E+00  0.5714286E-01  0.0000000E+00
    1      -10.978030   1.000000
    2      -10.971581   1.000000
    3      -10.971581   1.000000
    4      -10.892398   1.000000
    5      -10.891392   1.000000
    6       -8.887754   1.000000
    7        2.985162   1.000000
    8        3.643612   1.000000
    9        3.643613   1.000000
   10        5.085307   0.000000
   11        7.306107   0.000000
   12        7.730247   0.000000
   13        7.730251   0.000000
   14       11.509045   0.000000
   15       13.111779   0.000000
   16       13.970735   0.000000
 
  0.7142857E-01  0.0000000E+00  0.7142857E-01  0.0000000E+00
    1      -10.980700   1.000000
    2      -10.970742   1.000000
    3      -10.970741   1.000000
    4      -10.892741   1.000000
    5      -10.891164   1.000000
    6       -8.858751   1.000000
    7        2.734343   1.000000
    8        3.557105   1.000000
    9        3.557106   1.000000
   10        5.327094   0.000000
   11        7.212652   0.000000
   12        7.852232   0.000000
   13        7.852236   0.000000
   14       11.666905   0.000000
   15       12.824386   0.000000
   16       14.000416   0.000000
 
  0.8571429E-01  0.0000000E+00  0.8571429E-01  0.0000000E+00
    1      -10.983859   1.000000
    2      -10.969731   1.000000
    3      -10.969731   1.000000
    4      -10.893171   1.000000
    5      -10.890889   1.000000
    6       -8.823470   1.000000
    7        2.483201   1.000000
    8        3.458542   1.000000
    9        3.458544   1.000000
   10        5.563275   0.000000
   11        7.109690   0.000000
   12        7.994045   0.000000
   13        7.994049   0.000000
   14       11.842363   0.000000
   15       12.547090   0.000000
   16       14.036678   0.000000
 
  0.9999999E-01  0.0000000E+00  0.9999999E-01  0.0000000E+00
    1      -10.987451   1.000000
    2      -10.968550   1.000000
    3      -10.968550   1.000000
    4      -10.893689   1.000000
    5      -10.890567   1.000000
    6       -8.781999   1.000000
    7        2.232556   1.000000
    8        3.350695   1.000000
    9        3.350697   1.000000
   10        5.789559   0.000000
   11        7.002397   0.000000
   12        8.152872   0.000000
   13        8.152876   0.000000
   14       11.991343   0.000000
   15       12.327582   0.000000
   16       14.079525   0.000000
 
  0.1142857E+00  0.0000000E+00  0.1142857E+00  0.0000000E+00
    1      -10.991423   1.000000
    2      -10.967213   1.000000
    3      -10.967213   1.000000
    4      -10.894292   1.000000
    5      -10.890205   1.000000
    6       -8.734429   1.000000
    7        1.982867   1.000000
    8        3.236034   1.000000
    9        3.236036   1.000000
   10        5.999189   0.000000
   11        6.897614   0.000000
   12        8.326162   0.000000
   13        8.326167   0.000000
   14       11.905264   0.000000
   15       12.377088   0.000000
   16       14.128935   0.000000
 
  0.1285714E+00  0.0000000E+00  0.1285714E+00  0.0000000E+00
    1      -10.995717   1.000000
    2      -10.965728   1.000000
    3      -10.965728   1.000000
    4      -10.894981   1.000000
    5      -10.889804   1.000000
    6       -8.680877   1.000000
    7        1.734423   1.000000
    8        3.116697   1.000000
    9        3.116698   1.000000
   10        6.178364   0.000000
   11        6.808200   0.000000
   12        8.511709   0.000000
   13        8.511713   0.000000
   14       11.687138   0.000000
   15       12.595287   0.000000
   16       14.184901   0.000000
 
  0.1428571E+00  0.0000000E+00  0.1428571E+00  0.0000000E+00
    1      -11.000274   1.000000
    2      -10.964104   1.000000
    3      -10.964104   1.000000
    4      -10.895754   1.000000
    5      -10.889367   1.000000
    6       -8.621468   1.000000
    7        1.487450   1.000000
    8        2.994505   1.000000
    9        2.994506   1.000000
   10        6.294668   0.000000
   11        6.764434   0.000000
   12        8.707621   0.000000
   13        8.707625   0.000000
   14       11.474262   0.000000
   15       12.848078   0.000000
   16       14.247418   0.000000
 
  0.1571429E+00  0.0000000E+00  0.1571429E+00  0.0000000E+00
    1      -11.005038   1.000000
    2      -10.962353   1.000000
    3      -10.962353   1.000000
    4      -10.896608   1.000000
    5      -10.888898   1.000000
    6       -8.556351   1.000000
    7        1.242120   1.000000
    8        2.870978   1.000000
    9        2.870979   1.000000
   10        6.307925   0.000000
   11        6.803184   0.000000
   12        8.912307   0.000000
   13        8.912311   0.000000
   14       11.288060   0.000000
   15       13.117927   0.000000
   16       14.316444   0.000000
 
  0.1714286E+00  0.0000000E+00  0.1714286E+00  0.0000000E+00
    1      -11.009954   1.000000
    2      -10.960488   1.000000
    3      -10.960488   1.000000
    4      -10.897539   1.000000
    5      -10.888400   1.000000
    6       -8.485686   1.000000
    7        0.998582   1.000000
    8        2.747381   1.000000
    9        2.747383   1.000000
   10        6.243951   0.000000
   11        6.894386   0.000000
   12        9.124427   0.000000
   13        9.124431   0.000000
   14       11.137794   0.000000
   15       13.400019   0.000000
   16       14.391980   0.000000
 
  0.1857143E+00  0.0000000E+00  0.1857143E+00  0.0000000E+00
    1      -11.014972   1.000000
    2      -10.958523   1.000000
    3      -10.958523   1.000000
    4      -10.898537   1.000000
    5      -10.887877   1.000000
    6       -8.409637   1.000000
    7        0.756984   1.000000
    8        2.624772   1.000000
    9        2.624773   1.000000
   10        6.150858   0.000000
   11        6.985341   0.000000
   12        9.342855   0.000000
   13        9.342859   0.000000
   14       11.030521   0.000000
   15       13.691744   0.000000
   16       14.473990   0.000000
 
  0.2000000E+00  0.0000000E+00  0.2000000E+00  0.0000000E+00
    1      -11.020042   1.000000
    2      -10.956473   1.000000
    3      -10.956473   1.000000
    4      -10.899593   1.000000
    5      -10.887335   1.000000
    6       -8.328387   1.000000
    7        0.517477   1.000000
    8        2.504029   1.000000
    9        2.504031   1.000000
   10        6.049448   0.000000
   11        7.051363   0.000000
   12        9.566656   0.000000
   13        9.566660   0.000000
   14       10.971671   0.000000
   15       13.991124   0.000000
   16       14.562443   0.000000
 
  0.2142857E+00  0.0000000E+00  0.2142857E+00  0.0000000E+00
    1      -11.025121   1.000000
    2      -10.954356   1.000000
    3      -10.954356   1.000000
    4      -10.900705   1.000000
    5      -10.886775   1.000000
    6       -8.242145   1.000000
    7        0.280222   1.000000
    8        2.385892   1.000000
    9        2.385894   1.000000
   10        5.947259   0.000000
   11        7.082993   0.000000
   12        9.795006   0.000000
   13        9.795010   0.000000
   14       10.964181   0.000000
   15       14.296352   0.000000
   16       14.657289   0.000000
 
  0.2285714E+00  0.0000000E+00  0.2285714E+00  0.0000000E+00
    1      -11.030167   1.000000
    2      -10.952187   1.000000
    3      -10.952187   1.000000
    4      -10.901859   1.000000
    5      -10.886204   1.000000
    6       -8.151152   1.000000
    7        0.045430   1.000000
    8        2.270983   1.000000
    9        2.270984   1.000000
   10        5.847546   0.000000
   11        7.078019   0.000000
   12       10.027226   0.000000
   13       10.027230   0.000000
   14       11.007711   0.000000
   15       14.605617   0.000000
   16       14.758476   0.000000
 
  0.2428571E+00  0.0000000E+00  0.2428571E+00  0.0000000E+00
    1      -11.035142   1.000000
    2      -10.949981   1.000000
    3      -10.949981   1.000000
    4      -10.903047   1.000000
    5      -10.885627   1.000000
    6       -8.055671   1.000000
    7       -0.186660   1.000000
    8        2.159828   1.000000
    9        2.159829   1.000000
   10        5.751998   0.000000
   11        7.038823   0.000000
   12       10.262715   0.000000
   13       10.262719   0.000000
   14       11.098641   0.000000
   15       14.865937   0.000000
   16       14.916948   0.000000
 
  0.2571429E+00  0.0000000E+00  0.2571429E+00  0.0000000E+00
    1      -11.040011   1.000000
    2      -10.947756   1.000000
    3      -10.947756   1.000000
    4      -10.904261   1.000000
    5      -10.885048   1.000000
    6       -7.956015   1.000000
    7       -0.415764   1.000000
    8        2.052868   1.000000
    9        2.052870   1.000000
   10        5.661638   0.000000
   11        6.970608   0.000000
   12       10.500960   0.000000
   13       10.500964   0.000000
   14       11.230993   0.000000
   15       14.979604   0.000000
   16       15.228088   0.000000
 
  0.2714286E+00  0.0000000E+00  0.2714286E+00  0.0000000E+00
    1      -11.044744   1.000000
    2      -10.945531   1.000000
    3      -10.945530   1.000000
    4      -10.905481   1.000000
    5      -10.884470   1.000000
    6       -7.852520   1.000000
    7       -0.641552   1.000000
    8        1.950507   1.000000
    9        1.950509   1.000000
   10        5.577135   0.000000
   11        6.879827   0.000000
   12       10.741445   0.000000
   13       10.741449   0.000000
   14       11.397742   0.000000
   15       15.099336   0.000000
   16       15.536401   0.000000
 
  0.2857143E+00  0.0000000E+00  0.2857143E+00  0.0000000E+00
    1      -11.049313   1.000000
    2      -10.943322   1.000000
    3      -10.943322   1.000000
    4      -10.906702   1.000000
    5      -10.883898   1.000000
    6       -7.745589   1.000000
    7       -0.863634   1.000000
    8        1.853068   1.000000
    9        1.853070   1.000000
   10        5.498980   0.000000
   11        6.772829   0.000000
   12       10.983724   0.000000
   13       10.983728   0.000000
   14       11.591961   0.000000
   15       15.225012   0.000000
   16       15.838653   0.000000
 
  0.3000000E+00  0.0000000E+00  0.3000000E+00  0.0000000E+00
    1      -11.053693   1.000000
    2      -10.941151   1.000000
    3      -10.941151   1.000000
    4      -10.907913   1.000000
    5      -10.883338   1.000000
    6       -7.635702   1.000000
    7       -1.081515   1.000000
    8        1.760840   1.000000
    9        1.760842   1.000000
   10        5.427545   0.000000
   11        6.655240   0.000000
   12       11.227338   0.000000
   13       11.227342   0.000000
   14       11.807442   0.000000
   15       15.356454   0.000000
   16       16.130874   0.000000
 
  0.3142857E+00  0.0000000E+00  0.3142857E+00  0.0000000E+00
    1      -11.057860   1.000000
    2      -10.939033   1.000000
    3      -10.939033   1.000000
    4      -10.909101   1.000000
    5      -10.882794   1.000000
    6       -7.523417   1.000000
    7       -1.294616   1.000000
    8        1.674073   1.000000
    9        1.674075   1.000000
   10        5.363120   0.000000
   11        6.531699   0.000000
   12       11.471801   0.000000
   13       11.471805   0.000000
   14       12.038911   0.000000
   15       15.493434   0.000000
   16       16.408149   0.000000
 
  0.3285714E+00  0.0000000E+00  0.3285714E+00  0.0000000E+00
    1      -11.061797   1.000000
    2      -10.936990   1.000000
    3      -10.936990   1.000000
    4      -10.910255   1.000000
    5      -10.882271   1.000000
    6       -7.409402   1.000000
    7       -1.502243   1.000000
    8        1.592981   1.000000
    9        1.592983   1.000000
   10        5.305924   0.000000
   11        6.405872   0.000000
   12       11.716541   0.000000
   13       11.716545   0.000000
   14       12.281942   0.000000
   15       15.635653   0.000000
   16       16.664420   0.000000
 
  0.3428571E+00  0.0000000E+00  0.3428571E+00  0.0000000E+00
    1      -11.065479   1.000000
    2      -10.935033   1.000000
    3      -10.935033   1.000000
    4      -10.911365   1.000000
    5      -10.881772   1.000000
    6       -7.294459   1.000000
    7       -1.703559   1.000000
    8        1.517761   1.000000
    9        1.517763   1.000000
   10        5.256145   0.000000
   11        6.280626   0.000000
   12       11.960887   0.000000
   13       11.960891   0.000000
   14       12.532825   0.000000
   15       15.782715   0.000000
   16       16.892542   0.000000
 
  0.3571428E+00  0.0000000E+00  0.3571428E+00  0.0000000E+00
    1      -11.068896   1.000000
    2      -10.933184   1.000000
    3      -10.933184   1.000000
    4      -10.912419   1.000000
    5      -10.881303   1.000000
    6       -7.179544   1.000000
    7       -1.897577   1.000000
    8        1.448578   1.000000
    9        1.448579   1.000000
   10        5.213921   0.000000
   11        6.158148   0.000000
   12       12.203976   0.000000
   13       12.203980   0.000000
   14       12.788301   0.000000
   15       15.934082   0.000000
   16       17.084490   0.000000
 
  0.3714286E+00  0.0000000E+00  0.3714286E+00  0.0000000E+00
    1      -11.072030   1.000000
    2      -10.931458   1.000000
    3      -10.931458   1.000000
    4      -10.913408   1.000000
    5      -10.880866   1.000000
    6       -7.065814   1.000000
    7       -2.083084   1.000000
    8        1.385581   1.000000
    9        1.385583   1.000000
   10        5.179356   0.000000
   11        6.040127   0.000000
   12       12.444694   0.000000
   13       12.444698   0.000000
   14       13.045395   0.000000
   15       16.089023   0.000000
   16       17.232440   0.000000
 
  0.3857143E+00  0.0000000E+00  0.3857143E+00  0.0000000E+00
    1      -11.074867   1.000000
    2      -10.929869   1.000000
    3      -10.929869   1.000000
    4      -10.914322   1.000000
    5      -10.880466   1.000000
    6       -6.954666   1.000000
    7       -2.258629   1.000000
    8        1.328898   1.000000
    9        1.328899   1.000000
   10        5.152503   0.000000
   11        5.927880   0.000000
   12       12.681517   0.000000
   13       12.681522   0.000000
   14       13.301139   0.000000
   15       16.246521   0.000000
   16       17.330325   0.000000
 
  0.4000000E+00  0.0000000E+00  0.4000000E+00  0.0000000E+00
    1      -11.077396   1.000000
    2      -10.928431   1.000000
    3      -10.928431   1.000000
    4      -10.915151   1.000000
    5      -10.880105   1.000000
    6       -6.847777   1.000000
    7       -2.422484   1.000000
    8        1.278638   1.000000
    9        1.278639   1.000000
   10        5.133357   0.000000
   11        5.822454   0.000000
   12       12.912352   0.000000
   13       12.912357   0.000000
   14       13.552339   0.000000
   15       16.405130   0.000000
   16       17.376079   0.000000
 
  0.4142857E+00  0.0000000E+00  0.4142857E+00  0.0000000E+00
    1      -11.079607   1.000000
    2      -10.927158   1.000000
    3      -10.927157   1.000000
    4      -10.915883   1.000000
    5      -10.879787   1.000000
    6       -6.747144   1.000000
    7       -2.572602   1.000000
    8        1.234896   1.000000
    9        1.234898   1.000000
   10        5.121830   0.000000
   11        5.724761   0.000000
   12       13.134293   0.000000
   13       13.134298   0.000000
   14       13.795272   0.000000
   15       16.562763   0.000000
   16       17.373272   0.000000
 
  0.4285714E+00  0.0000000E+00  0.4285714E+00  0.0000000E+00
    1      -11.081492   1.000000
    2      -10.926060   1.000000
    3      -10.926060   1.000000
    4      -10.916519   1.000000
    5      -10.879512   1.000000
    6       -6.655077   1.000000
    7       -2.706638   1.000000
    8        1.197753   1.000000
    9        1.197755   1.000000
   10        5.117673   0.000000
   11        5.635645   0.000000
   12       13.343265   0.000000
   13       13.343270   0.000000
   14       14.025216   0.000000
   15       16.716351   0.000000
   16       17.329517   0.000000
 
  0.4428571E+00  0.0000000E+00  0.4428571E+00  0.0000000E+00
    1      -11.083045   1.000000
    2      -10.925149   1.000000
    3      -10.925149   1.000000
    4      -10.917048   1.000000
    5      -10.879285   1.000000
    6       -6.574175   1.000000
    7       -2.821946   1.000000
    8        1.167273   1.000000
    9        1.167275   1.000000
   10        5.120383   0.000000
   11        5.556075   0.000000
   12       13.533636   0.000000
   13       13.533641   0.000000
   14       14.235945   0.000000
   15       16.861414   0.000000
   16       17.292360   0.000000
 
  0.4571429E+00  0.0000000E+00  0.4571429E+00  0.0000000E+00
    1      -11.084258   1.000000
    2      -10.924428   1.000000
    3      -10.924428   1.000000
    4      -10.917466   1.000000
    5      -10.879104   1.000000
    6       -6.507215   1.000000
    7       -2.915712   1.000000
    8        1.143514   1.000000
    9        1.143516   1.000000
   10        5.128925   0.000000
   11        5.487435   0.000000
   12       13.697864   0.000000
   13       13.697869   0.000000
   14       14.419145   0.000000
   15       16.996154   0.000000
   16       17.221998   0.000000
 
  0.4714286E+00  0.0000000E+00  0.4714286E+00  0.0000000E+00
    1      -11.085127   1.000000
    2      -10.923909   1.000000
    3      -10.923909   1.000000
    4      -10.917768   1.000000
    5      -10.878974   1.000000
    6       -6.456918   1.000000
    7       -2.985170   1.000000
    8        1.126514   1.000000
    9        1.126516   1.000000
   10        5.141175   0.000000
   11        5.432094   0.000000
   12       13.826538   0.000000
   13       13.826543   0.000000
   14       14.564047   0.000000
   15       17.098692   0.000000
   16       17.105011   0.000000
 
  0.4857143E+00  0.0000000E+00  0.4857143E+00  0.0000000E+00
    1      -11.085651   1.000000
    2      -10.923596   1.000000
    3      -10.923596   1.000000
    4      -10.917948   1.000000
    5      -10.878897   1.000000