 running on   96 total cores
 distrk:  each k-point on   24 cores,    4 groups
 distr:  one band on    6 cores,    4 groups
 using from now: INCAR     
 vasp.5.4.1 24Jun15 (build Nov 25 2015 16:01:35) complex                        
  
 POSCAR found type information on POSCAR  Ga As
 POSCAR found :  2 types and       2 ions
 scaLAPACK will be used

 ----------------------------------------------------------------------------- 
|                                                                             |
|           W    W    AA    RRRRR   N    N  II  N    N   GGGG   !!!           |
|           W    W   A  A   R    R  NN   N  II  NN   N  G    G  !!!           |
|           W    W  A    A  R    R  N N  N  II  N N  N  G       !!!           |
|           W WW W  AAAAAA  RRRRR   N  N N  II  N  N N  G  GGG   !            |
|           WW  WW  A    A  R   R   N   NN  II  N   NN  G    G                |
|           W    W  A    A  R    R  N    N  II  N    N   GGGG   !!!           |
|                                                                             |
|      You have enabled k-point parallelism (KPAR>1).                         |
|      This developmental code was originally  written by Paul Kent at ORNL,  |
|      and carefully double checked in Vienna.                                |
|      GW as well as linear response parallelism added by Martijn Marsman     |
|      and Georg Kresse.                                                      |
|      Carefully verify results versus KPAR=1.                                |
|      Report problems to Paul Kent and Vienna.                               |
|                                                                             |
 ----------------------------------------------------------------------------- 


 ----------------------------------------------------------------------------- 
|                                                                             |
|  ADVICE TO THIS USER RUNNING 'VASP/VAMP'   (HEAR YOUR MASTER'S VOICE ...):  |
|                                                                             |
|      You enforced a specific xc-type in the INCAR file,                     |
|      a different type was found on the POTCAR file                          |
|          I HOPE YOU KNOW, WHAT YOU ARE  DOING                               |
|                                                                             |
 ----------------------------------------------------------------------------- 

 LDA part: xc-table for Pade appr. of Perdew
 WARNING: stress and forces are not correct
 POSCAR, INCAR and KPOINTS ok, starting setup
 WARNING: small aliasing (wrap around) errors must be expected
 FFT: planning ...
 WAVECAR not read
 charge-density read from file: Name                                    
 WARNING: random wavefunctions but no delay for mixing, default for NELMDL
 entering main loop
       N       E                     dE             d eps       ncg     rms          rms(c)
DAV:   1     0.812087624284E+02    0.81209E+02   -0.88587E+03  5288   0.147E+03
DAV:   2    -0.236011306239E+01   -0.83569E+02   -0.79247E+02  5784   0.310E+02
DAV:   3    -0.896630290472E+01   -0.66062E+01   -0.65842E+01  6376   0.656E+01
DAV:   4    -0.906510955456E+01   -0.98807E-01   -0.98796E-01  6272   0.912E+00
DAV:   5    -0.906644913286E+01   -0.13396E-02   -0.13396E-02  6448   0.975E-01
DAV:   6    -0.906649993075E+01   -0.50798E-04   -0.50798E-04  7512   0.168E-01
DAV:   7    -0.906650052965E+01   -0.59890E-06   -0.59887E-06  5976   0.132E-02
   1 F= -.90665005E+01 E0= -.90665005E+01  d E =-.906650E+01
 curvature:   0.00 expect dE= 0.000E+00 dE for cont linesearch  0.000E+00
 trial: gam= 0.00000 g(F)=  0.579E-45 g(S)=  0.524E-03 ort = 0.000E+00 (trialstep = 0.100E+01)
 search vector abs. value=  0.524E-03
 writing wavefunctions
Application 21899160 resources: utime ~1705s, stime ~21s, Rss ~36432, inblocks ~698761, outblocks ~841485
