 vasp.5.3.5 31Mar14 (build Apr 15 2015 10:45:18) complex                        
  
 executed on             LinuxIFC date 2016.02.22  13:36:08
 running on   64 total cores
 distrk:  each k-point on   16 cores,    4 groups
 distr:  one band on NCORES_PER_BAND=   4 cores,    4 groups


--------------------------------------------------------------------------------------------------------


 INCAR:
 POTCAR:   PAW Cu_pv 19Apr2000                    
 POTCAR:   PAW Zn 03Mar1998                       
 POTCAR:   PAW Sn_d 09Feb1998                     
 POTCAR:   PAW S 21Jan2003                        

 ----------------------------------------------------------------------------- 
|                                                                             |
|           W    W    AA    RRRRR   N    N  II  N    N   GGGG   !!!           |
|           W    W   A  A   R    R  NN   N  II  NN   N  G    G  !!!           |
|           W    W  A    A  R    R  N N  N  II  N N  N  G       !!!           |
|           W WW W  AAAAAA  RRRRR   N  N N  II  N  N N  G  GGG   !            |
|           WW  WW  A    A  R   R   N   NN  II  N   NN  G    G                |
|           W    W  A    A  R    R  N    N  II  N    N   GGGG   !!!           |
|                                                                             |
|      You have enabled k-point parallelism (KPAR>1).                         |
|      This developmental code was originally  written by Paul Kent at ORNL,  |
|      and carefully double checked in Vienna.                                |
|      GW as well as linear response parallelism added by Martijn Marsman     |
|      and Georg Kresse.                                                      |
|      Carefully verify results versus KPAR=1.                                |
|      Report problems to Paul Kent and Vienna.                               |
|                                                                             |
 ----------------------------------------------------------------------------- 

 POTCAR:   PAW Cu_pv 19Apr2000                    
   VRHFIN =Cu: d10 p1                                                           
   LEXCH  = CA                                                                  
   EATOM  =  4124.1158 eV,  303.1140 Ry                                         
                                                                                
   TITEL  = PAW Cu_pv 19Apr2000                                                 
   LULTRA =        F    use ultrasoft PP ?                                      
   IUNSCR =        1    unscreen: 0-lin 1-nonlin 2-no                           
   RPACOR =    1.500    partial core radius                                     
   POMASS =   63.546; ZVAL   =   17.000    mass and valenz                      
   RCORE  =    2.000    outmost cutoff radius                                   
   RWIGS  =    2.000; RWIGS  =    1.058    wigner-seitz radius (au A)           
   ENMAX  =  368.406; ENMIN  =  276.305 eV                                      
   RCLOC  =    1.304    cutoff for local pot                                    
   LCOR   =        T    correct aug charges                                     
   LPAW   =        T    paw PP                                                  
   EAUG   =  758.233                                                            
   DEXC   =    -.002                                                            
   RMAX   =    2.402    core radius for proj-oper                               
   RAUG   =    1.300    factor for augmentation sphere                          
   RDEP   =    2.025    core radius for depl-charge                             
   QCUT   =   -5.204; QGAM   =   10.407    optimization parameters              
                                                                                
   Description                                                                  
     l     E      TYP  RCUT    TYP  RCUT                                        
     1   .000     23  1.700                                                     
     1  -.100     23  1.700                                                     
     2   .000     23  2.000                                                     
     2   .000     23  2.000                                                     
     0   .000     23  1.800                                                     
     0   .000     23  1.800                                                     
     3   .000      7   .000                                                     
  local pseudopotential read in
  partial core-charges read in
  atomic valenz-charges read in
  non local Contribution for L=           1  read in
    real space projection operators read in
  non local Contribution for L=           1  read in
    real space projection operators read in
  non local Contribution for L=           2  read in
    real space projection operators read in
  non local Contribution for L=           2  read in
    real space projection operators read in
  non local Contribution for L=           0  read in
    real space projection operators read in
  non local Contribution for L=           0  read in
    real space projection operators read in
    PAW grid and wavefunctions read in
 
   number of l-projection  operators is LMAX  =           6
   number of lm-projection operators is LMMAX =          18
 
 POTCAR:   PAW Zn 03Mar1998                       
   VRHFIN =Zn: d10 p2                                                           
   LEXCH  = CA                                                                  
   EATOM  =  1754.0560 eV,  128.9195 Ry                                         
                                                                                
   TITEL  = PAW Zn 03Mar1998                                                    
   LULTRA =        F    use ultrasoft PP ?                                      
   IUNSCR =        1    unscreen: 0-lin 1-nonlin 2-no                           
   RPACOR =    2.000    partial core radius                                     
   POMASS =   65.390; ZVAL   =   12.000    mass and valenz                      
   RCORE  =    2.300    outmost cutoff radius                                   
   RWIGS  =    2.400; RWIGS  =    1.270    wigner-seitz radius (au A)           
   ENMAX  =  276.847; ENMIN  =  207.636 eV                                      
   RCLOC  =    1.828    cutoff for local pot                                    
   LCOR   =        T    correct aug charges                                     
   LPAW   =        T    paw PP                                                  
   EAUG   =  575.892                                                            
   DEXC   =    -.003                                                            
   RMAX   =    2.771    core radius for proj-oper                               
   RAUG   =    1.300    factor for augmentation sphere                          
   RDEP   =    2.324    core radius for depl-charge                             
   QCUT   =   -4.511; QGAM   =    9.022    optimization parameters              
                                                                                
   Description                                                                  
     l     E      TYP  RCUT    TYP  RCUT                                        
     2   .000     23  2.300                                                     
     2   .000     23  2.300                                                     
     0   .000     23  2.300                                                     
     0   .000     23  2.300                                                     
     1  -.200     23  2.300                                                     
     1   .000     23  2.300                                                     
     3   .000      7   .000                                                     
  local pseudopotential read in
  partial core-charges read in
  atomic valenz-charges read in
  non local Contribution for L=           2  read in
    real space projection operators read in
  non local Contribution for L=           2  read in
    real space projection operators read in
  non local Contribution for L=           0  read in
    real space projection operators read in
  non local Contribution for L=           0  read in
    real space projection operators read in
  non local Contribution for L=           1  read in
    real space projection operators read in
  non local Contribution for L=           1  read in
    real space projection operators read in
    PAW grid and wavefunctions read in
 
   number of l-projection  operators is LMAX  =           6
   number of lm-projection operators is LMMAX =          18
 
 POTCAR:   PAW Sn_d 09Feb1998                     
   VRHFIN =Sn: s2p2                                                             
   LEXCH  = CA                                                                  
   EATOM  =  1896.7356 eV,  139.4061 Ry                                         
                                                                                
   TITEL  = PAW Sn_d 09Feb1998                                                  
   LULTRA =        F    use ultrasoft PP ?                                      
   IUNSCR =        1    unscreen: 0-lin 1-nonlin 2-no                           
   RPACOR =    2.300    partial core radius                                     
   POMASS =  118.710; ZVAL   =   14.000    mass and valenz                      
   RCORE  =    2.500    outmost cutoff radius                                   
   RWIGS  =    2.960; RWIGS  =    1.566    wigner-seitz radius (au A)           
   ENMAX  =  241.107; ENMIN  =  180.830 eV                                      
   ICORE  =        3    local potential                                         
   LCOR   =        T    correct aug charges                                     
   LPAW   =        T    paw PP                                                  
   EAUG   =  439.825                                                            
   DEXC   =    -.001                                                            
   RMAX   =    2.969    core radius for proj-oper                               
   RDEP   =    2.659    core radius for depl-charge                             
   QCUT   =   -4.210; QGAM   =    8.419    optimization parameters              
                                                                                
   Description                                                                  
     l     E      TYP  RCUT    TYP  RCUT                                        
     2   .000     23  2.500                                                     
     2  -.400     23  2.500                                                     
     0   .000     23  2.500                                                     
     0  1.000     23  2.500                                                     
     1   .000     23  2.500                                                     
     1   .000     23  2.500                                                     
     3  -.100      7  2.500                                                     
  local pseudopotential read in
  partial core-charges read in
  atomic valenz-charges read in
  non local Contribution for L=           2  read in
    real space projection operators read in
  non local Contribution for L=           2  read in
    real space projection operators read in
  non local Contribution for L=           0  read in
    real space projection operators read in
  non local Contribution for L=           0  read in
    real space projection operators read in
  non local Contribution for L=           1  read in
    real space projection operators read in
  non local Contribution for L=           1  read in
    real space projection operators read in
    PAW grid and wavefunctions read in
 
   number of l-projection  operators is LMAX  =           6
   number of lm-projection operators is LMMAX =          18
 
 POTCAR:   PAW S 21Jan2003                        
   VRHFIN =S : s2p4                                                             
   LEXCH  = CA                                                                  
   EATOM  =   277.3803 eV,   20.3869 Ry                                         
                                                                                
   TITEL  = PAW S 21Jan2003                                                     
   LULTRA =        F    use ultrasoft PP ?                                      
   IUNSCR =        1    unscreen: 0-lin 1-nonlin 2-no                           
   RPACOR =    1.500    partial core radius                                     
   POMASS =   32.066; ZVAL   =    6.000    mass and valenz                      
   RCORE  =    1.900    outmost cutoff radius                                   
   RWIGS  =    2.200; RWIGS  =    1.164    wigner-seitz radius (au A)           
   ENMAX  =  280.000; ENMIN  =  193.952 eV                                      
   ICORE  =        2    local potential                                         
   LCOR   =        T    correct aug charges                                     
   LPAW   =        T    paw PP                                                  
   EAUG   =  335.092                                                            
   DEXC   =     .000                                                            
   RMAX   =    2.867    core radius for proj-oper                               
   RAUG   =    1.300    factor for augmentation sphere                          
   RDEP   =    1.954    core radius for depl-charge                             
   QCUT   =   -4.360; QGAM   =    8.719    optimization parameters              
                                                                                
   Description                                                                  
     l     E      TYP  RCUT    TYP  RCUT                                        
     0   .000     23  1.900                                                     
     0   .000     23  1.900                                                     
     1   .000     23  1.900                                                     
     1   .000     23  1.900                                                     
     2   .000      7  1.900                                                     
  local pseudopotential read in
  partial core-charges read in
  atomic valenz-charges read in
  non local Contribution for L=           0  read in
    real space projection operators read in
  non local Contribution for L=           0  read in
    real space projection operators read in
  non local Contribution for L=           1  read in
    real space projection operators read in
  non local Contribution for L=           1  read in
    real space projection operators read in
    PAW grid and wavefunctions read in
 
   number of l-projection  operators is LMAX  =           4
   number of lm-projection operators is LMMAX =           8
 
 PAW Cu_pv 19Apr2000                    :
 energy of atom  1       EATOM=-4124.1158
 kinetic energy error for atom=    0.0655 (will be added to EATOM!!)
 PAW Zn 03Mar1998                       :
 energy of atom  2       EATOM=-1754.0560
 kinetic energy error for atom=    0.0030 (will be added to EATOM!!)
 PAW Sn_d 09Feb1998                     :
 energy of atom  3       EATOM=-1896.7356
 kinetic energy error for atom=    0.0033 (will be added to EATOM!!)
 PAW S 21Jan2003                        :
 energy of atom  4       EATOM= -277.3803
 kinetic energy error for atom=    0.0019 (will be added to EATOM!!)
 
 
 POSCAR: Cu2ZnSnS4 (LaFond 2014, 293 K)          
  positions in direct lattice
  velocities in cartesian coordinates
 exchange correlation table for  LEXCH =        2
   RHO(1)=    0.500       N(1)  =     2000
   RHO(2)=  100.500       N(2)  =     4000
 


--------------------------------------------------------------------------------------------------------


 ion  position               nearest neighbor table
   1  0.000  0.000  0.000-   5 2.32   6 2.32   7 2.32   8 2.32
   2  0.750  0.250  0.500-   8 2.32   6 2.32   7 2.32   5 2.32
   3  0.500  0.500  0.000-   8 2.35   6 2.35   7 2.35   5 2.35
   4  0.250  0.750  0.500-   8 2.42   6 2.42   7 2.42   5 2.42
   5  0.118  0.134  0.244-   1 2.32   2 2.32   3 2.35   4 2.42
   6  0.639  0.623  0.244-   1 2.32   2 2.32   3 2.35   4 2.42
   7  0.866  0.361  0.756-   1 2.32   2 2.32   3 2.35   4 2.42
   8  0.377  0.882  0.756-   1 2.32   2 2.32   3 2.35   4 2.42
 
  LATTYP: Found a body centered tetragonal cell.
 ALAT       =     5.4353000000
 C/A-ratio  =     1.9955400000
  
  Lattice vectors:
  
 A1 = (   2.7176500000,  -2.7176500000,   5.4231792810)
 A2 = (  -2.7176500000,   2.7176500000,   5.4231792810)
 A3 = (  -2.7176500000,  -2.7176500000,  -5.4231792810)


Analysis of symmetry for initial positions (statically):
=====================================================================
 Subroutine PRICEL returns:
 Original cell was already a primitive cell.
 

 Routine SETGRP: Setting up the symmetry group for a 
 body centered tetragonal supercell.


 Subroutine GETGRP returns: Found  4 space group operations
 (whereof  4 operations were pure point group operations)
 out of a pool of 16 trial point group operations.


The static configuration has the point symmetry S_4 .


Analysis of symmetry for dynamics (positions and initial velocities):
=====================================================================
 Subroutine PRICEL returns:
 Original cell was already a primitive cell.
 

 Routine SETGRP: Setting up the symmetry group for a 
 body centered tetragonal supercell.


 Subroutine GETGRP returns: Found  4 space group operations
 (whereof  4 operations were pure point group operations)
 out of a pool of 16 trial point group operations.


The dynamic configuration has the point symmetry S_4 .
 
 
 KPOINTS: Automatically generated mesh (51 to igno
  k-points in reciprocal lattice
Space group operators:
 irot       det(A)        alpha          n_x          n_y          n_z        tau_x        tau_y        tau_z
    1     1.000000     0.000000     1.000000     0.000000     0.000000     0.000000     0.000000     0.000000
    2    -1.000000    90.000000     0.000000     0.000000    -1.000000     0.000000     0.000000     0.000000
    3     1.000000   180.000000     0.000000     0.000000     1.000000     0.000000     0.000000     0.000000
    4    -1.000000    90.000000     0.000000     0.000000     1.000000     0.000000     0.000000     0.000000


--------------------------------------------------------------------------------------------------------




 Dimension of arrays:
   k-points           NKPTS =    814   k-points in BZ     NKDIM =    814   number of bands    NBANDS=     52
   number of dos      NEDOS =    301   number of ions     NIONS =      8
   non local maximal  LDIM  =      6   non local SUM 2l+1 LMDIM =     18
   total plane-waves  NPLWV =  76800
   max r-space proj   IRMAX =      1   max aug-charges    IRDMAX=  21604
   dimension x,y,z NGX =    40 NGY =   40 NGZ =   48
   dimension x,y,z NGXF=    80 NGYF=   80 NGZF=   96
   support grid    NGXF=    80 NGYF=   80 NGZF=   96
   ions per type =               2   1   1   4
 NGX,Y,Z   is equivalent  to a cutoff of  12.23, 12.23, 12.01 a.u.
 NGXF,Y,Z  is equivalent  to a cutoff of  24.47, 24.47, 24.01 a.u.


 I would recommend the setting:
   dimension x,y,z NGX =    40 NGY =   40 NGZ =   48
 SYSTEM =  Name                                    
 POSCAR =  Cu2ZnSnS4 (LaFond 2014, 293 K)          

 Startparameter for this run:
   NWRITE =      2    write-flag & timer
   PREC   = accura    normal or accurate (medium, high low for compatibility)
   ISTART =      0    job   : 0-new  1-cont  2-samecut
   ICHARG =     11    charge: 1-file 2-atom 10-const
   ISPIN  =      1    spin polarized calculation?
   LNONCOLLINEAR =      F non collinear calculations
   LSORBIT =      F    spin-orbit coupling
   INIWAV =      1    electr: 0-lowe 1-rand  2-diag
   LASPH  =      F    aspherical Exc in radial PAW
   METAGGA=      F    non-selfconsistent MetaGGA calc.

 Electronic Relaxation 1
   ENCUT  =  500.0 eV  36.75 Ry    6.06 a.u.   9.91  9.91 12.12*2*pi/ulx,y,z
   ENINI  =  500.0     initial cutoff
   ENAUG  =  758.2 eV  augmentation charge cutoff
   NELM   =     60;   NELMIN=  2; NELMDL=  0     # of ELM steps 
   EDIFF  = 0.1E-05   stopping-criterion for ELM
   LREAL  =      F    real-space projection
   NLSPLINE    = F    spline interpolate recip. space projectors
   LCOMPAT=      F    compatible to vasp.4.4
   GGA_COMPAT  = T    GGA compatible to vasp.4.4-vasp.4.6
   LMAXPAW     = -100 max onsite density
   LMAXMIX     =    2 max onsite mixed and CHGCAR
   VOSKOWN=      0    Vosko Wilk Nusair interpolation
   ROPT   =    0.00000   0.00000   0.00000   0.00000
 Ionic relaxation
   EDIFFG = -.5E-02   stopping-criterion for IOM
   NSW    =      1    number of steps for IOM
   NBLOCK =      1;   KBLOCK =      1    inner block; outer block 
   IBRION =      2    ionic relax: 0-MD 1-quasi-New 2-CG
   NFREE  =      1    steps in history (QN), initial steepest desc. (CG)
   ISIF   =      3    stress and relaxation
   IWAVPR =     11    prediction:  0-non 1-charg 2-wave 3-comb
   ISYM   =      2    0-nonsym 1-usesym 2-fastsym
   LCORR  =      T    Harris-Foulkes like correction to forces

   POTIM  = 0.5000    time-step for ionic-motion
   TEIN   =    0.0    initial temperature
   TEBEG  =    0.0;   TEEND  =   0.0 temperature during run
   SMASS  =  -3.00    Nose mass-parameter (am)
   estimated Nose-frequenzy (Omega)   =  0.10E-29 period in steps =****** mass=  -0.675E-27a.u.
   SCALEE = 1.0000    scale energy and forces
   NPACO  =    256;   APACO  = 16.0  distance and # of slots for P.C.
   PSTRESS=    0.0 pullay stress

  Mass of Ions in am
   POMASS =  63.55 65.39118.71 32.07
  Ionic Valenz
   ZVAL   =  17.00 12.00 14.00  6.00
  Atomic Wigner-Seitz radii
   RWIGS  =  -1.00 -1.00 -1.00 -1.00
  virtual crystal weights 
   VCA    =   1.00  1.00  1.00  1.00
   NELECT =      84.0000    total number of electrons
   NUPDOWN=      -1.0000    fix difference up-down

 DOS related values:
   EMIN   =  10.00;   EMAX   =-10.00  energy-range for DOS
   EFERMI =   0.00
   ISMEAR =     0;   SIGMA  =   0.01  broadening in eV -4-tet -1-fermi 0-gaus

 Electronic relaxation 2 (details)
   IALGO  =     38    algorithm
   LDIAG  =      T    sub-space diagonalisation (order eigenvalues)
   LSUBROT=      F    optimize rotation matrix (better conditioning)
   TURBO    =      0    0=normal 1=particle mesh
   IRESTART =      0    0=no restart 2=restart with 2 vectors
   NREBOOT  =      0    no. of reboots
   NMIN     =      0    reboot dimension
   EREF     =   0.00    reference energy to select bands
   IMIX   =      4    mixing-type and parameters
     AMIX     =   0.40;   BMIX     =  1.00
     AMIX_MAG =   1.60;   BMIX_MAG =  1.00
     AMIN     =   0.01
     WC   =   100.;   INIMIX=   1;  MIXPRE=   1;  MAXMIX= -45

 Intra band minimization:
   WEIMIN = 0.0010     energy-eigenvalue tresh-hold
   EBREAK =  0.48E-08  absolut break condition
   DEPER  =   0.30     relativ break condition  

   TIME   =   0.40     timestep for ELM

  volume/ion in A,a.u.               =      20.03       135.15
  Fermi-wavevector in a.u.,A,eV,Ry     =   1.320082  2.494593 23.709739  1.742617
  Thomas-Fermi vector in A             =   2.449934
 
 Write flags
   LWAVE  =      T    write WAVECAR
   LCHARG =      T    write CHGCAR
   LVTOT  =      F    write LOCPOT, total local potential
   LVHAR  =      F    write LOCPOT, Hartree potential only
   LELF   =      F    write electronic localiz. function (ELF)
   LORBIT =     10    0 simple, 1 ext, 2 COOP (PROOUT)


 Dipole corrections
   LMONO  =      F    monopole corrections only (constant potential shift)
   LDIPOL =      F    correct potential (dipole corrections)
   IDIPOL =      0    1-x, 2-y, 3-z, 4-all directions 
   EPSILON=  1.0000000 bulk dielectric constant

 Core level calculations are selected ICORELEVEL =  1
 Exchange correlation treatment:
   GGA     =    --    GGA type
   LEXCH   =     2    internal setting for exchange type
   VOSKOWN=      0    Vosko Wilk Nusair interpolation
   LHFCALC =     F    Hartree Fock is set to
   LHFONE  =     F    Hartree Fock one center treatment
   AEXX    =    0.0000 exact exchange contribution

 Linear response parameters
   LEPSILON=     F    determine dielectric tensor
   LRPA    =     F    only Hartree local field effects (RPA)
   LNABLA  =     F    use nabla operator in PAW spheres
   LVEL    =     F    velocity operator in full k-point grid
   LINTERFAST=   F  fast interpolation
   KINTER  =     0    interpolate to denser k-point grid
   CSHIFT  =0.1000    complex shift for real part using Kramers Kronig
   OMEGAMAX=  -1.0    maximum frequency
   DEG_THRESHOLD= 0.2000000E-02 threshold for treating states as degnerate
   RTIME   =    0.100 relaxation time in fs

 Orbital magnetization related:
   ORBITALMAG=     F  switch on orbital magnetization
   LCHIMAG   =     F  perturbation theory with respect to B field
   DQ        =  0.001000  dq finite difference perturbation B field



--------------------------------------------------------------------------------------------------------


 conjugate gradient relaxation of ions
 charge density and potential remain constant during run
 non-spin polarized calculation
 Variant of blocked Davidson
 Davidson routine will perform the subspace rotation
 perform sub-space diagonalisation
    after iterative eigenvector-optimisation
 no mixing
 using additional bands           10
 reciprocal scheme for non local part
 use partial core corrections
 calculate Harris-corrections to forces 
   (improved forces if not selfconsistent)
 use of overlap-Matrix (Vanderbilt PP)
 Gauss-broadening in eV      SIGMA  =   0.01


--------------------------------------------------------------------------------------------------------


  energy-cutoff  :      500.00
  volume of cell :      160.21
      direct lattice vectors                 reciprocal lattice vectors
     5.435300000  0.000000000  0.000000000     0.183982485  0.000000000 -0.092196841
     0.000000000  5.435300000  0.000000000     0.000000000  0.183982485 -0.092196841
     2.717650000  2.717650000  5.423179281     0.000000000  0.000000000  0.184393683

  length of vectors
     5.435300000  5.435300000  6.646962958     0.205790700  0.205790700  0.184393683


 
 k-points in units of 2pi/SCALE and weight: Automatically generated mesh (51 to igno
   0.00000000  0.00000000  0.00000000       0.007
   0.16666667  0.00000000 -0.08351958       0.028
   0.33333333  0.00000000 -0.16703916       0.028
   0.50000000  0.00000000 -0.25055875       0.028
   0.16666667  0.16666667 -0.16703916       0.014
   0.33333333  0.16666667 -0.25055875       0.028
   0.50000000  0.16666667 -0.33407833       0.028
  -0.33333333  0.16666667  0.08351958       0.014
  -0.16666667  0.16666667  0.00000000       0.014
   0.16666667  0.33333333 -0.25055875       0.028
   0.33333333  0.33333333 -0.33407833       0.014
   0.50000000  0.33333333 -0.41759791       0.028
  -0.33333333  0.33333333  0.00000000       0.014
  -0.16666667  0.33333333 -0.08351958       0.014
   0.16666667  0.50000000 -0.33407833       0.028
   0.33333333  0.50000000 -0.41759791       0.028
   0.50000000  0.50000000 -0.50111749       0.014
   0.00000000  0.00000000  0.25055875       0.014
   0.16666667  0.00000000  0.16703916       0.028
   0.33333333  0.00000000  0.08351958       0.028
   0.50000000  0.00000000  0.00000000       0.028
  -0.33333333  0.00000000  0.41759791       0.028
  -0.16666667  0.00000000  0.33407833       0.028
   0.16666667  0.16666667  0.08351958       0.014
   0.33333333  0.16666667  0.00000000       0.014
   0.50000000  0.16666667 -0.08351958       0.028
  -0.33333333  0.16666667  0.33407833       0.014
  -0.16666667  0.16666667  0.25055875       0.028
   0.16666667  0.33333333  0.00000000       0.014
   0.33333333  0.33333333 -0.08351958       0.014
   0.50000000  0.33333333 -0.16703916       0.028
  -0.33333333  0.33333333  0.25055875       0.028
  -0.16666667  0.33333333  0.16703916       0.014
   0.16666667  0.50000000 -0.08351958       0.028
   0.33333333  0.50000000 -0.16703916       0.028
   0.50000000  0.50000000 -0.25055875       0.014
   0.16666667 -0.33333333  0.33407833       0.014
  -0.33333333 -0.33333333  0.58463707       0.014
  -0.16666667 -0.33333333  0.50111749       0.014
   0.33333333 -0.16666667  0.16703916       0.014
  -0.33333333 -0.16666667  0.50111749       0.014
  -0.16666667 -0.16666667  0.41759791       0.014
   0.00000000  0.00000000  0.50111749       0.007
   0.16666667  0.00000000  0.41759791       0.028
   0.33333333  0.00000000  0.33407833       0.028
   0.16666667  0.16666667  0.33407833       0.014
  -0.33333333  0.16666667  0.58463707       0.014
  -0.16666667  0.16666667  0.50111749       0.014
   0.33333333  0.33333333  0.16703916       0.014
  -0.33333333  0.33333333  0.50111749       0.014
  -0.16666667  0.33333333  0.41759791       0.014
   0.00000000  0.00000000  0.00000000       0.000
   0.00000000  0.00500000 -0.00250559       0.000
   0.00000000  0.01000000 -0.00501117       0.000
   0.00000000  0.01500000 -0.00751676       0.000
   0.00000000  0.02000000 -0.01002235       0.000
   0.00000000  0.02500000 -0.01252794       0.000
   0.00000000  0.03000000 -0.01503352       0.000
   0.00000000  0.03500000 -0.01753911       0.000
   0.00000000  0.04000000 -0.02004470       0.000
   0.00000000  0.04500000 -0.02255029       0.000
   0.00000000  0.05000000 -0.02505587       0.000
   0.00000000  0.05500000 -0.02756146       0.000
   0.00000000  0.06000000 -0.03006705       0.000
   0.00000000  0.06500000 -0.03257264       0.000
   0.00000000  0.07000000 -0.03507822       0.000
   0.00000000  0.07500000 -0.03758381       0.000
   0.00000000  0.08000000 -0.04008940       0.000
   0.00000000  0.08500000 -0.04259499       0.000
   0.00000000  0.09000000 -0.04510057       0.000
   0.00000000  0.09500000 -0.04760616       0.000
   0.00000000  0.09999999 -0.05011174       0.000
   0.00000000  0.10500000 -0.05261734       0.000
   0.00000000  0.11000000 -0.05512292       0.000
   0.00000000  0.11499999 -0.05762851       0.000
   0.00000000  0.12000000 -0.06013410       0.000
   0.00000000  0.12500000 -0.06263969       0.000
   0.00000000  0.13000000 -0.06514527       0.000
   0.00000000  0.13499999 -0.06765086       0.000
   0.00000000  0.14000000 -0.07015645       0.000
   0.00000000  0.14500000 -0.07266204       0.000
   0.00000000  0.14999999 -0.07516762       0.000
   0.00000000  0.15500000 -0.07767321       0.000
   0.00000000  0.16000000 -0.08017880       0.000
   0.00000000  0.16499999 -0.08268438       0.000
   0.00000000  0.17000000 -0.08518997       0.000
   0.00000000  0.17500000 -0.08769556       0.000
   0.00000000  0.17999999 -0.09020114       0.000
   0.00000000  0.18500000 -0.09270674       0.000
   0.00000000  0.19000000 -0.09521232       0.000
   0.00000000  0.19499999 -0.09771791       0.000
   0.00000000  0.19999999 -0.10022349       0.000
   0.00000000  0.20500000 -0.10272909       0.000
   0.00000000  0.20999999 -0.10523467       0.000
   0.00000000  0.21499999 -0.10774026       0.000
   0.00000000  0.22000000 -0.11024585       0.000
   0.00000000  0.22499999 -0.11275143       0.000
   0.00000000  0.22999999 -0.11525702       0.000
   0.00000000  0.23500000 -0.11776261       0.000
   0.00000000  0.23999999 -0.12026819       0.000
   0.00000000  0.24499999 -0.12277378       0.000
   0.00000000  0.25000000 -0.12527937       0.000
   0.00000000  0.25500000 -0.12778496       0.000
   0.00000000  0.25999999 -0.13029054       0.000
   0.00000000  0.26499999 -0.13279613       0.000
   0.00000000  0.26999998 -0.13530171       0.000
   0.00000000  0.27500001 -0.13780732       0.000
   0.00000000  0.28000000 -0.14031290       0.000
   0.00000000  0.28500000 -0.14281849       0.000
   0.00000000  0.28999999 -0.14532407       0.000
   0.00000000  0.29499999 -0.14782966       0.000
   0.00000000  0.29999998 -0.15033524       0.000
   0.00000000  0.30500001 -0.15284084       0.000
   0.00000000  0.31000000 -0.15534642       0.000
   0.00000000  0.31500000 -0.15785201       0.000
   0.00000000  0.31999999 -0.16035759       0.000
   0.00000000  0.32499999 -0.16286318       0.000
   0.00000000  0.32999998 -0.16536876       0.000
   0.00000000  0.33499998 -0.16787435       0.000
   0.00000000  0.34000000 -0.17037995       0.000
   0.00000000  0.34500000 -0.17288553       0.000
   0.00000000  0.34999999 -0.17539112       0.000
   0.00000000  0.35499999 -0.17789670       0.000
   0.00000000  0.35999998 -0.18040229       0.000
   0.00000000  0.36499998 -0.18290787       0.000
   0.00000000  0.37000000 -0.18541347       0.000
   0.00000000  0.37500000 -0.18791906       0.000
   0.00000000  0.38000000 -0.19042465       0.000
   0.00000000  0.38499999 -0.19293023       0.000
   0.00000000  0.38999999 -0.19543582       0.000
   0.00000000  0.39499998 -0.19794140       0.000
   0.00000000  0.39999998 -0.20044699       0.000
   0.00000000  0.40500000 -0.20295258       0.000
   0.00000000  0.41000000 -0.20545817       0.000
   0.00000000  0.41499999 -0.20796375       0.000
   0.00000000  0.41999999 -0.21046934       0.000
   0.00000000  0.42499998 -0.21297492       0.000
   0.00000000  0.42999998 -0.21548051       0.000
   0.00000000  0.43500000 -0.21798611       0.000
   0.00000000  0.44000000 -0.22049170       0.000
   0.00000000  0.44499999 -0.22299728       0.000
   0.00000000  0.44999999 -0.22550287       0.000
   0.00000000  0.45499998 -0.22800845       0.000
   0.00000000  0.45999998 -0.23051404       0.000
   0.00000000  0.46500000 -0.23301963       0.000
   0.00000000  0.47000000 -0.23552522       0.000
   0.00000000  0.47499999 -0.23803080       0.000
   0.00000000  0.47999999 -0.24053639       0.000
   0.00000000  0.48499998 -0.24304197       0.000
   0.00000000  0.48999998 -0.24554756       0.000
   0.00000000  0.49499997 -0.24805314       0.000
   0.00000000  0.50000000 -0.25055875       0.000
   0.00500000  0.50000000 -0.25306433       0.000
   0.01000000  0.50000000 -0.25556992       0.000
   0.01500000  0.50000000 -0.25807551       0.000
   0.02000000  0.50000000 -0.26058110       0.000
   0.02500000  0.50000000 -0.26308668       0.000
   0.03000000  0.50000000 -0.26559227       0.000
   0.03500000  0.50000000 -0.26809786       0.000
   0.04000000  0.50000000 -0.27060345       0.000
   0.04500000  0.50000000 -0.27310903       0.000
   0.05000000  0.50000000 -0.27561462       0.000
   0.05500000  0.50000000 -0.27812021       0.000
   0.06000000  0.50000000 -0.28062580       0.000
   0.06500000  0.50000000 -0.28313138       0.000
   0.07000000  0.50000000 -0.28563697       0.000
   0.07500000  0.50000000 -0.28814256       0.000
   0.08000000  0.50000000 -0.29064815       0.000
   0.08500000  0.50000000 -0.29315373       0.000
   0.09000000  0.50000000 -0.29565932       0.000
   0.09500000  0.50000000 -0.29816491       0.000
   0.09999999  0.50000000 -0.30067049       0.000
   0.10500000  0.50000000 -0.30317608       0.000
   0.11000000  0.50000000 -0.30568167       0.000
   0.11499999  0.50000000 -0.30818725       0.000
   0.12000000  0.50000000 -0.31069285       0.000
   0.12500000  0.50000000 -0.31319843       0.000
   0.13000000  0.50000000 -0.31570402       0.000
   0.13499999  0.50000000 -0.31820960       0.000
   0.14000000  0.50000000 -0.32071519       0.000
   0.14500000  0.50000000 -0.32322078       0.000
   0.14999999  0.50000000 -0.32572636       0.000
   0.15500000  0.50000000 -0.32823196       0.000
   0.16000000  0.50000000 -0.33073754       0.000
   0.16499999  0.50000000 -0.33324313       0.000
   0.17000000  0.50000000 -0.33574872       0.000
   0.17500000  0.50000000 -0.33825431       0.000
   0.17999999  0.50000000 -0.34075989       0.000
   0.18500000  0.50000000 -0.34326548       0.000
   0.19000000  0.50000000 -0.34577107       0.000
   0.19499999  0.50000000 -0.34827665       0.000
   0.19999999  0.50000000 -0.35078224       0.000
   0.20500000  0.50000000 -0.35328783       0.000
   0.20999999  0.50000000 -0.35579341       0.000
   0.21499999  0.50000000 -0.35829900       0.000
   0.22000000  0.50000000 -0.36080459       0.000
   0.22499999  0.50000000 -0.36331018       0.000
   0.22999999  0.50000000 -0.36581576       0.000
   0.23500000  0.50000000 -0.36832136       0.000
   0.23999999  0.50000000 -0.37082694       0.000
   0.24499999  0.50000000 -0.37333253       0.000
   0.25000000  0.50000000 -0.37583812       0.000
   0.25500000  0.50000000 -0.37834371       0.000
   0.25999999  0.50000000 -0.38084929       0.000
   0.26499999  0.50000000 -0.38335488       0.000
   0.26999998  0.50000000 -0.38586046       0.000
   0.27500001  0.50000000 -0.38836606       0.000
   0.28000000  0.50000000 -0.39087164       0.000
   0.28500000  0.50000000 -0.39337723       0.000
   0.28999999  0.50000000 -0.39588281       0.000
   0.29499999  0.50000000 -0.39838840       0.000
   0.29999998  0.50000000 -0.40089398       0.000
   0.30500001  0.50000000 -0.40339959       0.000
   0.31000000  0.50000000 -0.40590517       0.000
   0.31500000  0.50000000 -0.40841076       0.000
   0.31999999  0.50000000 -0.41091634       0.000
   0.32499999  0.50000000 -0.41342193       0.000
   0.32999998  0.50000000 -0.41592751       0.000
   0.33499998  0.50000000 -0.41843310       0.000
   0.34000000  0.50000000 -0.42093869       0.000
   0.34500000  0.50000000 -0.42344428       0.000
   0.34999999  0.50000000 -0.42594986       0.000
   0.35499999  0.50000000 -0.42845545       0.000
   0.35999998  0.50000000 -0.43096103       0.000
   0.36499998  0.50000000 -0.43346662       0.000
   0.37000000  0.50000000 -0.43597222       0.000
   0.37500000  0.50000000 -0.43847781       0.000
   0.38000000  0.50000000 -0.44098339       0.000
   0.38499999  0.50000000 -0.44348898       0.000
   0.38999999  0.50000000 -0.44599456       0.000
   0.39499998  0.50000000 -0.44850015       0.000
   0.39999998  0.50000000 -0.45100573       0.000
   0.40500000  0.50000000 -0.45351133       0.000
   0.41000000  0.50000000 -0.45601692       0.000
   0.41499999  0.50000000 -0.45852250       0.000
   0.41999999  0.50000000 -0.46102809       0.000
   0.42499998  0.50000000 -0.46353367       0.000
   0.42999998  0.50000000 -0.46603926       0.000
   0.43500000  0.50000000 -0.46854486       0.000
   0.44000000  0.50000000 -0.47105044       0.000
   0.44499999  0.50000000 -0.47355602       0.000
   0.44999999  0.50000000 -0.47606161       0.000
   0.45499998  0.50000000 -0.47856719       0.000
   0.45999998  0.50000000 -0.48107278       0.000
   0.46500000  0.50000000 -0.48357838       0.000
   0.47000000  0.50000000 -0.48608397       0.000
   0.47499999  0.50000000 -0.48858955       0.000
   0.47999999  0.50000000 -0.49109514       0.000
   0.48499998  0.50000000 -0.49360072       0.000
   0.48999998  0.50000000 -0.49610631       0.000
   0.49499997  0.50000000 -0.49861189       0.000
   0.50000000  0.50000000 -0.50111749       0.000
   0.49645391  0.49645391 -0.49756348       0.000
   0.49290779  0.49290779 -0.49400943       0.000
   0.48936170  0.48936170 -0.49045542       0.000
   0.48581561  0.48581561 -0.48690140       0.000
   0.48226950  0.48226950 -0.48334736       0.000
   0.47872341  0.47872341 -0.47979335       0.000
   0.47517732  0.47517732 -0.47623933       0.000
   0.47163120  0.47163120 -0.47268529       0.000
   0.46808511  0.46808511 -0.46913127       0.000
   0.46453899  0.46453899 -0.46557723       0.000
   0.46099290  0.46099290 -0.46202321       0.000
   0.45744681  0.45744681 -0.45846920       0.000
   0.45390069  0.45390069 -0.45491515       0.000
   0.45035461  0.45035461 -0.45136115       0.000
   0.44680852  0.44680852 -0.44780713       0.000
   0.44326240  0.44326240 -0.44425308       0.000
   0.43971631  0.43971631 -0.44069907       0.000
   0.43617022  0.43617022 -0.43714505       0.000
   0.43262410  0.43262410 -0.43359101       0.000
   0.42907801  0.42907801 -0.43003699       0.000
   0.42553192  0.42553192 -0.42648298       0.000
   0.42198581  0.42198581 -0.42292894       0.000
   0.41843972  0.41843972 -0.41937493       0.000
   0.41489363  0.41489363 -0.41582091       0.000
   0.41134751  0.41134751 -0.41226687       0.000
   0.40780142  0.40780142 -0.40871285       0.000
   0.40425533  0.40425533 -0.40515883       0.000
   0.40070921  0.40070921 -0.40160479       0.000
   0.39716312  0.39716312 -0.39805077       0.000
   0.39361703  0.39361703 -0.39449676       0.000
   0.39007092  0.39007092 -0.39094272       0.000
   0.38652483  0.38652483 -0.38738871       0.000
   0.38297874  0.38297874 -0.38383469       0.000
   0.37943262  0.37943262 -0.38028065       0.000
   0.37588653  0.37588653 -0.37672663       0.000
   0.37234044  0.37234044 -0.37317261       0.000
   0.36879432  0.36879432 -0.36961857       0.000
   0.36524823  0.36524823 -0.36606455       0.000
   0.36170214  0.36170214 -0.36251054       0.000
   0.35815603  0.35815603 -0.35895650       0.000
   0.35460994  0.35460994 -0.35540249       0.000
   0.35106385  0.35106385 -0.35184847       0.000
   0.34751773  0.34751773 -0.34829443       0.000
   0.34397164  0.34397164 -0.34474041       0.000
   0.34042555  0.34042555 -0.34118640       0.000
   0.33687943  0.33687943 -0.33763235       0.000
   0.33333334  0.33333334 -0.33407833       0.000
   0.32978722  0.32978722 -0.33052429       0.000
   0.32624114  0.32624114 -0.32697028       0.000
   0.32269502  0.32269502 -0.32341624       0.000
   0.31914896  0.31914896 -0.31986225       0.000
   0.31560284  0.31560284 -0.31630821       0.000
   0.31205675  0.31205675 -0.31275419       0.000
   0.30851063  0.30851063 -0.30920015       0.000
   0.30496454  0.30496454 -0.30564613       0.000
   0.30141842  0.30141842 -0.30209209       0.000
   0.29787236  0.29787236 -0.29853810       0.000
   0.29432625  0.29432625 -0.29498406       0.000
   0.29078016  0.29078016 -0.29143005       0.000
   0.28723404  0.28723404 -0.28787600       0.000
   0.28368795  0.28368795 -0.28432199       0.000
   0.28014183  0.28014183 -0.28076794       0.000
   0.27659577  0.27659577 -0.27721396       0.000
   0.27304965  0.27304965 -0.27365991       0.000
   0.26950353  0.26950353 -0.27010587       0.000
   0.26595744  0.26595744 -0.26655185       0.000
   0.26241136  0.26241136 -0.26299785       0.000
   0.25886524  0.25886524 -0.25944380       0.000
   0.25531915  0.25531915 -0.25588978       0.000
   0.25177306  0.25177306 -0.25233577       0.000
   0.24822694  0.24822694 -0.24878172       0.000
   0.24468085  0.24468085 -0.24522771       0.000
   0.24113473  0.24113473 -0.24167366       0.000
   0.23758867  0.23758867 -0.23811968       0.000
   0.23404256  0.23404256 -0.23456564       0.000
   0.23049647  0.23049647 -0.23101163       0.000
   0.22695035  0.22695035 -0.22745758       0.000
   0.22340426  0.22340426 -0.22390356       0.000
   0.21985814  0.21985814 -0.22034952       0.000
   0.21631205  0.21631205 -0.21679550       0.000
   0.21276596  0.21276596 -0.21324149       0.000
   0.20921987  0.20921987 -0.20968747       0.000
   0.20567375  0.20567375 -0.20613343       0.000
   0.20212767  0.20212767 -0.20257942       0.000
   0.19858155  0.19858155 -0.19902538       0.000
   0.19503546  0.19503546 -0.19547136       0.000
   0.19148937  0.19148937 -0.19191735       0.000
   0.18794328  0.18794328 -0.18836333       0.000
   0.18439716  0.18439716 -0.18480928       0.000
   0.18085107  0.18085107 -0.18125527       0.000
   0.17730495  0.17730495 -0.17770122       0.000
   0.17375886  0.17375886 -0.17414721       0.000
   0.17021278  0.17021278 -0.17059320       0.000
   0.16666669  0.16666669 -0.16703919       0.000
   0.16312057  0.16312057 -0.16348514       0.000
   0.15957445  0.15957445 -0.15993110       0.000
   0.15602836  0.15602836 -0.15637708       0.000
   0.15248227  0.15248227 -0.15282307       0.000
   0.14893618  0.14893618 -0.14926905       0.000
   0.14539006  0.14539006 -0.14571500       0.000
   0.14184394  0.14184394 -0.14216096       0.000
   0.13829789  0.13829789 -0.13860698       0.000
   0.13475177  0.13475177 -0.13505294       0.000
   0.13120568  0.13120568 -0.13149892       0.000
   0.12765956  0.12765956 -0.12794488       0.000
   0.12411350  0.12411350 -0.12439089       0.000
   0.12056738  0.12056738 -0.12083685       0.000
   0.11702126  0.11702126 -0.11728280       0.000
   0.11347517  0.11347517 -0.11372879       0.000
   0.10992908  0.10992908 -0.11017477       0.000
   0.10638300  0.10638300 -0.10662076       0.000
   0.10283688  0.10283688 -0.10306672       0.000
   0.09929076  0.09929076 -0.09951267       0.000
   0.09574470  0.09574470 -0.09595869       0.000
   0.09219858  0.09219858 -0.09240464       0.000
   0.08865249  0.08865249 -0.08885063       0.000
   0.08510637  0.08510637 -0.08529658       0.000
   0.08156031  0.08156031 -0.08174260       0.000
   0.07801419  0.07801419 -0.07818855       0.000
   0.07446808  0.07446808 -0.07463451       0.000
   0.07092199  0.07092199 -0.07108050       0.000
   0.06737590  0.06737590 -0.06752648       0.000
   0.06382981  0.06382981 -0.06397247       0.000
   0.06028369  0.06028369 -0.06041842       0.000
   0.05673757  0.05673757 -0.05686438       0.000
   0.05319151  0.05319151 -0.05331039       0.000
   0.04964539  0.04964539 -0.04975635       0.000
   0.04609931  0.04609931 -0.04620234       0.000
   0.04255319  0.04255319 -0.04264830       0.000
   0.03900707  0.03900707 -0.03909425       0.000
   0.03546101  0.03546101 -0.03554026       0.000
   0.03191489  0.03191489 -0.03198622       0.000
   0.02836880  0.02836880 -0.02843220       0.000
   0.02482268  0.02482268 -0.02487816       0.000
   0.02127662  0.02127662 -0.02132417       0.000
   0.01773050  0.01773050 -0.01777013       0.000
   0.01418439  0.01418439 -0.01421609       0.000
   0.01063830  0.01063830 -0.01066208       0.000
   0.00709221  0.00709221 -0.00710806       0.000
   0.00354612  0.00354612 -0.00355405       0.000
   0.00000000  0.00000000  0.00000000       0.000
   0.00000000  0.00000000  0.00618664       0.000
   0.00000000  0.00000000  0.01237327       0.000
   0.00000000  0.00000000  0.01855991       0.000
   0.00000000  0.00000000  0.02474654       0.000
   0.00000000  0.00000000  0.03093318       0.000
   0.00000000  0.00000000  0.03711982       0.000
   0.00000000  0.00000000  0.04330645       0.000
   0.00000000  0.00000000  0.04949309       0.000
   0.00000000  0.00000000  0.05567973       0.000
   0.00000000  0.00000000  0.06186636       0.000
   0.00000000  0.00000000  0.06805300       0.000
   0.00000000  0.00000000  0.07423962       0.000
   0.00000000  0.00000000  0.08042626       0.000
   0.00000000  0.00000000  0.08661290       0.000
   0.00000000  0.00000000  0.09279954       0.000
   0.00000000  0.00000000  0.09898617       0.000
   0.00000000  0.00000000  0.10517281       0.000
   0.00000000  0.00000000  0.11135944       0.000
   0.00000000  0.00000000  0.11754609       0.000
   0.00000000  0.00000000  0.12373271       0.000
   0.00000000  0.00000000  0.12991935       0.000
   0.00000000  0.00000000  0.13610600       0.000
   0.00000000  0.00000000  0.14229262       0.000
   0.00000000  0.00000000  0.14847926       0.000
   0.00000000  0.00000000  0.15466589       0.000
   0.00000000  0.00000000  0.16085252       0.000
   0.00000000  0.00000000  0.16703917       0.000
   0.00000000  0.00000000  0.17322580       0.000
   0.00000000  0.00000000  0.17941243       0.000
   0.00000000  0.00000000  0.18559908       0.000
   0.00000000  0.00000000  0.19178571       0.000
   0.00000000  0.00000000  0.19797235       0.000
   0.00000000  0.00000000  0.20415897       0.000
   0.00000000  0.00000000  0.21034561       0.000
   0.00000000  0.00000000  0.21653226       0.000
   0.00000000  0.00000000  0.22271888       0.000
   0.00000000  0.00000000  0.22890552       0.000
   0.00000000  0.00000000  0.23509217       0.000
   0.00000000  0.00000000  0.24127880       0.000
   0.00000000  0.00000000  0.24746543       0.000
   0.00000000  0.00000000  0.25365206       0.000
   0.00000000  0.00000000  0.25983869       0.000
   0.00000000  0.00000000  0.26602533       0.000
   0.00000000  0.00000000  0.27221199       0.000
   0.00000000  0.00000000  0.27839862       0.000
   0.00000000  0.00000000  0.28458526       0.000
   0.00000000  0.00000000  0.29077188       0.000
   0.00000000  0.00000000  0.29695852       0.000
   0.00000000  0.00000000  0.30314514       0.000
   0.00000000  0.00000000  0.30933178       0.000
   0.00000000  0.00000000  0.31551842       0.000
   0.00000000  0.00000000  0.32170504       0.000
   0.00000000  0.00000000  0.32789171       0.000
   0.00000000  0.00000000  0.33407833       0.000
   0.00000000  0.00000000  0.34026497       0.000
   0.00000000  0.00000000  0.34645160       0.000
   0.00000000  0.00000000  0.35263823       0.000
   0.00000000  0.00000000  0.35882487       0.000
   0.00000000  0.00000000  0.36501150       0.000
   0.00000000  0.00000000  0.37119816       0.000
   0.00000000  0.00000000  0.37738479       0.000
   0.00000000  0.00000000  0.38357142       0.000
   0.00000000  0.00000000  0.38975806       0.000
   0.00000000  0.00000000  0.39594469       0.000
   0.00000000  0.00000000  0.40213132       0.000
   0.00000000  0.00000000  0.40831795       0.000
   0.00000000  0.00000000  0.41450459       0.000
   0.00000000  0.00000000  0.42069121       0.000
   0.00000000  0.00000000  0.42687788       0.000
   0.00000000  0.00000000  0.43306451       0.000
   0.00000000  0.00000000  0.43925114       0.000
   0.00000000  0.00000000  0.44543778       0.000
   0.00000000  0.00000000  0.45162440       0.000
   0.00000000  0.00000000  0.45781104       0.000
   0.00000000  0.00000000  0.46399767       0.000
   0.00000000  0.00000000  0.47018433       0.000
   0.00000000  0.00000000  0.47637097       0.000
   0.00000000  0.00000000  0.48255759       0.000
   0.00000000  0.00000000  0.48874423       0.000
   0.00000000  0.00000000  0.49493086       0.000
   0.00000000  0.00000000  0.50111749       0.000
   0.00000000  0.00500000  0.49861190       0.000
   0.00000000  0.01000000  0.49610632       0.000
   0.00000000  0.01500000  0.49360073       0.000
   0.00000000  0.02000000  0.49109514       0.000
   0.00000000  0.02500000  0.48858955       0.000
   0.00000000  0.03000000  0.48608397       0.000
   0.00000000  0.03500000  0.48357838       0.000
   0.00000000  0.04000000  0.48107279       0.000
   0.00000000  0.04500000  0.47856720       0.000
   0.00000000  0.05000000  0.47606162       0.000
   0.00000000  0.05500000  0.47355603       0.000
   0.00000000  0.06000000  0.47105044       0.000
   0.00000000  0.06500000  0.46854486       0.000
   0.00000000  0.07000000  0.46603927       0.000
   0.00000000  0.07500000  0.46353368       0.000
   0.00000000  0.08000000  0.46102809       0.000
   0.00000000  0.08500000  0.45852251       0.000
   0.00000000  0.09000000  0.45601692       0.000
   0.00000000  0.09500000  0.45351133       0.000
   0.00000000  0.09999999  0.45100575       0.000
   0.00000000  0.10500000  0.44850016       0.000
   0.00000000  0.11000000  0.44599457       0.000
   0.00000000  0.11499999  0.44348899       0.000
   0.00000000  0.12000000  0.44098339       0.000
   0.00000000  0.12500000  0.43847781       0.000
   0.00000000  0.13000000  0.43597222       0.000
   0.00000000  0.13499999  0.43346664       0.000
   0.00000000  0.14000000  0.43096104       0.000
   0.00000000  0.14500000  0.42845546       0.000
   0.00000000  0.14999999  0.42594987       0.000
   0.00000000  0.15500000  0.42344428       0.000
   0.00000000  0.16000000  0.42093869       0.000
   0.00000000  0.16499999  0.41843311       0.000
   0.00000000  0.17000000  0.41592752       0.000
   0.00000000  0.17500000  0.41342193       0.000
   0.00000000  0.17999999  0.41091635       0.000
   0.00000000  0.18500000  0.40841076       0.000
   0.00000000  0.19000000  0.40590517       0.000
   0.00000000  0.19499999  0.40339959       0.000
   0.00000000  0.19999999  0.40089400       0.000
   0.00000000  0.20500000  0.39838841       0.000
   0.00000000  0.20999999  0.39588282       0.000
   0.00000000  0.21499999  0.39337724       0.000
   0.00000000  0.22000000  0.39087164       0.000
   0.00000000  0.22499999  0.38836606       0.000
   0.00000000  0.22999999  0.38586047       0.000
   0.00000000  0.23500000  0.38335488       0.000
   0.00000000  0.23999999  0.38084930       0.000
   0.00000000  0.24499999  0.37834371       0.000
   0.00000000  0.25000000  0.37583812       0.000
   0.00000000  0.25500000  0.37333253       0.000
   0.00000000  0.25999999  0.37082695       0.000
   0.00000000  0.26499999  0.36832136       0.000
   0.00000000  0.26999998  0.36581578       0.000
   0.00000000  0.27500001  0.36331018       0.000
   0.00000000  0.28000000  0.36080459       0.000
   0.00000000  0.28500000  0.35829901       0.000
   0.00000000  0.28999999  0.35579342       0.000
   0.00000000  0.29499999  0.35328784       0.000
   0.00000000  0.29999998  0.35078225       0.000
   0.00000000  0.30500001  0.34827665       0.000
   0.00000000  0.31000000  0.34577107       0.000
   0.00000000  0.31500000  0.34326548       0.000
   0.00000000  0.31999999  0.34075990       0.000
   0.00000000  0.32499999  0.33825431       0.000
   0.00000000  0.32999998  0.33574873       0.000
   0.00000000  0.33499998  0.33324314       0.000
   0.00000000  0.34000000  0.33073754       0.000
   0.00000000  0.34500000  0.32823196       0.000
   0.00000000  0.34999999  0.32572637       0.000
   0.00000000  0.35499999  0.32322079       0.000
   0.00000000  0.35999998  0.32071520       0.000
   0.00000000  0.36499998  0.31820962       0.000
   0.00000000  0.37000000  0.31570402       0.000
   0.00000000  0.37500000  0.31319843       0.000
   0.00000000  0.38000000  0.31069285       0.000
   0.00000000  0.38499999  0.30818726       0.000
   0.00000000  0.38999999  0.30568168       0.000
   0.00000000  0.39499998  0.30317609       0.000
   0.00000000  0.39999998  0.30067051       0.000
   0.00000000  0.40500000  0.29816491       0.000
   0.00000000  0.41000000  0.29565932       0.000
   0.00000000  0.41499999  0.29315374       0.000
   0.00000000  0.41999999  0.29064815       0.000
   0.00000000  0.42499998  0.28814257       0.000
   0.00000000  0.42999998  0.28563698       0.000
   0.00000000  0.43500000  0.28313138       0.000
   0.00000000  0.44000000  0.28062580       0.000
   0.00000000  0.44499999  0.27812021       0.000
   0.00000000  0.44999999  0.27561463       0.000
   0.00000000  0.45499998  0.27310904       0.000
   0.00000000  0.45999998  0.27060346       0.000
   0.00000000  0.46500000  0.26809786       0.000
   0.00000000  0.47000000  0.26559227       0.000
   0.00000000  0.47499999  0.26308669       0.000
   0.00000000  0.47999999  0.26058110       0.000
   0.00000000  0.48499998  0.25807552       0.000
   0.00000000  0.48999998  0.25556993       0.000
   0.00000000  0.49499997  0.25306435       0.000
   0.00000000  0.50000000  0.25055875       0.000
   0.00500000  0.50000000  0.24805316       0.000
   0.01000000  0.50000000  0.24554757       0.000
   0.01500000  0.50000000  0.24304198       0.000
   0.02000000  0.50000000  0.24053640       0.000
   0.02500000  0.50000000  0.23803081       0.000
   0.03000000  0.50000000  0.23552522       0.000
   0.03500000  0.50000000  0.23301963       0.000
   0.04000000  0.50000000  0.23051405       0.000
   0.04500000  0.50000000  0.22800846       0.000
   0.05000000  0.50000000  0.22550287       0.000
   0.05500000  0.50000000  0.22299728       0.000
   0.06000000  0.50000000  0.22049170       0.000
   0.06500000  0.50000000  0.21798611       0.000
   0.07000000  0.50000000  0.21548052       0.000
   0.07500000  0.50000000  0.21297493       0.000
   0.08000000  0.50000000  0.21046935       0.000
   0.08500000  0.50000000  0.20796376       0.000
   0.09000000  0.50000000  0.20545817       0.000
   0.09500000  0.50000000  0.20295258       0.000
   0.09999999  0.50000000  0.20044700       0.000
   0.10500000  0.50000000  0.19794141       0.000
   0.11000000  0.50000000  0.19543582       0.000
   0.11499999  0.50000000  0.19293024       0.000
   0.12000000  0.50000000  0.19042465       0.000
   0.12500000  0.50000000  0.18791906       0.000
   0.13000000  0.50000000  0.18541347       0.000
   0.13499999  0.50000000  0.18290789       0.000
   0.14000000  0.50000000  0.18040230       0.000
   0.14500000  0.50000000  0.17789671       0.000
   0.14999999  0.50000000  0.17539113       0.000
   0.15500000  0.50000000  0.17288553       0.000
   0.16000000  0.50000000  0.17037995       0.000
   0.16499999  0.50000000  0.16787436       0.000
   0.17000000  0.50000000  0.16536877       0.000
   0.17500000  0.50000000  0.16286318       0.000
   0.17999999  0.50000000  0.16035760       0.000
   0.18500000  0.50000000  0.15785201       0.000
   0.19000000  0.50000000  0.15534642       0.000
   0.19499999  0.50000000  0.15284084       0.000
   0.19999999  0.50000000  0.15033525       0.000
   0.20500000  0.50000000  0.14782966       0.000
   0.20999999  0.50000000  0.14532408       0.000
   0.21499999  0.50000000  0.14281849       0.000
   0.22000000  0.50000000  0.14031290       0.000
   0.22499999  0.50000000  0.13780732       0.000
   0.22999999  0.50000000  0.13530173       0.000
   0.23500000  0.50000000  0.13279614       0.000
   0.23999999  0.50000000  0.13029055       0.000
   0.24499999  0.50000000  0.12778497       0.000
   0.25000000  0.50000000  0.12527937       0.000
   0.25500000  0.50000000  0.12277379       0.000
   0.25999999  0.50000000  0.12026820       0.000
   0.26499999  0.50000000  0.11776262       0.000
   0.26999998  0.50000000  0.11525703       0.000
   0.27500001  0.50000000  0.11275143       0.000
   0.28000000  0.50000000  0.11024585       0.000
   0.28500000  0.50000000  0.10774026       0.000
   0.28999999  0.50000000  0.10523468       0.000
   0.29499999  0.50000000  0.10272909       0.000
   0.29999998  0.50000000  0.10022351       0.000
   0.30500001  0.50000000  0.09771791       0.000
   0.31000000  0.50000000  0.09521232       0.000
   0.31500000  0.50000000  0.09270674       0.000
   0.31999999  0.50000000  0.09020115       0.000
   0.32499999  0.50000000  0.08769557       0.000
   0.32999998  0.50000000  0.08518998       0.000
   0.33499998  0.50000000  0.08268440       0.000
   0.34000000  0.50000000  0.08017880       0.000
   0.34500000  0.50000000  0.07767321       0.000
   0.34999999  0.50000000  0.07516763       0.000
   0.35499999  0.50000000  0.07266204       0.000
   0.35999998  0.50000000  0.07015646       0.000
   0.36499998  0.50000000  0.06765087       0.000
   0.37000000  0.50000000  0.06514527       0.000
   0.37500000  0.50000000  0.06263969       0.000
   0.38000000  0.50000000  0.06013410       0.000
   0.38499999  0.50000000  0.05762852       0.000
   0.38999999  0.50000000  0.05512293       0.000
   0.39499998  0.50000000  0.05261735       0.000
   0.39999998  0.50000000  0.05011176       0.000
   0.40500000  0.50000000  0.04760616       0.000
   0.41000000  0.50000000  0.04510057       0.000
   0.41499999  0.50000000  0.04259499       0.000
   0.41999999  0.50000000  0.04008940       0.000
   0.42499998  0.50000000  0.03758382       0.000
   0.42999998  0.50000000  0.03507823       0.000
   0.43500000  0.50000000  0.03257264       0.000
   0.44000000  0.50000000  0.03006705       0.000
   0.44499999  0.50000000  0.02756147       0.000
   0.44999999  0.50000000  0.02505588       0.000
   0.45499998  0.50000000  0.02255030       0.000
   0.45999998  0.50000000  0.02004471       0.000
   0.46500000  0.50000000  0.01753911       0.000
   0.47000000  0.50000000  0.01503352       0.000
   0.47499999  0.50000000  0.01252794       0.000
   0.47999999  0.50000000  0.01002235       0.000
   0.48499998  0.50000000  0.00751677       0.000
   0.48999998  0.50000000  0.00501118       0.000
   0.49499997  0.50000000  0.00250560       0.000
   0.50000000  0.50000000  0.00000000       0.000
   0.49645391  0.49645391  0.00355402       0.000
   0.49290779  0.49290779  0.00710806       0.000
   0.48936170  0.48936170  0.01066208       0.000
   0.48581561  0.48581561  0.01421609       0.000
   0.48226950  0.48226950  0.01777013       0.000
   0.47872341  0.47872341  0.02132414       0.000
   0.47517732  0.47517732  0.02487816       0.000
   0.47163120  0.47163120  0.02843220       0.000
   0.46808511  0.46808511  0.03198622       0.000
   0.46453899  0.46453899  0.03554026       0.000
   0.46099290  0.46099290  0.03909428       0.000
   0.45744681  0.45744681  0.04264830       0.000
   0.45390069  0.45390069  0.04620234       0.000
   0.45035461  0.45035461  0.04975635       0.000
   0.44680852  0.44680852  0.05331036       0.000
   0.44326240  0.44326240  0.05686441       0.000
   0.43971631  0.43971631  0.06041842       0.000
   0.43617022  0.43617022  0.06397244       0.000
   0.43262410  0.43262410  0.06752648       0.000
   0.42907801  0.42907801  0.07108050       0.000
   0.42553192  0.42553192  0.07463451       0.000
   0.42198581  0.42198581  0.07818855       0.000
   0.41843972  0.41843972  0.08174257       0.000
   0.41489363  0.41489363  0.08529658       0.000
   0.41134751  0.41134751  0.08885063       0.000
   0.40780142  0.40780142  0.09240464       0.000
   0.40425533  0.40425533  0.09595866       0.000
   0.40070921  0.40070921  0.09951270       0.000
   0.39716312  0.39716312  0.10306672       0.000
   0.39361703  0.39361703  0.10662073       0.000
   0.39007092  0.39007092  0.11017477       0.000
   0.38652483  0.38652483  0.11372879       0.000
   0.38297874  0.38297874  0.11728280       0.000
   0.37943262  0.37943262  0.12083685       0.000
   0.37588653  0.37588653  0.12439086       0.000
   0.37234044  0.37234044  0.12794488       0.000
   0.36879432  0.36879432  0.13149892       0.000
   0.36524823  0.36524823  0.13505294       0.000
   0.36170214  0.36170214  0.13860695       0.000
   0.35815603  0.35815603  0.14216099       0.000
   0.35460994  0.35460994  0.14571500       0.000
   0.35106385  0.35106385  0.14926902       0.000
   0.34751773  0.34751773  0.15282307       0.000
   0.34397164  0.34397164  0.15637708       0.000
   0.34042555  0.34042555  0.15993110       0.000
   0.33687943  0.33687943  0.16348514       0.000
   0.33333334  0.33333334  0.16703916       0.000
   0.32978722  0.32978722  0.17059320       0.000
   0.32624114  0.32624114  0.17414721       0.000
   0.32269502  0.32269502  0.17770125       0.000
   0.31914896  0.31914896  0.18125524       0.000
   0.31560284  0.31560284  0.18480928       0.000
   0.31205675  0.31205675  0.18836330       0.000
   0.30851063  0.30851063  0.19191735       0.000
   0.30496454  0.30496454  0.19547136       0.000
   0.30141842  0.30141842  0.19902541       0.000
   0.29787236  0.29787236  0.20257939       0.000
   0.29432625  0.29432625  0.20613343       0.000
   0.29078016  0.29078016  0.20968744       0.000
   0.28723404  0.28723404  0.21324149       0.000
   0.28368795  0.28368795  0.21679550       0.000
   0.28014183  0.28014183  0.22034955       0.000
   0.27659577  0.27659577  0.22390353       0.000
   0.27304965  0.27304965  0.22745758       0.000
   0.26950353  0.26950353  0.23101163       0.000
   0.26595744  0.26595744  0.23456564       0.000
   0.26241136  0.26241136  0.23811965       0.000
   0.25886524  0.25886524  0.24167369       0.000
   0.25531915  0.25531915  0.24522771       0.000
   0.25177306  0.25177306  0.24878172       0.000
   0.24822694  0.24822694  0.25233577       0.000
   0.24468085  0.24468085  0.25588978       0.000
   0.24113473  0.24113473  0.25944383       0.000
   0.23758867  0.23758867  0.26299782       0.000
   0.23404256  0.23404256  0.26655185       0.000
   0.23049647  0.23049647  0.27010587       0.000
   0.22695035  0.22695035  0.27365991       0.000
   0.22340426  0.22340426  0.27721393       0.000
   0.21985814  0.21985814  0.28076797       0.000
   0.21631205  0.21631205  0.28432199       0.000
   0.21276596  0.21276596  0.28787600       0.000
   0.20921987  0.20921987  0.29143002       0.000
   0.20567375  0.20567375  0.29498406       0.000
   0.20212767  0.20212767  0.29853807       0.000
   0.19858155  0.19858155  0.30209212       0.000
   0.19503546  0.19503546  0.30564613       0.000
   0.19148937  0.19148937  0.30920015       0.000
   0.18794328  0.18794328  0.31275416       0.000
   0.18439716  0.18439716  0.31630821       0.000
   0.18085107  0.18085107  0.31986222       0.000
   0.17730495  0.17730495  0.32341627       0.000
   0.17375886  0.17375886  0.32697028       0.000
   0.17021278  0.17021278  0.33052429       0.000
   0.16666669  0.16666669  0.33407830       0.000
   0.16312057  0.16312057  0.33763235       0.000
   0.15957445  0.15957445  0.34118640       0.000
   0.15602836  0.15602836  0.34474041       0.000
   0.15248227  0.15248227  0.34829443       0.000
   0.14893618  0.14893618  0.35184844       0.000
   0.14539006  0.14539006  0.35540249       0.000
   0.14184394  0.14184394  0.35895653       0.000
   0.13829789  0.13829789  0.36251051       0.000
   0.13475177  0.13475177  0.36606455       0.000
   0.13120568  0.13120568  0.36961857       0.000
   0.12765956  0.12765956  0.37317261       0.000
   0.12411350  0.12411350  0.37672660       0.000
   0.12056738  0.12056738  0.38028065       0.000
   0.11702126  0.11702126  0.38383469       0.000
   0.11347517  0.11347517  0.38738871       0.000
   0.10992908  0.10992908  0.39094272       0.000
   0.10638300  0.10638300  0.39449673       0.000
   0.10283688  0.10283688  0.39805077       0.000
   0.09929076  0.09929076  0.40160482       0.000
   0.09574470  0.09574470  0.40515880       0.000
   0.09219858  0.09219858  0.40871285       0.000
   0.08865249  0.08865249  0.41226687       0.000
   0.08510637  0.08510637  0.41582091       0.000
   0.08156031  0.08156031  0.41937490       0.000
   0.07801419  0.07801419  0.42292894       0.000
   0.07446808  0.07446808  0.42648298       0.000
   0.07092199  0.07092199  0.43003699       0.000
   0.06737590  0.06737590  0.43359101       0.000
   0.06382981  0.06382981  0.43714502       0.000
   0.06028369  0.06028369  0.44069907       0.000
   0.05673757  0.05673757  0.44425311       0.000
   0.05319151  0.05319151  0.44780710       0.000
   0.04964539  0.04964539  0.45136115       0.000
   0.04609931  0.04609931  0.45491515       0.000
   0.04255319  0.04255319  0.45846920       0.000
   0.03900707  0.03900707  0.46202324       0.000
   0.03546101  0.03546101  0.46557723       0.000
   0.03191489  0.03191489  0.46913127       0.000
   0.02836880  0.02836880  0.47268529       0.000
   0.02482268  0.02482268  0.47623933       0.000
   0.02127662  0.02127662  0.47979332       0.000
   0.01773050  0.01773050  0.48334736       0.000
   0.01418439  0.01418439  0.48690140       0.000
   0.01063830  0.01063830  0.49045542       0.000
   0.00709221  0.00709221  0.49400943       0.000
   0.00354612  0.00354612  0.49756345       0.000
 
 k-points in reciprocal lattice and weights: Automatically generated mesh (51 to igno
   0.00000000  0.00000000  0.00000000       0.007
   0.16666667  0.00000000  0.00000000       0.028
   0.33333333  0.00000000  0.00000000       0.028
   0.50000000  0.00000000  0.00000000       0.028
   0.16666667  0.16666667  0.00000000       0.014
   0.33333333  0.16666667  0.00000000       0.028
   0.50000000  0.16666667  0.00000000       0.028
  -0.33333333  0.16666667  0.00000000       0.014
  -0.16666667  0.16666667  0.00000000       0.014
   0.16666667  0.33333333  0.00000000       0.028
   0.33333333  0.33333333  0.00000000       0.014
   0.50000000  0.33333333  0.00000000       0.028
  -0.33333333  0.33333333  0.00000000       0.014
  -0.16666667  0.33333333  0.00000000       0.014
   0.16666667  0.50000000  0.00000000       0.028
   0.33333333  0.50000000  0.00000000       0.028
   0.50000000  0.50000000  0.00000000       0.014
   0.00000000  0.00000000  0.25000000       0.014
   0.16666667  0.00000000  0.25000000       0.028
   0.33333333  0.00000000  0.25000000       0.028
   0.50000000  0.00000000  0.25000000       0.028
  -0.33333333  0.00000000  0.25000000       0.028
  -0.16666667  0.00000000  0.25000000       0.028
   0.16666667  0.16666667  0.25000000       0.014
   0.33333333  0.16666667  0.25000000       0.014
   0.50000000  0.16666667  0.25000000       0.028
  -0.33333333  0.16666667  0.25000000       0.014
  -0.16666667  0.16666667  0.25000000       0.028
   0.16666667  0.33333333  0.25000000       0.014
   0.33333333  0.33333333  0.25000000       0.014
   0.50000000  0.33333333  0.25000000       0.028
  -0.33333333  0.33333333  0.25000000       0.028
  -0.16666667  0.33333333  0.25000000       0.014
   0.16666667  0.50000000  0.25000000       0.028
   0.33333333  0.50000000  0.25000000       0.028
   0.50000000  0.50000000  0.25000000       0.014
   0.16666667 -0.33333333  0.25000000       0.014
  -0.33333333 -0.33333333  0.25000000       0.014
  -0.16666667 -0.33333333  0.25000000       0.014
   0.33333333 -0.16666667  0.25000000       0.014
  -0.33333333 -0.16666667  0.25000000       0.014
  -0.16666667 -0.16666667  0.25000000       0.014
   0.00000000  0.00000000  0.50000000       0.007
   0.16666667  0.00000000  0.50000000       0.028
   0.33333333  0.00000000  0.50000000       0.028
   0.16666667  0.16666667  0.50000000       0.014
  -0.33333333  0.16666667  0.50000000       0.014
  -0.16666667  0.16666667  0.50000000       0.014
   0.33333333  0.33333333  0.50000000       0.014
  -0.33333333  0.33333333  0.50000000       0.014
  -0.16666667  0.33333333  0.50000000       0.014
   0.00000000  0.00000000  0.00000000       0.000
   0.00000000  0.00500000  0.00000000       0.000
   0.00000000  0.01000000  0.00000000       0.000
   0.00000000  0.01500000  0.00000000       0.000
   0.00000000  0.02000000  0.00000000       0.000
   0.00000000  0.02500000  0.00000000       0.000
   0.00000000  0.03000000  0.00000000       0.000
   0.00000000  0.03500000  0.00000000       0.000
   0.00000000  0.04000000  0.00000000       0.000
   0.00000000  0.04500000  0.00000000       0.000
   0.00000000  0.05000000  0.00000000       0.000
   0.00000000  0.05500000  0.00000000       0.000
   0.00000000  0.06000000  0.00000000       0.000
   0.00000000  0.06500000  0.00000000       0.000
   0.00000000  0.07000000  0.00000000       0.000
   0.00000000  0.07500000  0.00000000       0.000
   0.00000000  0.08000000  0.00000000       0.000
   0.00000000  0.08500000  0.00000000       0.000
   0.00000000  0.09000000  0.00000000       0.000
   0.00000000  0.09500000  0.00000000       0.000
   0.00000000  0.09999999  0.00000000       0.000
   0.00000000  0.10500000  0.00000000       0.000
   0.00000000  0.11000000  0.00000000       0.000
   0.00000000  0.11499999  0.00000000       0.000
   0.00000000  0.12000000  0.00000000       0.000
   0.00000000  0.12500000  0.00000000       0.000
   0.00000000  0.13000000  0.00000000       0.000
   0.00000000  0.13499999  0.00000000       0.000
   0.00000000  0.14000000  0.00000000       0.000
   0.00000000  0.14500000  0.00000000       0.000
   0.00000000  0.14999999  0.00000000       0.000
   0.00000000  0.15500000  0.00000000       0.000
   0.00000000  0.16000000  0.00000000       0.000
   0.00000000  0.16499999  0.00000000       0.000
   0.00000000  0.17000000  0.00000000       0.000
   0.00000000  0.17500000  0.00000000       0.000
   0.00000000  0.17999999  0.00000000       0.000
   0.00000000  0.18500000  0.00000000       0.000
   0.00000000  0.19000000  0.00000000       0.000
   0.00000000  0.19499999  0.00000000       0.000
   0.00000000  0.19999999  0.00000000       0.000
   0.00000000  0.20500000  0.00000000       0.000
   0.00000000  0.20999999  0.00000000       0.000
   0.00000000  0.21499999  0.00000000       0.000
   0.00000000  0.22000000  0.00000000       0.000
   0.00000000  0.22499999  0.00000000       0.000
   0.00000000  0.22999999  0.00000000       0.000
   0.00000000  0.23500000  0.00000000       0.000
   0.00000000  0.23999999  0.00000000       0.000
   0.00000000  0.24499999  0.00000000       0.000
   0.00000000  0.25000000  0.00000000       0.000
   0.00000000  0.25500000  0.00000000       0.000
   0.00000000  0.25999999  0.00000000       0.000
   0.00000000  0.26499999  0.00000000       0.000
   0.00000000  0.26999998  0.00000000       0.000
   0.00000000  0.27500001  0.00000000       0.000
   0.00000000  0.28000000  0.00000000       0.000
   0.00000000  0.28500000  0.00000000       0.000
   0.00000000  0.28999999  0.00000000       0.000
   0.00000000  0.29499999  0.00000000       0.000
   0.00000000  0.29999998  0.00000000       0.000
   0.00000000  0.30500001  0.00000000       0.000
   0.00000000  0.31000000  0.00000000       0.000
   0.00000000  0.31500000  0.00000000       0.000
   0.00000000  0.31999999  0.00000000       0.000
   0.00000000  0.32499999  0.00000000       0.000
   0.00000000  0.32999998  0.00000000       0.000
   0.00000000  0.33499998  0.00000000       0.000
   0.00000000  0.34000000  0.00000000       0.000
   0.00000000  0.34500000  0.00000000       0.000
   0.00000000  0.34999999  0.00000000       0.000
   0.00000000  0.35499999  0.00000000       0.000
   0.00000000  0.35999998  0.00000000       0.000
   0.00000000  0.36499998  0.00000000       0.000
   0.00000000  0.37000000  0.00000000       0.000
   0.00000000  0.37500000  0.00000000       0.000
   0.00000000  0.38000000  0.00000000       0.000
   0.00000000  0.38499999  0.00000000       0.000
   0.00000000  0.38999999  0.00000000       0.000
   0.00000000  0.39499998  0.00000000       0.000
   0.00000000  0.39999998  0.00000000       0.000
   0.00000000  0.40500000  0.00000000       0.000
   0.00000000  0.41000000  0.00000000       0.000
   0.00000000  0.41499999  0.00000000       0.000
   0.00000000  0.41999999  0.00000000       0.000
   0.00000000  0.42499998  0.00000000       0.000
   0.00000000  0.42999998  0.00000000       0.000
   0.00000000  0.43500000  0.00000000       0.000
   0.00000000  0.44000000  0.00000000       0.000
   0.00000000  0.44499999  0.00000000       0.000
   0.00000000  0.44999999  0.00000000       0.000
   0.00000000  0.45499998  0.00000000       0.000
   0.00000000  0.45999998  0.00000000       0.000
   0.00000000  0.46500000  0.00000000       0.000
   0.00000000  0.47000000  0.00000000       0.000
   0.00000000  0.47499999  0.00000000       0.000
   0.00000000  0.47999999  0.00000000       0.000
   0.00000000  0.48499998  0.00000000       0.000
   0.00000000  0.48999998  0.00000000       0.000
   0.00000000  0.49499997  0.00000000       0.000
   0.00000000  0.50000000  0.00000000       0.000
   0.00500000  0.50000000  0.00000000       0.000
   0.01000000  0.50000000  0.00000000       0.000
   0.01500000  0.50000000  0.00000000       0.000
   0.02000000  0.50000000  0.00000000       0.000
   0.02500000  0.50000000  0.00000000       0.000
   0.03000000  0.50000000  0.00000000       0.000
   0.03500000  0.50000000  0.00000000       0.000
   0.04000000  0.50000000  0.00000000       0.000
   0.04500000  0.50000000  0.00000000       0.000
   0.05000000  0.50000000  0.00000000       0.000
   0.05500000  0.50000000  0.00000000       0.000
   0.06000000  0.50000000  0.00000000       0.000
   0.06500000  0.50000000  0.00000000       0.000
   0.07000000  0.50000000  0.00000000       0.000
   0.07500000  0.50000000  0.00000000       0.000
   0.08000000  0.50000000  0.00000000       0.000
   0.08500000  0.50000000  0.00000000       0.000
   0.09000000  0.50000000  0.00000000       0.000
   0.09500000  0.50000000  0.00000000       0.000
   0.09999999  0.50000000  0.00000000       0.000
   0.10500000  0.50000000  0.00000000       0.000
   0.11000000  0.50000000  0.00000000       0.000
   0.11499999  0.50000000  0.00000000       0.000
   0.12000000  0.50000000  0.00000000       0.000
   0.12500000  0.50000000  0.00000000       0.000
   0.13000000  0.50000000  0.00000000       0.000
   0.13499999  0.50000000  0.00000000       0.000
   0.14000000  0.50000000  0.00000000       0.000
   0.14500000  0.50000000  0.00000000       0.000
   0.14999999  0.50000000  0.00000000       0.000
   0.15500000  0.50000000  0.00000000       0.000
   0.16000000  0.50000000  0.00000000       0.000
   0.16499999  0.50000000  0.00000000       0.000
   0.17000000  0.50000000  0.00000000       0.000
   0.17500000  0.50000000  0.00000000       0.000
   0.17999999  0.50000000  0.00000000       0.000
   0.18500000  0.50000000  0.00000000       0.000
   0.19000000  0.50000000  0.00000000       0.000
   0.19499999  0.50000000  0.00000000       0.000
   0.19999999  0.50000000  0.00000000       0.000
   0.20500000  0.50000000  0.00000000       0.000
   0.20999999  0.50000000  0.00000000       0.000
   0.21499999  0.50000000  0.00000000       0.000
   0.22000000  0.50000000  0.00000000       0.000
   0.22499999  0.50000000  0.00000000       0.000
   0.22999999  0.50000000  0.00000000       0.000
   0.23500000  0.50000000  0.00000000       0.000
   0.23999999  0.50000000  0.00000000       0.000
   0.24499999  0.50000000  0.00000000       0.000
   0.25000000  0.50000000  0.00000000       0.000
   0.25500000  0.50000000  0.00000000       0.000
   0.25999999  0.50000000  0.00000000       0.000
   0.26499999  0.50000000  0.00000000       0.000
   0.26999998  0.50000000  0.00000000       0.000
   0.27500001  0.50000000  0.00000000       0.000
   0.28000000  0.50000000  0.00000000       0.000
   0.28500000  0.50000000  0.00000000       0.000
   0.28999999  0.50000000  0.00000000       0.000
   0.29499999  0.50000000  0.00000000       0.000
   0.29999998  0.50000000  0.00000000       0.000
   0.30500001  0.50000000  0.00000000       0.000
   0.31000000  0.50000000  0.00000000       0.000
   0.31500000  0.50000000  0.00000000       0.000
   0.31999999  0.50000000  0.00000000       0.000
   0.32499999  0.50000000  0.00000000       0.000
   0.32999998  0.50000000  0.00000000       0.000
   0.33499998  0.50000000  0.00000000       0.000
   0.34000000  0.50000000  0.00000000       0.000
   0.34500000  0.50000000  0.00000000       0.000
   0.34999999  0.50000000  0.00000000       0.000
   0.35499999  0.50000000  0.00000000       0.000
   0.35999998  0.50000000  0.00000000       0.000
   0.36499998  0.50000000  0.00000000       0.000
   0.37000000  0.50000000  0.00000000       0.000
   0.37500000  0.50000000  0.00000000       0.000
   0.38000000  0.50000000  0.00000000       0.000
   0.38499999  0.50000000  0.00000000       0.000
   0.38999999  0.50000000  0.00000000       0.000
   0.39499998  0.50000000  0.00000000       0.000
   0.39999998  0.50000000  0.00000000       0.000
   0.40500000  0.50000000  0.00000000       0.000
   0.41000000  0.50000000  0.00000000       0.000
   0.41499999  0.50000000  0.00000000       0.000
   0.41999999  0.50000000  0.00000000       0.000
   0.42499998  0.50000000  0.00000000       0.000
   0.42999998  0.50000000  0.00000000       0.000
   0.43500000  0.50000000  0.00000000       0.000
   0.44000000  0.50000000  0.00000000       0.000
   0.44499999  0.50000000  0.00000000       0.000
   0.44999999  0.50000000  0.00000000       0.000
   0.45499998  0.50000000  0.00000000       0.000
   0.45999998  0.50000000  0.00000000       0.000
   0.46500000  0.50000000  0.00000000       0.000
   0.47000000  0.50000000  0.00000000       0.000
   0.47499999  0.50000000  0.00000000       0.000
[...]
     26       0.5983      2.00000
     27       0.6026      2.00000
     28       1.0526      2.00000
     29       1.0543      2.00000
     30       1.3832      2.00000
     31       1.5169      2.00000
     32       1.5194      2.00000
     33       2.4704      2.00000
     34       2.7387      2.00000
     35       2.7923      2.00000
     36       2.8741      2.00000
     37       3.4785      2.00000
     38       3.5595      2.00000
     39       3.5806      2.00000
     40       3.6357      2.00000
     41       3.8688      2.00000
     42       3.8698      2.00000
     43       6.1487      0.00000
     44       6.7049      0.00000
     45       6.7058      0.00000
     46       7.0718      0.00000
     47       7.8751      0.00000
     48       8.1042      0.00000
     49       8.8378      0.00000
     50       8.8803      0.00000
     51      11.2382      0.00000
     52      11.2549      0.00000

 k-point   811 :       0.0142    0.0142    0.5000
  band No.  band energies     occupation 
      1     -63.9187      2.00000
      2     -63.8637      2.00000
      3     -63.8637      2.00000
      4     -63.8427      2.00000
      5     -63.8427      2.00000
      6     -63.8354      2.00000
      7     -17.4122      2.00000
      8     -17.4080      2.00000
      9     -17.4080      2.00000
     10     -17.3169      2.00000
     11     -17.3114      2.00000
     12      -9.2292      2.00000
     13      -8.8211      2.00000
     14      -8.1465      2.00000
     15      -8.1462      2.00000
     16      -3.4338      2.00000
     17      -2.5111      2.00000
     18      -2.4621      2.00000
     19      -2.4610      2.00000
     20      -2.3756      2.00000
     21      -2.0712      2.00000
     22      -1.2200      2.00000
     23       0.1406      2.00000
     24       0.2229      2.00000
     25       0.5063      2.00000
     26       0.5988      2.00000
     27       0.6016      2.00000
     28       1.0534      2.00000
     29       1.0545      2.00000
     30       1.3831      2.00000
     31       1.5180      2.00000
     32       1.5196      2.00000
     33       2.4690      2.00000
     34       2.7378      2.00000
     35       2.7927      2.00000
     36       2.8735      2.00000
     37       3.4833      2.00000
     38       3.5647      2.00000
     39       3.5797      2.00000
     40       3.6305      2.00000
     41       3.8676      2.00000
     42       3.8683      2.00000
     43       6.1482      0.00000
     44       6.7016      0.00000
     45       6.7022      0.00000
     46       7.0687      0.00000
     47       7.8738      0.00000
     48       8.1007      0.00000
     49       8.8356      0.00000
     50       8.8777      0.00000
     51      11.2496      0.00000
     52      11.2603      0.00000

 k-point   812 :       0.0106    0.0106    0.5000
  band No.  band energies     occupation 
      1     -63.9187      2.00000
      2     -63.8637      2.00000
      3     -63.8637      2.00000
      4     -63.8428      2.00000
      5     -63.8427      2.00000
      6     -63.8353      2.00000
      7     -17.4122      2.00000
      8     -17.4080      2.00000
      9     -17.4080      2.00000
     10     -17.3169      2.00000
     11     -17.3114      2.00000
     12      -9.2284      2.00000
     13      -8.8226      2.00000
     14      -8.1460      2.00000
     15      -8.1459      2.00000
     16      -3.4343      2.00000
     17      -2.5111      2.00000
     18      -2.4619      2.00000
     19      -2.4612      2.00000
     20      -2.3758      2.00000
     21      -2.0710      2.00000
     22      -1.2208      2.00000
     23       0.1509      2.00000
     24       0.2154      2.00000
     25       0.5072      2.00000
     26       0.5993      2.00000
     27       0.6008      2.00000
     28       1.0541      2.00000
     29       1.0547      2.00000
     30       1.3831      2.00000
     31       1.5188      2.00000
     32       1.5197      2.00000
     33       2.4678      2.00000
     34       2.7370      2.00000
     35       2.7930      2.00000
     36       2.8730      2.00000
     37       3.4872      2.00000
     38       3.5696      2.00000
     39       3.5789      2.00000
     40       3.6257      2.00000
     41       3.8667      2.00000
     42       3.8671      2.00000
     43       6.1477      0.00000
     44       6.6990      0.00000
     45       6.6994      0.00000
     46       7.0663      0.00000
     47       7.8728      0.00000
     48       8.0980      0.00000
     49       8.8339      0.00000
     50       8.8757      0.00000
     51      11.2589      0.00000
     52      11.2648      0.00000

 k-point   813 :       0.0071    0.0071    0.5000
  band No.  band energies     occupation 
      1     -63.9187      2.00000
      2     -63.8637      2.00000
      3     -63.8637      2.00000
      4     -63.8428      2.00000
      5     -63.8428      2.00000
      6     -63.8353      2.00000
      7     -17.4122      2.00000
      8     -17.4080      2.00000
      9     -17.4080      2.00000
     10     -17.3169      2.00000
     11     -17.3114      2.00000
     12      -9.2279      2.00000
     13      -8.8237      2.00000
     14      -8.1457      2.00000
     15      -8.1457      2.00000
     16      -3.4346      2.00000
     17      -2.5111      2.00000
     18      -2.4617      2.00000
     19      -2.4614      2.00000
     20      -2.3760      2.00000
     21      -2.0709      2.00000
     22      -1.2214      2.00000
     23       0.1604      2.00000
     24       0.2081      2.00000
     25       0.5079      2.00000
     26       0.5996      2.00000
     27       0.6003      2.00000
     28       1.0545      2.00000
     29       1.0548      2.00000
     30       1.3830      2.00000
     31       1.5194      2.00000
     32       1.5198      2.00000
     33       2.4670      2.00000
     34       2.7365      2.00000
     35       2.7933      2.00000
     36       2.8727      2.00000
     37       3.4901      2.00000
     38       3.5737      2.00000
     39       3.5782      2.00000
     40       3.6215      2.00000
     41       3.8660      2.00000
     42       3.8662      2.00000
     43       6.1474      0.00000
     44       6.6972      0.00000
     45       6.6973      0.00000
     46       7.0646      0.00000
     47       7.8721      0.00000
     48       8.0961      0.00000
     49       8.8326      0.00000
     50       8.8743      0.00000
     51      11.2656      0.00000
     52      11.2682      0.00000

 k-point   814 :       0.0035    0.0035    0.5000
  band No.  band energies     occupation 
      1     -63.9186      2.00000
      2     -63.8637      2.00000
      3     -63.8637      2.00000
      4     -63.8428      2.00000
      5     -63.8428      2.00000
      6     -63.8353      2.00000
      7     -17.4122      2.00000
      8     -17.4080      2.00000
      9     -17.4080      2.00000
     10     -17.3169      2.00000
     11     -17.3114      2.00000
     12      -9.2276      2.00000
     13      -8.8244      2.00000
     14      -8.1455      2.00000
     15      -8.1455      2.00000
     16      -3.4348      2.00000
     17      -2.5111      2.00000
     18      -2.4616      2.00000
     19      -2.4615      2.00000
     20      -2.3760      2.00000
     21      -2.0708      2.00000
     22      -1.2217      2.00000
     23       0.1679      2.00000
     24       0.2017      2.00000
     25       0.5082      2.00000
     26       0.5998      2.00000
     27       0.5999      2.00000
     28       1.0548      2.00000
     29       1.0548      2.00000
     30       1.3830      2.00000
     31       1.5198      2.00000
     32       1.5199      2.00000
     33       2.4665      2.00000
     34       2.7362      2.00000
     35       2.7935      2.00000
     36       2.8725      2.00000
     37       3.4919      2.00000
     38       3.5766      2.00000
     39       3.5778      2.00000
     40       3.6186      2.00000
     41       3.8656      2.00000
     42       3.8657      2.00000
     43       6.1472      0.00000
     44       6.6961      0.00000
     45       6.6961      0.00000
     46       7.0636      0.00000
     47       7.8717      0.00000
     48       8.0949      0.00000
     49       8.8319      0.00000
     50       8.8734      0.00000
     51      11.2700      0.00000
     52      11.2705      0.00000


--------------------------------------------------------------------------------------------------------


 soft charge-density along one line, spin component           1
         0         1         2         3         4         5         6         7         8         9
 total charge-density along one line
 
 pseudopotential strength for first ion, spin component:           1
-67.786  -0.000  -0.000  32.185   0.000   0.000   0.000  -0.000
 -0.000 -67.764  -0.000   0.000  32.170   0.000  -0.008   0.000
 -0.000  -0.000 -67.786   0.000   0.000  32.185   0.000  -0.008
 32.185   0.000   0.000  -9.262  -0.000  -0.000  -0.000   0.000
  0.000  32.170   0.000  -0.000  -9.252  -0.000   0.003  -0.000
  0.000   0.000  32.185  -0.000  -0.000  -9.262  -0.000   0.003
  0.000  -0.008   0.000  -0.000   0.003  -0.000  -7.456   0.000
 -0.000   0.000  -0.008   0.000  -0.000   0.003   0.000  -7.442
 -0.000   0.000   0.000   0.000  -0.000  -0.000  -0.000   0.000
 -0.008  -0.000   0.000   0.003   0.000  -0.000   0.000  -0.000
  0.000   0.000  -0.000  -0.000  -0.000   0.000   0.003   0.000
 -0.000   0.002  -0.000   0.000  -0.001   0.000  -0.483  -0.000
  0.000  -0.000   0.002  -0.000   0.000  -0.001  -0.000  -0.487
  0.000  -0.000  -0.000  -0.000   0.000   0.000   0.000  -0.000
  0.002   0.000  -0.000  -0.001  -0.000   0.000  -0.000   0.000
 -0.000  -0.000   0.000   0.000   0.000  -0.000  -0.001  -0.000
 -0.000   0.000   0.000   0.000  -0.000  -0.000   0.000   0.000
  0.000  -0.000  -0.000  -0.000   0.000   0.000  -0.000  -0.000
 total augmentation occupancy for first ion, spin component:           1
  2.000   0.000   0.000   0.000   0.000   0.000   0.000   0.000   0.000   0.000   0.000   0.000   0.000   0.000   0.000   0.000
  0.000   2.000   0.000   0.000   0.000   0.000   0.000   0.000   0.000   0.000   0.000   0.000   0.000   0.000   0.000   0.000
  0.000   0.000   2.000   0.000   0.000   0.000   0.000   0.000   0.000   0.000   0.000   0.000   0.000   0.000   0.000   0.000
  0.000   0.000   0.000   0.000   0.000   0.000   0.000   0.000   0.000   0.000   0.000   0.000   0.000   0.000   0.000   0.000
  0.000   0.000   0.000   0.000   0.000   0.000   0.000   0.000   0.000   0.000   0.000   0.000   0.000   0.000   0.000   0.000
  0.000   0.000   0.000   0.000   0.000   0.000   0.000   0.000   0.000   0.000   0.000   0.000   0.000   0.000   0.000   0.000
  0.000   0.000   0.000   0.000   0.000   0.000   2.000   0.000   0.000   0.000   0.000   0.000   0.000   0.000   0.000   0.000
  0.000   0.000   0.000   0.000   0.000   0.000   0.000   2.000   0.000   0.000   0.000   0.000   0.000   0.000   0.000   0.000
  0.000   0.000   0.000   0.000   0.000   0.000   0.000   0.000   2.000   0.000   0.000   0.000   0.000   0.000   0.000   0.000
  0.000   0.000   0.000   0.000   0.000   0.000   0.000   0.000   0.000   2.000   0.000   0.000   0.000   0.000   0.000   0.000
  0.000   0.000   0.000   0.000   0.000   0.000   0.000   0.000   0.000   0.000   2.000   0.000   0.000   0.000   0.000   0.000
  0.000   0.000   0.000   0.000   0.000   0.000   0.000   0.000   0.000   0.000   0.000   0.000   0.000   0.000   0.000   0.000
  0.000   0.000   0.000   0.000   0.000   0.000   0.000   0.000   0.000   0.000   0.000   0.000   0.000   0.000   0.000   0.000
  0.000   0.000   0.000   0.000   0.000   0.000   0.000   0.000   0.000   0.000   0.000   0.000   0.000   0.000   0.000   0.000
  0.000   0.000   0.000   0.000   0.000   0.000   0.000   0.000   0.000   0.000   0.000   0.000   0.000   0.000   0.000   0.000
  0.000   0.000   0.000   0.000   0.000   0.000   0.000   0.000   0.000   0.000   0.000   0.000   0.000   0.000   0.000   0.000
  0.000   0.000   0.000   0.000   0.000   0.000   0.000   0.000   0.000   0.000   0.000   0.000   0.000   0.000   0.000   0.000
  0.000   0.000   0.000   0.000   0.000   0.000   0.000   0.000   0.000   0.000   0.000   0.000   0.000   0.000   0.000   0.000


------------------------ aborting loop because EDIFF is reached ----------------------------------------


 


 total charge     
 
# of ion     s       p       d       tot
----------------------------------------
  1        0.241   6.176   8.963  15.380
  2        0.240   6.173   8.963  15.377
  3        0.541   0.476   9.797  10.814
  4        1.117   1.133  10.107  12.357
  5        1.327   2.362   0.000   3.689
  6        1.328   2.362   0.000   3.689
  7        1.327   2.362   0.000   3.689
  8        1.327   2.361   0.000   3.688
------------------------------------------------
tot        7.448  23.406  37.829  68.684
 
    CHARGE:  cpu time    0.06: real time    0.06
    FORLOC:  cpu time    0.00: real time    0.00
    FORNL :  cpu time    1.99: real time    1.99
    STRESS:  cpu time   11.69: real time   11.70
    FORCOR:  cpu time    0.01: real time    0.01
    FORHAR:  cpu time    0.01: real time    0.01
    OFIELD:  cpu time    0.00: real time    0.00

  FORCE on cell =-STRESS in cart. coord.  units (eV):
  Direction    XX          YY          ZZ          XY          YZ          ZX
  --------------------------------------------------------------------------------------
  Alpha Z   249.48650   249.48650   249.48650
  Ewald   -2394.86127 -2394.86127 -2366.21278     0.00000     0.00000     0.00000
  Hartree  1668.07087  1668.07087  1698.85408     0.00000     0.00016     0.00014
  E(xc)    -483.81912  -483.81912  -483.81854    -0.00000    -0.00000    -0.00000
  Local    -671.37310  -671.37310  -730.96423     0.00001    -0.00023    -0.00020
  n-local   230.88766   231.04724   231.58024     0.04796    -0.04604     0.11143
  augment   484.28350   484.28350   483.82131     0.00023    -0.00242    -0.00242
  Kinetic   911.54805   913.85809   912.70305    -0.03266    -0.19447    -0.39653
  Fock        0.00000     0.00000     0.00000     0.00000     0.00000     0.00000
  -------------------------------------------------------------------------------------
  Total      -4.54209    -4.54209    -4.55037     0.00000     0.00000     0.00000
  in kB     -45.42193   -45.42193   -45.50475     0.00000     0.00000     0.00000
  external pressure =      -45.45 kB  Pullay stress =        0.00 kB


 VOLUME and BASIS-vectors are now :
 -----------------------------------------------------------------------------
  energy-cutoff  :      500.00
  volume of cell :      160.21
      direct lattice vectors                 reciprocal lattice vectors
     5.435300000  0.000000000  0.000000000     0.183982485  0.000000000 -0.092196841
     0.000000000  5.435300000  0.000000000     0.000000000  0.183982485 -0.092196841
     2.717650000  2.717650000  5.423179281     0.000000000  0.000000000  0.184393683

  length of vectors
     5.435300000  5.435300000  6.646962958     0.205790700  0.205790700  0.184393683


 FORCES acting on ions
    electron-ion (+dipol)            ewald-force                    non-local-force                 convergence-correction
 -----------------------------------------------------------------------------------------------
   -.331E-05 -.337E-06 0.841E-06   0.790E-11 -.246E-11 -.851E-11   0.000E+00 0.867E-18 0.000E+00   -.442E-07 -.149E-06 -.877E-07
   0.648E-06 0.342E-05 0.157E-05   -.763E-11 -.242E-11 0.874E-11   0.867E-18 0.000E+00 0.000E+00   -.153E-06 -.233E-06 -.172E-06
   0.210E-05 -.320E-05 -.919E-06   0.543E-11 -.263E-11 0.605E-11   -.651E-18 0.867E-18 0.000E+00   -.228E-07 0.697E-07 0.699E-07
   0.241E-05 -.179E-05 -.992E-06   -.550E-11 -.257E-11 -.620E-11   -.347E-17 0.347E-17 0.000E+00   0.255E-07 0.778E-07 -.467E-07
   -.634E+02 -.739E+01 0.597E+01   0.613E+02 0.840E+01 -.704E+01   0.169E+01 -.823E+00 0.864E+00   0.207E-02 -.932E-03 0.258E-03
   0.634E+02 0.739E+01 0.597E+01   -.613E+02 -.840E+01 -.704E+01   -.169E+01 0.823E+00 0.864E+00   -.207E-02 0.932E-03 0.258E-03
   0.739E+01 -.634E+02 -.597E+01   -.840E+01 0.613E+02 0.704E+01   0.823E+00 0.169E+01 -.864E+00   0.932E-03 0.207E-02 -.258E-03
   -.739E+01 0.634E+02 -.597E+01   0.840E+01 -.613E+02 0.704E+01   -.823E+00 -.169E+01 -.864E+00   -.932E-03 -.207E-02 -.258E-03
 -----------------------------------------------------------------------------------------------
   -.193E-04 -.196E-04 0.529E-05   0.178E-14 -.711E-14 -.133E-13   -.111E-15 -.222E-15 -.111E-15   -.214E-06 -.266E-06 -.312E-06
 
 
 POSITION                                       TOTAL-FORCE (eV/Angst)
 -----------------------------------------------------------------------------------
      0.00000      0.00000      0.00000        -0.000000      0.000000     -0.000000
      5.43530      2.71765      2.71159        -0.000000      0.000000     -0.000000
      2.71765      2.71765      0.00000        -0.000000      0.000000     -0.000000
      2.71765      5.43530      2.71159        -0.000000      0.000000     -0.000000
      1.30213      1.38979      1.32105        -0.387686      0.194211     -0.208397
      4.13317      4.04551      1.32105         0.387686     -0.194211     -0.208397
      6.76316      4.01978      4.10213        -0.194211     -0.387686      0.208397
      4.10744      6.85082      4.10213         0.194211      0.387686      0.208397
 -----------------------------------------------------------------------------------
    total drift:                               -0.000019     -0.000020      0.000005


--------------------------------------------------------------------------------------------------------



  FREE ENERGIE OF THE ION-ELECTRON SYSTEM (eV)
  ---------------------------------------------------
  free  energy   TOTEN  =       -37.98501516 eV

  energy  without entropy=      -37.98501516  energy(sigma->0) =      -37.98501516
 


--------------------------------------------------------------------------------------------------------


    POTLOK:  cpu time    0.14: real time    0.14


--------------------------------------------------------------------------------------------------------




--------------------------------------------------------------------------------------------------------


 writing wavefunctions
     LOOP+:  cpu time  146.36: real time  158.89
    4ORBIT:  cpu time    0.00: real time    0.00
 


 total charge     
 
# of ion     s       p       d       tot
----------------------------------------
  1        0.241   6.176   8.963  15.380
  2        0.240   6.173   8.963  15.377
  3        0.541   0.476   9.797  10.814
  4        1.117   1.133  10.107  12.357
  5        1.327   2.362   0.000   3.689
  6        1.328   2.362   0.000   3.689
  7        1.327   2.362   0.000   3.689
  8        1.327   2.361   0.000   3.688
------------------------------------------------
tot        7.448  23.406  37.829  68.684
 

 total amount of memory used by VASP on root node   698980. kBytes
========================================================================

   base      :      30000. kBytes
   nonl-proj :     483999. kBytes
   fftplans  :       1896. kBytes
   grid      :       3584. kBytes
   one-center:         31. kBytes
   wavefun   :     179470. kBytes
 
  
  
 General timing and accounting informations for this job:
 ========================================================
  
                  Total CPU time used (sec):      166.773
                            User time (sec):      155.451
                          System time (sec):       11.321
                         Elapsed time (sec):      179.882
  
                   Maximum memory used (kb):      748928.
                   Average memory used (kb):           0.
  
                          Minor page faults:      3434487
                          Major page faults:            0
                 Voluntary context switches:         6584
