   8   8   1   0
  0.2002677E+02  0.5435300E-09  0.5435300E-09  0.6646963E-09  0.5000000E-15
  1.000000000000000E-004
  CAR 
 Name                                    
     15.78391705    -72.52800799  301      4.08258698      1.00000000
    -72.528  0.0000E+00  0.0000E+00
    -72.234  0.0000E+00  0.0000E+00
    -71.939  0.0000E+00  0.0000E+00
    -71.645  0.0000E+00  0.0000E+00
    -71.351  0.0000E+00  0.0000E+00
    -71.056  0.0000E+00  0.0000E+00
    -70.762  0.0000E+00  0.0000E+00
    -70.467  0.0000E+00  0.0000E+00
    -70.173  0.0000E+00  0.0000E+00
    -69.879  0.0000E+00  0.0000E+00
    -69.584  0.0000E+00  0.0000E+00
    -69.290  0.0000E+00  0.0000E+00
    -68.996  0.0000E+00  0.0000E+00
    -68.701  0.0000E+00  0.0000E+00
    -68.407  0.3397E+02  0.1200E+02
    -68.112  0.0000E+00  0.1200E+02
    -67.818  0.0000E+00  0.1200E+02
    -67.524  0.0000E+00  0.1200E+02
    -67.229  0.0000E+00  0.1200E+02
    -66.935  0.0000E+00  0.1200E+02
    -66.641  0.0000E+00  0.1200E+02
    -66.346  0.0000E+00  0.1200E+02
    -66.052  0.0000E+00  0.1200E+02
    -65.757  0.0000E+00  0.1200E+02
    -65.463  0.0000E+00  0.1200E+02
    -65.169  0.0000E+00  0.1200E+02
    -64.874  0.0000E+00  0.1200E+02
    -64.580  0.0000E+00  0.1200E+02
    -64.286  0.0000E+00  0.1200E+02
    -63.991  0.0000E+00  0.1200E+02
    -63.697  0.0000E+00  0.1200E+02
    -63.402  0.0000E+00  0.1200E+02
    -63.108  0.0000E+00  0.1200E+02
    -62.814  0.0000E+00  0.1200E+02
    -62.519  0.0000E+00  0.1200E+02
    -62.225  0.0000E+00  0.1200E+02
    -61.931  0.0000E+00  0.1200E+02
    -61.636  0.0000E+00  0.1200E+02
    -61.342  0.0000E+00  0.1200E+02
    -61.047  0.0000E+00  0.1200E+02
    -60.753  0.0000E+00  0.1200E+02
    -60.459  0.0000E+00  0.1200E+02
    -60.164  0.0000E+00  0.1200E+02
    -59.870  0.0000E+00  0.1200E+02
    -59.576  0.0000E+00  0.1200E+02
    -59.281  0.0000E+00  0.1200E+02
    -58.987  0.0000E+00  0.1200E+02
    -58.692  0.0000E+00  0.1200E+02
    -58.398  0.0000E+00  0.1200E+02
    -58.104  0.0000E+00  0.1200E+02
    -57.809  0.0000E+00  0.1200E+02
    -57.515  0.0000E+00  0.1200E+02
    -57.221  0.0000E+00  0.1200E+02
    -56.926  0.0000E+00  0.1200E+02
    -56.632  0.0000E+00  0.1200E+02
    -56.337  0.0000E+00  0.1200E+02
    -56.043  0.0000E+00  0.1200E+02
    -55.749  0.0000E+00  0.1200E+02
    -55.454  0.0000E+00  0.1200E+02
    -55.160  0.0000E+00  0.1200E+02
    -54.866  0.0000E+00  0.1200E+02
    -54.571  0.0000E+00  0.1200E+02
    -54.277  0.0000E+00  0.1200E+02
    -53.983  0.0000E+00  0.1200E+02
    -53.688  0.0000E+00  0.1200E+02
    -53.394  0.0000E+00  0.1200E+02
    -53.099  0.0000E+00  0.1200E+02
    -52.805  0.0000E+00  0.1200E+02
    -52.511  0.0000E+00  0.1200E+02
    -52.216  0.0000E+00  0.1200E+02
    -51.922  0.0000E+00  0.1200E+02
    -51.628  0.0000E+00  0.1200E+02
    -51.333  0.0000E+00  0.1200E+02
    -51.039  0.0000E+00  0.1200E+02
    -50.744  0.0000E+00  0.1200E+02
    -50.450  0.0000E+00  0.1200E+02
    -50.156  0.0000E+00  0.1200E+02
    -49.861  0.0000E+00  0.1200E+02
    -49.567  0.0000E+00  0.1200E+02
    -49.273  0.0000E+00  0.1200E+02
    -48.978  0.0000E+00  0.1200E+02
    -48.684  0.0000E+00  0.1200E+02
    -48.389  0.0000E+00  0.1200E+02
    -48.095  0.0000E+00  0.1200E+02
    -47.801  0.0000E+00  0.1200E+02
    -47.506  0.0000E+00  0.1200E+02
    -47.212  0.0000E+00  0.1200E+02
    -46.918  0.0000E+00  0.1200E+02
    -46.623  0.0000E+00  0.1200E+02
    -46.329  0.0000E+00  0.1200E+02
    -46.034  0.0000E+00  0.1200E+02
    -45.740  0.0000E+00  0.1200E+02
    -45.446  0.0000E+00  0.1200E+02
    -45.151  0.0000E+00  0.1200E+02
    -44.857  0.0000E+00  0.1200E+02
    -44.563  0.0000E+00  0.1200E+02
    -44.268  0.0000E+00  0.1200E+02
    -43.974  0.0000E+00  0.1200E+02
    -43.679  0.0000E+00  0.1200E+02
    -43.385  0.0000E+00  0.1200E+02
    -43.091  0.0000E+00  0.1200E+02
    -42.796  0.0000E+00  0.1200E+02
    -42.502  0.0000E+00  0.1200E+02
    -42.208  0.0000E+00  0.1200E+02
    -41.913  0.0000E+00  0.1200E+02
    -41.619  0.0000E+00  0.1200E+02
    -41.324  0.0000E+00  0.1200E+02
    -41.030  0.0000E+00  0.1200E+02
    -40.736  0.0000E+00  0.1200E+02
    -40.441  0.0000E+00  0.1200E+02
    -40.147  0.0000E+00  0.1200E+02
    -39.853  0.0000E+00  0.1200E+02
    -39.558  0.0000E+00  0.1200E+02
    -39.264  0.0000E+00  0.1200E+02
    -38.969  0.0000E+00  0.1200E+02
    -38.675  0.0000E+00  0.1200E+02
    -38.381  0.0000E+00  0.1200E+02
    -38.086  0.0000E+00  0.1200E+02
    -37.792  0.0000E+00  0.1200E+02
    -37.498  0.0000E+00  0.1200E+02
    -37.203  0.0000E+00  0.1200E+02
    -36.909  0.0000E+00  0.1200E+02
    -36.614  0.0000E+00  0.1200E+02
    -36.320  0.0000E+00  0.1200E+02
    -36.026  0.0000E+00  0.1200E+02
    -35.731  0.0000E+00  0.1200E+02
    -35.437  0.0000E+00  0.1200E+02
    -35.143  0.0000E+00  0.1200E+02
    -34.848  0.0000E+00  0.1200E+02
    -34.554  0.0000E+00  0.1200E+02
    -34.260  0.0000E+00  0.1200E+02
    -33.965  0.0000E+00  0.1200E+02
    -33.671  0.0000E+00  0.1200E+02
    -33.376  0.0000E+00  0.1200E+02
    -33.082  0.0000E+00  0.1200E+02
    -32.788  0.0000E+00  0.1200E+02
    -32.493  0.0000E+00  0.1200E+02
    -32.199  0.0000E+00  0.1200E+02
    -31.905  0.0000E+00  0.1200E+02
    -31.610  0.0000E+00  0.1200E+02
    -31.316  0.0000E+00  0.1200E+02
    -31.021  0.0000E+00  0.1200E+02
    -30.727  0.0000E+00  0.1200E+02
    -30.433  0.0000E+00  0.1200E+02
    -30.138  0.0000E+00  0.1200E+02
    -29.844  0.0000E+00  0.1200E+02
    -29.550  0.0000E+00  0.1200E+02
    -29.255  0.0000E+00  0.1200E+02
    -28.961  0.0000E+00  0.1200E+02
    -28.666  0.0000E+00  0.1200E+02
    -28.372  0.0000E+00  0.1200E+02
    -28.078  0.0000E+00  0.1200E+02
    -27.783  0.0000E+00  0.1200E+02
    -27.489  0.0000E+00  0.1200E+02
    -27.195  0.0000E+00  0.1200E+02
    -26.900  0.0000E+00  0.1200E+02
    -26.606  0.0000E+00  0.1200E+02
    -26.311  0.0000E+00  0.1200E+02
    -26.017  0.0000E+00  0.1200E+02
    -25.723  0.0000E+00  0.1200E+02
    -25.428  0.0000E+00  0.1200E+02
    -25.134  0.0000E+00  0.1200E+02
    -24.840  0.0000E+00  0.1200E+02
    -24.545  0.0000E+00  0.1200E+02
    -24.251  0.0000E+00  0.1200E+02
    -23.956  0.0000E+00  0.1200E+02
    -23.662  0.0000E+00  0.1200E+02
    -23.368  0.0000E+00  0.1200E+02
    -23.073  0.0000E+00  0.1200E+02
    -22.779  0.0000E+00  0.1200E+02
    -22.485  0.0000E+00  0.1200E+02
    -22.190  0.0000E+00  0.1200E+02
    -21.896  0.0000E+00  0.1200E+02
    -21.601  0.0000E+00  0.1200E+02
    -21.307  0.0000E+00  0.1200E+02
    -21.013  0.0000E+00  0.1200E+02
    -20.718  0.0000E+00  0.1200E+02
    -20.424  0.0000E+00  0.1200E+02
    -20.130  0.2038E+02  0.1800E+02
    -19.835  0.0000E+00  0.2200E+02
    -19.541  0.0000E+00  0.2200E+02
    -19.246  0.0000E+00  0.2200E+02
    -18.952  0.0000E+00  0.2200E+02
    -18.658  0.0000E+00  0.2200E+02
    -18.363  0.0000E+00  0.2200E+02
    -18.069  0.0000E+00  0.2200E+02
    -17.775  0.0000E+00  0.2200E+02
    -17.480  0.0000E+00  0.2200E+02
    -17.186  0.0000E+00  0.2200E+02
    -16.891  0.0000E+00  0.2200E+02
    -16.597  0.0000E+00  0.2200E+02
    -16.303  0.0000E+00  0.2200E+02
    -16.008  0.0000E+00  0.2200E+02
    -15.714  0.0000E+00  0.2200E+02
    -15.420  0.0000E+00  0.2200E+02
    -15.125  0.0000E+00  0.2200E+02
    -14.831  0.0000E+00  0.2200E+02
    -14.537  0.0000E+00  0.2200E+02
    -14.242  0.0000E+00  0.2200E+02
    -13.948  0.0000E+00  0.2200E+02
    -13.653  0.0000E+00  0.2200E+02
    -13.359  0.0000E+00  0.2200E+02
    -13.065  0.0000E+00  0.2200E+02
    -12.770  0.0000E+00  0.2200E+02
    -12.476  0.0000E+00  0.2200E+02
    -12.182  0.0000E+00  0.2200E+02
    -11.887  0.0000E+00  0.2200E+02
    -11.593  0.1887E+00  0.2207E+02
    -11.298  0.8066E+00  0.2258E+02
    -11.004  0.1027E+01  0.2366E+02
    -10.710  0.4817E-01  0.2401E+02
    -10.415  0.2444E+01  0.2562E+02
    -10.121  0.4498E+01  0.2920E+02
     -9.827  0.0000E+00  0.3000E+02
     -9.532  0.0000E+00  0.3000E+02
     -9.238  0.0000E+00  0.3000E+02
     -8.943  0.0000E+00  0.3000E+02
     -8.649  0.0000E+00  0.3000E+02
     -8.355  0.0000E+00  0.3000E+02
     -8.060  0.0000E+00  0.3000E+02
     -7.766  0.0000E+00  0.3000E+02
     -7.472  0.0000E+00  0.3000E+02
     -7.177  0.0000E+00  0.3000E+02
     -6.883  0.0000E+00  0.3000E+02
     -6.588  0.0000E+00  0.3000E+02
     -6.294  0.0000E+00  0.3000E+02
     -6.000  0.0000E+00  0.3000E+02
     -5.705  0.0000E+00  0.3000E+02
     -5.411  0.0000E+00  0.3000E+02
     -5.117  0.0000E+00  0.3000E+02
     -4.822  0.3494E+01  0.3171E+02
     -4.528  0.1344E+02  0.3998E+02
     -4.233  0.4249E-01  0.4001E+02
     -3.939  0.1094E+01  0.4089E+02
     -3.645  0.2831E+00  0.4200E+02
     -3.350  0.0000E+00  0.4200E+02
     -3.056  0.0000E+00  0.4200E+02
     -2.762  0.0000E+00  0.4200E+02
     -2.467  0.4127E+00  0.4215E+02
     -2.173  0.4895E+00  0.4264E+02
     -1.878  0.1137E+01  0.4438E+02
     -1.584  0.1054E+01  0.4512E+02
     -1.290  0.5900E+00  0.4626E+02
     -0.995  0.4390E+00  0.4782E+02
     -0.701  0.1186E+01  0.4932E+02
     -0.407  0.2106E+01  0.5119E+02
     -0.112  0.2163E+01  0.5403E+02
      0.182  0.1196E+01  0.5796E+02
      0.477  0.2078E+01  0.6065E+02
      0.771  0.1778E+01  0.6388E+02
      1.065  0.0000E+00  0.6400E+02
      1.360  0.1064E+00  0.6403E+02
      1.654  0.6335E+01  0.6792E+02
      1.948  0.2699E+01  0.7198E+02
      2.243  0.2579E+01  0.7381E+02
      2.537  0.2531E+01  0.7665E+02
      2.832  0.2536E+01  0.7893E+02
      3.126  0.1715E+01  0.8060E+02
      3.420  0.1317E+01  0.8260E+02
      3.715  0.6736E+00  0.8377E+02
      4.009  0.4718E-01  0.8400E+02
      4.303  0.0000E+00  0.8400E+02
      4.598  0.0000E+00  0.8400E+02
      4.892  0.0000E+00  0.8400E+02
      5.186  0.0000E+00  0.8400E+02
      5.481  0.0000E+00  0.8401E+02
      5.775  0.0000E+00  0.8401E+02
      6.070  0.4760E-01  0.8411E+02
      6.364  0.1886E+00  0.8479E+02
      6.658  0.1119E+01  0.8577E+02
      6.953  0.1887E+00  0.8600E+02
      7.247  0.1238E+00  0.8608E+02
      7.541  0.5160E+00  0.8642E+02
      7.836  0.9083E+00  0.8702E+02
      8.130  0.8244E+00  0.8817E+02
      8.425  0.1103E+01  0.8964E+02
      8.719  0.1146E+01  0.9127E+02
      9.013  0.7494E+00  0.9210E+02
      9.308  0.7865E+00  0.9313E+02
      9.602  0.1037E+01  0.9401E+02
      9.896  0.1309E+01  0.9476E+02
     10.191  0.1460E+01  0.9592E+02
     10.485  0.1116E+01  0.9697E+02
     10.780  0.9611E+00  0.9796E+02
     11.074  0.9432E+00  0.9883E+02
     11.368  0.8873E+00  0.9959E+02
     11.663  0.2831E+00  0.9994E+02
     11.957  0.0000E+00  0.1000E+03
     12.251  0.0000E+00  0.1000E+03
     12.546  0.0000E+00  0.1000E+03
     12.840  0.0000E+00  0.1000E+03
     13.135  0.0000E+00  0.1000E+03
     13.429  0.0000E+00  0.1000E+03
     13.723  0.0000E+00  0.1000E+03
     14.018  0.0000E+00  0.1000E+03
     14.312  0.0000E+00  0.1000E+03
     14.606  0.0000E+00  0.1000E+03
     14.901  0.0000E+00  0.1000E+03
     15.195  0.0000E+00  0.1000E+03
     15.490  0.0000E+00  0.1000E+03
     15.784  0.0000E+00  0.1000E+03
     15.78391705    -72.52800799  301      4.08258698      1.00000000
    -72.528  0.0000E+00  0.0000E+00  0.0000E+00
    -72.234  0.0000E+00  0.0000E+00  0.0000E+00
    -71.939  0.0000E+00  0.0000E+00  0.0000E+00
    -71.645  0.0000E+00  0.0000E+00  0.0000E+00
    -71.351  0.0000E+00  0.0000E+00  0.0000E+00
    -71.056  0.0000E+00  0.0000E+00  0.0000E+00
    -70.762  0.0000E+00  0.0000E+00  0.0000E+00
    -70.467  0.0000E+00  0.0000E+00  0.0000E+00
    -70.173  0.0000E+00  0.0000E+00  0.0000E+00
    -69.879  0.0000E+00  0.0000E+00  0.0000E+00
    -69.584  0.0000E+00  0.0000E+00  0.0000E+00
    -69.290  0.0000E+00  0.0000E+00  0.0000E+00
    -68.996  0.0000E+00  0.0000E+00  0.0000E+00
    -68.701  0.0000E+00  0.0000E+00  0.0000E+00
    -68.407  0.4186E-08  0.2033E+02  0.2644E-05
    -68.112  0.0000E+00  0.0000E+00  0.0000E+00
    -67.818  0.0000E+00  0.0000E+00  0.0000E+00
    -67.524  0.0000E+00  0.0000E+00  0.0000E+00
    -67.229  0.0000E+00  0.0000E+00  0.0000E+00
    -66.935  0.0000E+00  0.0000E+00  0.0000E+00
    -66.641  0.0000E+00  0.0000E+00  0.0000E+00
    -66.346  0.0000E+00  0.0000E+00  0.0000E+00
    -66.052  0.0000E+00  0.0000E+00  0.0000E+00
    -65.757  0.0000E+00  0.0000E+00  0.0000E+00
    -65.463  0.0000E+00  0.0000E+00  0.0000E+00
    -65.169  0.0000E+00  0.0000E+00  0.0000E+00
    -64.874  0.0000E+00  0.0000E+00  0.0000E+00
    -64.580  0.0000E+00  0.0000E+00  0.0000E+00
    -64.286  0.0000E+00  0.0000E+00  0.0000E+00
    -63.991  0.0000E+00  0.0000E+00  0.0000E+00
    -63.697  0.0000E+00  0.0000E+00  0.0000E+00
    -63.402  0.0000E+00  0.0000E+00  0.0000E+00
    -63.108  0.0000E+00  0.0000E+00  0.0000E+00
    -62.814  0.0000E+00  0.0000E+00  0.0000E+00
    -62.519  0.0000E+00  0.0000E+00  0.0000E+00
    -62.225  0.0000E+00  0.0000E+00  0.0000E+00
    -61.931  0.0000E+00  0.0000E+00  0.0000E+00
    -61.636  0.0000E+00  0.0000E+00  0.0000E+00
    -61.342  0.0000E+00  0.0000E+00  0.0000E+00
    -61.047  0.0000E+00  0.0000E+00  0.0000E+00
    -60.753  0.0000E+00  0.0000E+00  0.0000E+00
    -60.459  0.0000E+00  0.0000E+00  0.0000E+00
    -60.164  0.0000E+00  0.0000E+00  0.0000E+00
    -59.870  0.0000E+00  0.0000E+00  0.0000E+00
    -59.576  0.0000E+00  0.0000E+00  0.0000E+00
    -59.281  0.0000E+00  0.0000E+00  0.0000E+00
    -58.987  0.0000E+00  0.0000E+00  0.0000E+00
    -58.692  0.0000E+00  0.0000E+00  0.0000E+00
    -58.398  0.0000E+00  0.0000E+00  0.0000E+00
    -58.104  0.0000E+00  0.0000E+00  0.0000E+00
    -57.809  0.0000E+00  0.0000E+00  0.0000E+00
    -57.515  0.0000E+00  0.0000E+00  0.0000E+00
    -57.221  0.0000E+00  0.0000E+00  0.0000E+00
    -56.926  0.0000E+00  0.0000E+00  0.0000E+00
    -56.632  0.0000E+00  0.0000E+00  0.0000E+00
    -56.337  0.0000E+00  0.0000E+00  0.0000E+00
    -56.043  0.0000E+00  0.0000E+00  0.0000E+00
    -55.749  0.0000E+00  0.0000E+00  0.0000E+00
    -55.454  0.0000E+00  0.0000E+00  0.0000E+00
    -55.160  0.0000E+00  0.0000E+00  0.0000E+00
    -54.866  0.0000E+00  0.0000E+00  0.0000E+00
    -54.571  0.0000E+00  0.0000E+00  0.0000E+00
    -54.277  0.0000E+00  0.0000E+00  0.0000E+00
    -53.983  0.0000E+00  0.0000E+00  0.0000E+00
    -53.688  0.0000E+00  0.0000E+00  0.0000E+00
    -53.394  0.0000E+00  0.0000E+00  0.0000E+00
    -53.099  0.0000E+00  0.0000E+00  0.0000E+00
    -52.805  0.0000E+00  0.0000E+00  0.0000E+00
    -52.511  0.0000E+00  0.0000E+00  0.0000E+00
    -52.216  0.0000E+00  0.0000E+00  0.0000E+00
    -51.922  0.0000E+00  0.0000E+00  0.0000E+00
    -51.628  0.0000E+00  0.0000E+00  0.0000E+00
    -51.333  0.0000E+00  0.0000E+00  0.0000E+00
    -51.039  0.0000E+00  0.0000E+00  0.0000E+00
    -50.744  0.0000E+00  0.0000E+00  0.0000E+00
    -50.450  0.0000E+00  0.0000E+00  0.0000E+00
    -50.156  0.0000E+00  0.0000E+00  0.0000E+00
    -49.861  0.0000E+00  0.0000E+00  0.0000E+00
    -49.567  0.0000E+00  0.0000E+00  0.0000E+00
    -49.273  0.0000E+00  0.0000E+00  0.0000E+00
    -48.978  0.0000E+00  0.0000E+00  0.0000E+00
    -48.684  0.0000E+00  0.0000E+00  0.0000E+00
    -48.389  0.0000E+00  0.0000E+00  0.0000E+00
    -48.095  0.0000E+00  0.0000E+00  0.0000E+00
    -47.801  0.0000E+00  0.0000E+00  0.0000E+00
    -47.506  0.0000E+00  0.0000E+00  0.0000E+00
    -47.212  0.0000E+00  0.0000E+00  0.0000E+00
    -46.918  0.0000E+00  0.0000E+00  0.0000E+00
    -46.623  0.0000E+00  0.0000E+00  0.0000E+00
    -46.329  0.0000E+00  0.0000E+00  0.0000E+00
    -46.034  0.0000E+00  0.0000E+00  0.0000E+00
    -45.740  0.0000E+00  0.0000E+00  0.0000E+00
    -45.446  0.0000E+00  0.0000E+00  0.0000E+00
    -45.151  0.0000E+00  0.0000E+00  0.0000E+00
    -44.857  0.0000E+00  0.0000E+00  0.0000E+00
    -44.563  0.0000E+00  0.0000E+00  0.0000E+00
    -44.268  0.0000E+00  0.0000E+00  0.0000E+00
    -43.974  0.0000E+00  0.0000E+00  0.0000E+00
    -43.679  0.0000E+00  0.0000E+00  0.0000E+00
    -43.385  0.0000E+00  0.0000E+00  0.0000E+00
    -43.091  0.0000E+00  0.0000E+00  0.0000E+00
    -42.796  0.0000E+00  0.0000E+00  0.0000E+00
    -42.502  0.0000E+00  0.0000E+00  0.0000E+00
    -42.208  0.0000E+00  0.0000E+00  0.0000E+00
    -41.913  0.0000E+00  0.0000E+00  0.0000E+00
    -41.619  0.0000E+00  0.0000E+00  0.0000E+00
    -41.324  0.0000E+00  0.0000E+00  0.0000E+00
    -41.030  0.0000E+00  0.0000E+00  0.0000E+00
    -40.736  0.0000E+00  0.0000E+00  0.0000E+00
    -40.441  0.0000E+00  0.0000E+00  0.0000E+00
    -40.147  0.0000E+00  0.0000E+00  0.0000E+00
    -39.853  0.0000E+00  0.0000E+00  0.0000E+00
    -39.558  0.0000E+00  0.0000E+00  0.0000E+00
    -39.264  0.0000E+00  0.0000E+00  0.0000E+00
    -38.969  0.0000E+00  0.0000E+00  0.0000E+00
    -38.675  0.0000E+00  0.0000E+00  0.0000E+00
    -38.381  0.0000E+00  0.0000E+00  0.0000E+00
    -38.086  0.0000E+00  0.0000E+00  0.0000E+00
    -37.792  0.0000E+00  0.0000E+00  0.0000E+00
    -37.498  0.0000E+00  0.0000E+00  0.0000E+00
    -37.203  0.0000E+00  0.0000E+00  0.0000E+00
    -36.909  0.0000E+00  0.0000E+00  0.0000E+00
    -36.614  0.0000E+00  0.0000E+00  0.0000E+00
    -36.320  0.0000E+00  0.0000E+00  0.0000E+00
    -36.026  0.0000E+00  0.0000E+00  0.0000E+00
    -35.731  0.0000E+00  0.0000E+00  0.0000E+00
    -35.437  0.0000E+00  0.0000E+00  0.0000E+00
    -35.143  0.0000E+00  0.0000E+00  0.0000E+00
    -34.848  0.0000E+00  0.0000E+00  0.0000E+00
    -34.554  0.0000E+00  0.0000E+00  0.0000E+00
    -34.260  0.0000E+00  0.0000E+00  0.0000E+00
    -33.965  0.0000E+00  0.0000E+00  0.0000E+00
    -33.671  0.0000E+00  0.0000E+00  0.0000E+00
    -33.376  0.0000E+00  0.0000E+00  0.0000E+00
    -33.082  0.0000E+00  0.0000E+00  0.0000E+00
    -32.788  0.0000E+00  0.0000E+00  0.0000E+00
    -32.493  0.0000E+00  0.0000E+00  0.0000E+00
    -32.199  0.0000E+00  0.0000E+00  0.0000E+00
    -31.905  0.0000E+00  0.0000E+00  0.0000E+00
    -31.610  0.0000E+00  0.0000E+00  0.0000E+00
    -31.316  0.0000E+00  0.0000E+00  0.0000E+00
    -31.021  0.0000E+00  0.0000E+00  0.0000E+00
    -30.727  0.0000E+00  0.0000E+00  0.0000E+00
    -30.433  0.0000E+00  0.0000E+00  0.0000E+00
    -30.138  0.0000E+00  0.0000E+00  0.0000E+00
    -29.844  0.0000E+00  0.0000E+00  0.0000E+00
    -29.550  0.0000E+00  0.0000E+00  0.0000E+00
    -29.255  0.0000E+00  0.0000E+00  0.0000E+00
    -28.961  0.0000E+00  0.0000E+00  0.0000E+00
    -28.666  0.0000E+00  0.0000E+00  0.0000E+00
    -28.372  0.0000E+00  0.0000E+00  0.0000E+00
    -28.078  0.0000E+00  0.0000E+00  0.0000E+00
    -27.783  0.0000E+00  0.0000E+00  0.0000E+00
    -27.489  0.0000E+00  0.0000E+00  0.0000E+00
    -27.195  0.0000E+00  0.0000E+00  0.0000E+00
    -26.900  0.0000E+00  0.0000E+00  0.0000E+00
    -26.606  0.0000E+00  0.0000E+00  0.0000E+00
    -26.311  0.0000E+00  0.0000E+00  0.0000E+00
    -26.017  0.0000E+00  0.0000E+00  0.0000E+00
    -25.723  0.0000E+00  0.0000E+00  0.0000E+00
    -25.428  0.0000E+00  0.0000E+00  0.0000E+00
    -25.134  0.0000E+00  0.0000E+00  0.0000E+00
    -24.840  0.0000E+00  0.0000E+00  0.0000E+00
    -24.545  0.0000E+00  0.0000E+00  0.0000E+00
    -24.251  0.0000E+00  0.0000E+00  0.0000E+00
    -23.956  0.0000E+00  0.0000E+00  0.0000E+00
    -23.662  0.0000E+00  0.0000E+00  0.0000E+00
    -23.368  0.0000E+00  0.0000E+00  0.0000E+00
    -23.073  0.0000E+00  0.0000E+00  0.0000E+00
    -22.779  0.0000E+00  0.0000E+00  0.0000E+00
    -22.485  0.0000E+00  0.0000E+00  0.0000E+00
    -22.190  0.0000E+00  0.0000E+00  0.0000E+00
    -21.896  0.0000E+00  0.0000E+00  0.0000E+00
    -21.601  0.0000E+00  0.0000E+00  0.0000E+00
    -21.307  0.0000E+00  0.0000E+00  0.0000E+00
    -21.013  0.0000E+00  0.0000E+00  0.0000E+00
    -20.718  0.0000E+00  0.0000E+00  0.0000E+00
    -20.424  0.0000E+00  0.0000E+00  0.0000E+00
    -20.130  0.3778E-04  0.3471E-04  0.3439E-04
    -19.835  0.0000E+00  0.0000E+00  0.0000E+00
    -19.541  0.0000E+00  0.0000E+00  0.0000E+00
    -19.246  0.0000E+00  0.0000E+00  0.0000E+00
    -18.952  0.0000E+00  0.0000E+00  0.0000E+00
    -18.658  0.0000E+00  0.0000E+00  0.0000E+00
    -18.363  0.0000E+00  0.0000E+00  0.0000E+00
    -18.069  0.0000E+00  0.0000E+00  0.0000E+00
    -17.775  0.0000E+00  0.0000E+00  0.0000E+00
    -17.480  0.0000E+00  0.0000E+00  0.0000E+00
    -17.186  0.0000E+00  0.0000E+00  0.0000E+00
    -16.891  0.0000E+00  0.0000E+00  0.0000E+00
    -16.597  0.0000E+00  0.0000E+00  0.0000E+00
    -16.303  0.0000E+00  0.0000E+00  0.0000E+00
    -16.008  0.0000E+00  0.0000E+00  0.0000E+00
    -15.714  0.0000E+00  0.0000E+00  0.0000E+00
    -15.420  0.0000E+00  0.0000E+00  0.0000E+00
    -15.125  0.0000E+00  0.0000E+00  0.0000E+00
    -14.831  0.0000E+00  0.0000E+00  0.0000E+00
    -14.537  0.0000E+00  0.0000E+00  0.0000E+00
    -14.242  0.0000E+00  0.0000E+00  0.0000E+00
    -13.948  0.0000E+00  0.0000E+00  0.0000E+00
    -13.653  0.0000E+00  0.0000E+00  0.0000E+00
    -13.359  0.0000E+00  0.0000E+00  0.0000E+00
    -13.065  0.0000E+00  0.0000E+00  0.0000E+00
    -12.770  0.0000E+00  0.0000E+00  0.0000E+00
    -12.476  0.0000E+00  0.0000E+00  0.0000E+00
    -12.182  0.0000E+00  0.0000E+00  0.0000E+00
    -11.887  0.0000E+00  0.0000E+00  0.0000E+00
    -11.593  0.1405E-02  0.3686E-04  0.3568E-04
    -11.298  0.4317E-02  0.6607E-03  0.7150E-03
    -11.004  0.2001E-02  0.1702E-02  0.2154E-02
    -10.710  0.5423E-03  0.3948E-06  0.1441E-05
    -10.415  0.7342E-02  0.4685E-02  0.6609E-02
    -10.121  0.5049E-02  0.1117E-01  0.1668E-01
     -9.827  0.0000E+00  0.0000E+00  0.0000E+00
     -9.532  0.0000E+00  0.0000E+00  0.0000E+00
     -9.238  0.0000E+00  0.0000E+00  0.0000E+00
     -8.943  0.0000E+00  0.0000E+00  0.0000E+00
     -8.649  0.0000E+00  0.0000E+00  0.0000E+00
     -8.355  0.0000E+00  0.0000E+00  0.0000E+00
     -8.060  0.0000E+00  0.0000E+00  0.0000E+00
     -7.766  0.0000E+00  0.0000E+00  0.0000E+00
     -7.472  0.0000E+00  0.0000E+00  0.0000E+00
     -7.177  0.0000E+00  0.0000E+00  0.0000E+00
     -6.883  0.0000E+00  0.0000E+00  0.0000E+00
     -6.588  0.0000E+00  0.0000E+00  0.0000E+00
     -6.294  0.0000E+00  0.0000E+00  0.0000E+00
     -6.000  0.0000E+00  0.0000E+00  0.0000E+00
     -5.705  0.0000E+00  0.0000E+00  0.0000E+00
     -5.411  0.0000E+00  0.0000E+00  0.0000E+00
     -5.117  0.0000E+00  0.0000E+00  0.0000E+00
     -4.822  0.5044E-03  0.1130E-02  0.3324E-02
     -4.528  0.1799E-02  0.9553E-03  0.4057E-02
     -4.233  0.1164E-03  0.9436E-14  0.4459E-04
     -3.939  0.3061E-02  0.2212E-02  0.6562E-02
     -3.645  0.4554E-03  0.4140E-03  0.3465E-02
     -3.350  0.0000E+00  0.0000E+00  0.0000E+00
     -3.056  0.0000E+00  0.0000E+00  0.0000E+00
     -2.762  0.0000E+00  0.0000E+00  0.0000E+00
     -2.467  0.4959E-02  0.1470E-02  0.2308E-02
     -2.173  0.6273E-02  0.7483E-03  0.6630E-02
     -1.878  0.1742E-01  0.1485E-02  0.2051E-01
     -1.584  0.2913E-01  0.2038E-02  0.2098E-01
     -1.290  0.2057E-01  0.5498E-03  0.1839E-01
     -0.995  0.7036E-02  0.1000E-02  0.2154E-01
     -0.701  0.5408E-02  0.6272E-02  0.7923E-01
     -0.407  0.8700E-02  0.1197E-01  0.1696E+00
     -0.112  0.1130E-01  0.1080E-01  0.3211E+00
      0.182  0.2308E-02  0.3126E-02  0.1237E+00
      0.477  0.3515E-02  0.6984E-02  0.4322E+00
      0.771  0.2404E-02  0.2732E-02  0.2279E+00
      1.065  0.0000E+00  0.0000E+00  0.0000E+00
      1.360  0.2303E-04  0.9355E-05  0.2990E-01
      1.654  0.3807E-02  0.2877E-02  0.2549E+01
      1.948  0.1914E-02  0.3046E-02  0.1052E+01
      2.243  0.2016E-02  0.8879E-02  0.9411E+00
      2.537  0.2591E-02  0.1353E-01  0.7405E+00
      2.832  0.3997E-02  0.1512E-01  0.6838E+00
      3.126  0.2685E-02  0.1341E-01  0.4583E+00
      3.420  0.4144E-03  0.1088E-01  0.3089E+00
      3.715  0.1585E-03  0.4036E-02  0.1432E+00
      4.009  0.3790E-11  0.1908E-03  0.9876E-02
      4.303  0.0000E+00  0.0000E+00  0.0000E+00
      4.598  0.0000E+00  0.0000E+00  0.0000E+00
      4.892  0.0000E+00  0.0000E+00  0.0000E+00
      5.186  0.0000E+00  0.0000E+00  0.0000E+00
      5.481  0.0000E+00  0.0000E+00  0.0000E+00
      5.775  0.0000E+00  0.0000E+00  0.0000E+00
      6.070  0.3261E-12  0.7934E-04  0.6418E-03
      6.364  0.1653E-03  0.3694E-03  0.2298E-02
      6.658  0.2101E-02  0.2524E-02  0.1972E-01
      6.953  0.2618E-03  0.4437E-03  0.3771E-02
      7.247  0.1224E-03  0.7264E-03  0.2823E-02
      7.541  0.1426E-02  0.2980E-02  0.1243E-01
      7.836  0.2177E-02  0.6770E-02  0.1627E-01
      8.130  0.3098E-02  0.4687E-02  0.1666E-01
      8.425  0.4974E-02  0.5395E-02  0.1590E-01
      8.719  0.9330E-02  0.6288E-02  0.2027E-01
      9.013  0.6564E-02  0.2164E-02  0.5869E-02
      9.308  0.1277E-01  0.3238E-02  0.8143E-02
      9.602  0.1226E-01  0.7051E-02  0.1478E-01
      9.896  0.5451E-01  0.9079E-02  0.1612E-01
     10.191  0.5172E-01  0.1230E-01  0.1587E-01
     10.485  0.3079E-01  0.1607E-01  0.9975E-02
     10.780  0.2804E-01  0.8960E-02  0.7845E-02
     11.074  0.2122E-01  0.1098E-01  0.1066E-01
     11.368  0.1213E-01  0.1235E-01  0.1123E-01
     11.663  0.2747E-02  0.4323E-02  0.3741E-02
     11.957  0.0000E+00  0.0000E+00  0.0000E+00
     12.251  0.0000E+00  0.0000E+00  0.0000E+00
     12.546  0.0000E+00  0.0000E+00  0.0000E+00
     12.840  0.0000E+00  0.0000E+00  0.0000E+00
     13.135  0.0000E+00  0.0000E+00  0.0000E+00
     13.429  0.0000E+00  0.0000E+00  0.0000E+00
     13.723  0.0000E+00  0.0000E+00  0.0000E+00
     14.018  0.0000E+00  0.0000E+00  0.0000E+00
     14.312  0.0000E+00  0.0000E+00  0.0000E+00
     14.606  0.0000E+00  0.0000E+00  0.0000E+00
     14.901  0.0000E+00  0.0000E+00  0.0000E+00
     15.195  0.0000E+00  0.0000E+00  0.0000E+00
     15.490  0.0000E+00  0.0000E+00  0.0000E+00
     15.784  0.0000E+00  0.0000E+00  0.0000E+00
     15.78391705    -72.52800799  301      4.08258698      1.00000000
    -72.528  0.0000E+00  0.0000E+00  0.0000E+00
    -72.234  0.0000E+00  0.0000E+00  0.0000E+00
    -71.939  0.0000E+00  0.0000E+00  0.0000E+00
    -71.645  0.0000E+00  0.0000E+00  0.0000E+00
    -71.351  0.0000E+00  0.0000E+00  0.0000E+00
    -71.056  0.0000E+00  0.0000E+00  0.0000E+00
    -70.762  0.0000E+00  0.0000E+00  0.0000E+00
    -70.467  0.0000E+00  0.0000E+00  0.0000E+00
    -70.173  0.0000E+00  0.0000E+00  0.0000E+00
    -69.879  0.0000E+00  0.0000E+00  0.0000E+00
    -69.584  0.0000E+00  0.0000E+00  0.0000E+00
    -69.290  0.0000E+00  0.0000E+00  0.0000E+00
    -68.996  0.0000E+00  0.0000E+00  0.0000E+00
    -68.701  0.0000E+00  0.0000E+00  0.0000E+00
    -68.407  0.4318E-08  0.1356E+02  0.1457E-05
    -68.112  0.0000E+00  0.0000E+00  0.0000E+00
    -67.818  0.0000E+00  0.0000E+00  0.0000E+00
    -67.524  0.0000E+00  0.0000E+00  0.0000E+00
    -67.229  0.0000E+00  0.0000E+00  0.0000E+00
    -66.935  0.0000E+00  0.0000E+00  0.0000E+00
    -66.641  0.0000E+00  0.0000E+00  0.0000E+00
    -66.346  0.0000E+00  0.0000E+00  0.0000E+00
    -66.052  0.0000E+00  0.0000E+00  0.0000E+00
    -65.757  0.0000E+00  0.0000E+00  0.0000E+00
    -65.463  0.0000E+00  0.0000E+00  0.0000E+00
    -65.169  0.0000E+00  0.0000E+00  0.0000E+00
    -64.874  0.0000E+00  0.0000E+00  0.0000E+00
    -64.580  0.0000E+00  0.0000E+00  0.0000E+00
    -64.286  0.0000E+00  0.0000E+00  0.0000E+00
    -63.991  0.0000E+00  0.0000E+00  0.0000E+00
    -63.697  0.0000E+00  0.0000E+00  0.0000E+00
    -63.402  0.0000E+00  0.0000E+00  0.0000E+00
    -63.108  0.0000E+00  0.0000E+00  0.0000E+00
    -62.814  0.0000E+00  0.0000E+00  0.0000E+00
    -62.519  0.0000E+00  0.0000E+00  0.0000E+00
    -62.225  0.0000E+00  0.0000E+00  0.0000E+00
    -61.931  0.0000E+00  0.0000E+00  0.0000E+00
    -61.636  0.0000E+00  0.0000E+00  0.0000E+00
    -61.342  0.0000E+00  0.0000E+00  0.0000E+00
    -61.047  0.0000E+00  0.0000E+00  0.0000E+00
    -60.753  0.0000E+00  0.0000E+00  0.0000E+00
    -60.459  0.0000E+00  0.0000E+00  0.0000E+00
    -60.164  0.0000E+00  0.0000E+00  0.0000E+00
    -59.870  0.0000E+00  0.0000E+00  0.0000E+00
    -59.576  0.0000E+00  0.0000E+00  0.0000E+00
    -59.281  0.0000E+00  0.0000E+00  0.0000E+00
    -58.987  0.0000E+00  0.0000E+00  0.0000E+00
    -58.692  0.0000E+00  0.0000E+00  0.0000E+00
    -58.398  0.0000E+00  0.0000E+00  0.0000E+00
    -58.104  0.0000E+00  0.0000E+00  0.0000E+00
    -57.809  0.0000E+00  0.0000E+00  0.0000E+00
    -57.515  0.0000E+00  0.0000E+00  0.0000E+00
    -57.221  0.0000E+00  0.0000E+00  0.0000E+00
    -56.926  0.0000E+00  0.0000E+00  0.0000E+00
    -56.632  0.0000E+00  0.0000E+00  0.0000E+00
    -56.337  0.0000E+00  0.0000E+00  0.0000E+00
    -56.043  0.0000E+00  0.0000E+00  0.0000E+00
    -55.749  0.0000E+00  0.0000E+00  0.0000E+00
    -55.454  0.0000E+00  0.0000E+00  0.0000E+00
    -55.160  0.0000E+00  0.0000E+00  0.0000E+00
    -54.866  0.0000E+00  0.0000E+00  0.0000E+00
    -54.571  0.0000E+00  0.0000E+00  0.0000E+00
    -54.277  0.0000E+00  0.0000E+00  0.0000E+00
    -53.983  0.0000E+00  0.0000E+00  0.0000E+00
    -53.688  0.0000E+00  0.0000E+00  0.0000E+00
    -53.394  0.0000E+00  0.0000E+00  0.0000E+00
    -53.099  0.0000E+00  0.0000E+00  0.0000E+00
    -52.805  0.0000E+00  0.0000E+00  0.0000E+00
    -52.511  0.0000E+00  0.0000E+00  0.0000E+00
    -52.216  0.0000E+00  0.0000E+00  0.0000E+00
    -51.922  0.0000E+00  0.0000E+00  0.0000E+00
    -51.628  0.0000E+00  0.0000E+00  0.0000E+00
    -51.333  0.0000E+00  0.0000E+00  0.0000E+00
    -51.039  0.0000E+00  0.0000E+00  0.0000E+00
    -50.744  0.0000E+00  0.0000E+00  0.0000E+00
    -50.450  0.0000E+00  0.0000E+00  0.0000E+00
    -50.156  0.0000E+00  0.0000E+00  0.0000E+00
    -49.861  0.0000E+00  0.0000E+00  0.0000E+00
    -49.567  0.0000E+00  0.0000E+00  0.0000E+00
    -49.273  0.0000E+00  0.0000E+00  0.0000E+00
    -48.978  0.0000E+00  0.0000E+00  0.0000E+00
    -48.684  0.0000E+00  0.0000E+00  0.0000E+00
    -48.389  0.0000E+00  0.0000E+00  0.0000E+00
    -48.095  0.0000E+00  0.0000E+00  0.0000E+00
    -47.801  0.0000E+00  0.0000E+00  0.0000E+00
    -47.506  0.0000E+00  0.0000E+00  0.0000E+00
    -47.212  0.0000E+00  0.0000E+00  0.0000E+00
    -46.918  0.0000E+00  0.0000E+00  0.0000E+00
    -46.623  0.0000E+00  0.0000E+00  0.0000E+00
    -46.329  0.0000E+00  0.0000E+00  0.0000E+00