    8    8    1    1
  0.2002677E+02  0.5435300E-09  0.5435300E-09  0.6646963E-09  0.5000000E-15
  1.000000000000000E-004
  CAR 
 Name                                    
     84    601     50
 
  0.0000000E+00  0.0000000E+00  0.0000000E+00  0.6944444E-02
    1      -68.513663   1.000000
    2      -68.480351   1.000000
    3      -68.480349   1.000000
    4      -68.461162   1.000000
    5      -68.457960   1.000000
    6      -68.457958   1.000000
    7      -20.160407   1.000000
    8      -20.156484   1.000000
    9      -20.156482   1.000000
   10      -20.062860   1.000000
   11      -20.057453   1.000000
   12      -11.721358   1.000000
   13      -10.076878   1.000000
   14      -10.066475   1.000000
   15      -10.066474   1.000000
   16       -4.713708   1.000000
   17       -4.643796   1.000000
   18       -4.598338   1.000000
   19       -4.598337   1.000000
   20       -4.591237   1.000000
   21       -4.242539   1.000000
   22       -1.860379   1.000000
   23       -1.230160   1.000000
   24       -1.180619   1.000000
   25       -0.745055   1.000000
   26       -0.615888   1.000000
   27       -0.615886   1.000000
   28       -0.003044   1.000000
   29       -0.003043   1.000000
   30        0.345170   1.000000
   31        0.380278   1.000000
   32        0.380277   1.000000
   33        1.409954   1.000000
   34        1.474172   1.000000
   35        1.627157   1.000000
   36        1.954727   1.000000
   37        2.015567   1.000000
   38        2.015570   1.000000
   39        2.173264   1.000000
   40        3.913659   1.000000
   41        3.913656   1.000000
   42        3.973444   1.000000
   43        5.372657   0.000000
   44        6.997460   0.000000
   45        8.043851   0.000000
   46        8.929764   0.000000
   47        8.929761   0.000000
   48       10.201168   0.000000
   49       10.593685   0.000000
   50       10.751321   0.000000
 
  0.1666667E+00  0.0000000E+00  0.0000000E+00  0.2777778E-01
    1      -68.513666   1.000000
    2      -68.480390   1.000000
    3      -68.480294   1.000000
    4      -68.461164   1.000000
    5      -68.457999   1.000000
    6      -68.457906   1.000000
    7      -20.160537   1.000000
    8      -20.156604   1.000000
    9      -20.156472   1.000000
   10      -20.062716   1.000000
   11      -20.057388   1.000000
   12      -11.621842   1.000000
   13      -10.154091   1.000000
   14      -10.110398   1.000000
   15      -10.095875   1.000000
   16       -4.774207   1.000000
   17       -4.621975   1.000000
   18       -4.609437   1.000000
   19       -4.588540   1.000000
   20       -4.582369   1.000000
   21       -4.144355   1.000000
   22       -1.929254   1.000000
   23       -1.372033   1.000000
   24       -1.177688   1.000000
   25       -0.842674   1.000000
   26       -0.465545   1.000000
   27       -0.390537   1.000000
   28       -0.107188   1.000000
   29       -0.020232   1.000000
   30        0.323605   1.000000
   31        0.364094   1.000000
   32        0.540987   1.000000
   33        1.450468   1.000000
   34        1.560150   1.000000
   35        1.665390   1.000000
   36        1.818834   1.000000
   37        1.976324   1.000000
   38        2.169729   1.000000
   39        2.284744   1.000000
   40        3.320969   1.000000
   41        3.670366   1.000000
   42        3.852329   1.000000
   43        5.988137   0.000000
   44        7.433779   0.000000
   45        8.256153   0.000000
   46        8.685359   0.000000
   47        8.791582   0.000000
   48        9.931603   0.000000
   49       10.441963   0.000000
   50       10.837355   0.000000
 
  0.3333333E+00  0.0000000E+00  0.0000000E+00  0.2777778E-01
    1      -68.513703   1.000000
    2      -68.480528   1.000000
    3      -68.480429   1.000000
    4      -68.461200   1.000000
    5      -68.458131   1.000000
    6      -68.458040   1.000000
    7      -20.160804   1.000000
    8      -20.156843   1.000000
    9      -20.156457   1.000000
   10      -20.062436   1.000000
   11      -20.057247   1.000000
   12      -11.354072   1.000000
   13      -10.413797   1.000000
   14      -10.181987   1.000000
   15      -10.138912   1.000000
   16       -4.843571   1.000000
   17       -4.640095   1.000000
   18       -4.621638   1.000000
   19       -4.576669   1.000000
   20       -4.555994   1.000000
   21       -3.935388   1.000000
   22       -1.968725   1.000000
   23       -1.479172   1.000000
   24       -1.157068   1.000000
   25       -0.733387   1.000000
   26       -0.583740   1.000000
   27       -0.359037   1.000000
   28       -0.176085   1.000000
   29       -0.028512   1.000000
   30        0.312812   1.000000
   31        0.439285   1.000000
   32        0.677349   1.000000
   33        1.538487   1.000000
   34        1.646041   1.000000
   35        1.734195   1.000000
   36        1.824124   1.000000
   37        2.002432   1.000000
   38        2.294737   1.000000
   39        2.451847   1.000000
   40        2.811043   1.000000
   41        3.130373   1.000000
   42        3.590130   1.000000
   43        6.635327   0.000000
   44        8.143692   0.000000
   45        8.428331   0.000000
   46        8.534314   0.000000
   47        9.243436   0.000000
   48       10.030025   0.000000
   49       10.531109   0.000000
   50       10.915955   0.000000
 
  0.5000000E+00  0.0000000E+00  0.0000000E+00  0.2777778E-01
    1      -68.513749   1.000000
    2      -68.480461   1.000000
    3      -68.480382   1.000000
    4      -68.461243   1.000000
    5      -68.458062   1.000000
    6      -68.457994   1.000000
    7      -20.160928   1.000000
    8      -20.156959   1.000000
    9      -20.156441   1.000000
   10      -20.062293   1.000000
   11      -20.057170   1.000000
   12      -11.113369   1.000000
   13      -10.656951   1.000000
   14      -10.213998   1.000000
   15      -10.159751   1.000000
   16       -4.873443   1.000000
   17       -4.644733   1.000000
   18       -4.628317   1.000000
   19       -4.572817   1.000000
   20       -4.546853   1.000000
   21       -3.824770   1.000000
   22       -1.922804   1.000000
   23       -1.511715   1.000000
   24       -1.099495   1.000000
   25       -0.873093   1.000000
   26       -0.620478   1.000000
   27       -0.403057   1.000000
   28       -0.104709   1.000000
   29        0.022080   1.000000
   30        0.241188   1.000000
   31        0.529780   1.000000
   32        0.654958   1.000000
   33        1.558886   1.000000
   34        1.648285   1.000000
   35        1.727272   1.000000
   36        1.912394   1.000000
   37        2.037275   1.000000
   38        2.452987   1.000000
   39        2.582206   1.000000
   40        2.668775   1.000000
   41        2.758012   1.000000
   42        3.387481   1.000000
   43        6.877357   0.000000
   44        8.283533   0.000000
   45        8.482470   0.000000
   46        9.383114   0.000000
   47        9.731936   0.000000
   48        9.923990   0.000000
   49       10.459871   0.000000
   50       10.939449   0.000000
 
  0.1666667E+00  0.1666667E+00  0.0000000E+00  0.1388889E-01
    1      -68.513617   1.000000
    2      -68.480404   1.000000
    3      -68.480336   1.000000
    4      -68.461115   1.000000
    5      -68.458011   1.000000
    6      -68.457948   1.000000
    7      -20.160691   1.000000
    8      -20.156584   1.000000
    9      -20.156554   1.000000
   10      -20.062572   1.000000
   11      -20.057319   1.000000
   12      -11.490938   1.000000
   13      -10.240567   1.000000
   14      -10.157384   1.000000
   15      -10.151318   1.000000
   16       -4.846887   1.000000
   17       -4.631673   1.000000
   18       -4.624678   1.000000
   19       -4.576692   1.000000
   20       -4.562787   1.000000
   21       -4.026328   1.000000
   22       -2.051875   1.000000
   23       -1.523285   1.000000
   24       -1.018536   1.000000
   25       -0.662314   1.000000
   26       -0.618591   1.000000
   27       -0.337210   1.000000
   28       -0.063022   1.000000
   29       -0.001203   1.000000
   30        0.296815   1.000000
   31        0.467818   1.000000
   32        0.582067   1.000000
   33        1.486967   1.000000
   34        1.641197   1.000000
   35        1.708049   1.000000
   36        1.809703   1.000000
   37        1.997023   1.000000
   38        2.240254   1.000000
   39        2.371373   1.000000
   40        2.845078   1.000000
   41        3.687998   1.000000
   42        3.722307   1.000000
   43        6.176371   0.000000
   44        7.738772   0.000000
   45        8.045938   0.000000
   46        8.324404   0.000000
   47        8.892387   0.000000
   48       10.039663   0.000000
   49       10.573657   0.000000
   50       10.851554   0.000000
 
  0.3333333E+00  0.1666667E+00  0.0000000E+00  0.2777778E-01
    1      -68.513719   1.000000
    2      -68.480487   1.000000
    3      -68.480386   1.000000
    4      -68.461216   1.000000
    5      -68.458091   1.000000
    6      -68.457998   1.000000
    7      -20.160973   1.000000
    8      -20.156818   1.000000
    9      -20.156556   1.000000
   10      -20.062279   1.000000
   11      -20.057189   1.000000
   12      -11.222218   1.000000
   13      -10.454579   1.000000
   14      -10.260438   1.000000
   15      -10.178206   1.000000
   16       -4.887147   1.000000
   17       -4.654594   1.000000
   18       -4.628702   1.000000
   19       -4.568404   1.000000
   20       -4.548276   1.000000
   21       -3.899955   1.000000
   22       -2.098938   1.000000
   23       -1.666261   1.000000
   24       -1.130555   1.000000
   25       -0.789958   1.000000
   26       -0.437584   1.000000
   27       -0.250464   1.000000
   28       -0.057702   1.000000
   29       -0.016495   1.000000
   30        0.328523   1.000000
   31        0.532279   1.000000
   32        0.620247   1.000000
   33        1.523027   1.000000
   34        1.650953   1.000000
   35        1.748403   1.000000
   36        1.857044   1.000000
   37        2.101051   1.000000
   38        2.400122   1.000000
   39        2.467511   1.000000
   40        2.718259   1.000000
   41        3.256730   1.000000
   42        3.543963   1.000000
   43        6.440391   0.000000
   44        7.983297   0.000000
   45        8.236934   0.000000
   46        8.573707   0.000000
   47        9.220289   0.000000
   48       10.326899   0.000000
   49       10.740365   0.000000
   50       11.314615   0.000000
 
  0.5000000E+00  0.1666667E+00  0.0000000E+00  0.2777778E-01
    1      -68.513706   1.000000
    2      -68.480477   1.000000
    3      -68.480382   1.000000
    4      -68.461200   1.000000
    5      -68.458081   1.000000
    6      -68.457995   1.000000
    7      -20.161095   1.000000
    8      -20.156970   1.000000
    9      -20.156567   1.000000
   10      -20.062128   1.000000
   11      -20.057120   1.000000
   12      -11.077069   1.000000
   13      -10.600363   1.000000
   14      -10.293873   1.000000
   15      -10.158062   1.000000
   16       -4.881883   1.000000
   17       -4.649123   1.000000
   18       -4.627484   1.000000
   19       -4.565273   1.000000
   20       -4.545732   1.000000
   21       -3.891621   1.000000
   22       -2.116019   1.000000
   23       -1.724364   1.000000
   24       -1.215241   1.000000
   25       -0.911840   1.000000
   26       -0.410767   1.000000
   27       -0.197771   1.000000
   28       -0.118892   1.000000
   29        0.043682   1.000000
   30        0.331292   1.000000
   31        0.532078   1.000000
   32        0.703026   1.000000
   33        1.552118   1.000000
   34        1.639417   1.000000
   35        1.701768   1.000000
   36        1.844549   1.000000
   37        2.270376   1.000000
   38        2.437475   1.000000
   39        2.624366   1.000000
   40        2.744071   1.000000
   41        3.050980   1.000000
   42        3.305802   1.000000
   43        6.632377   0.000000
   44        8.181900   0.000000
   45        8.513568   0.000000
   46        9.177105   0.000000
   47        9.573316   0.000000
   48       10.110998   0.000000
   49       10.484306   0.000000
   50       11.389877   0.000000
 
 -0.3333333E+00  0.1666667E+00  0.0000000E+00  0.1388889E-01
    1      -68.513657   1.000000
    2      -68.480483   1.000000
    3      -68.480379   1.000000
    4      -68.461152   1.000000
    5      -68.458091   1.000000
    6      -68.457990   1.000000
    7      -20.160942   1.000000
    8      -20.156875   1.000000
    9      -20.156590   1.000000
   10      -20.062263   1.000000
   11      -20.057196   1.000000
   12      -11.338308   1.000000
   13      -10.376122   1.000000
   14      -10.241083   1.000000
   15      -10.109376   1.000000
   16       -4.814428   1.000000
   17       -4.631614   1.000000
   18       -4.623721   1.000000
   19       -4.570030   1.000000
   20       -4.557647   1.000000
   21       -4.032340   1.000000
   22       -2.170867   1.000000
   23       -1.667128   1.000000
   24       -1.083391   1.000000
   25       -0.953821   1.000000
   26       -0.497788   1.000000
   27       -0.230808   1.000000
   28       -0.083116   1.000000
   29        0.002188   1.000000
   30        0.331589   1.000000
   31        0.449337   1.000000
   32        0.766560   1.000000
   33        1.529553   1.000000
   34        1.635168   1.000000
   35        1.767168   1.000000
   36        1.818182   1.000000
   37        2.127487   1.000000
   38        2.296503   1.000000
   39        2.566145   1.000000
   40        2.733605   1.000000
   41        3.331813   1.000000
   42        3.537605   1.000000
   43        6.505333   0.000000
   44        8.233856   0.000000
   45        8.389447   0.000000
   46        8.615900   0.000000
   47        9.437381   0.000000
   48       10.006886   0.000000
   49       10.365926   0.000000
   50       11.200598   0.000000
 
 -0.1666667E+00  0.1666667E+00  0.0000000E+00  0.1388889E-01
    1      -68.513620   1.000000
    2      -68.480404   1.000000
    3      -68.480376   1.000000
    4      -68.461119   1.000000
    5      -68.458017   1.000000
    6      -68.457983   1.000000
    7      -20.160665   1.000000
    8      -20.156667   1.000000
    9      -20.156574   1.000000
   10      -20.062559   1.000000
   11      -20.057327   1.000000
   12      -11.565190   1.000000
   13      -10.203167   1.000000
   14      -10.147484   1.000000
   15      -10.076992   1.000000
   16       -4.731059   1.000000
   17       -4.637370   1.000000
   18       -4.609921   1.000000
   19       -4.594109   1.000000
   20       -4.572286   1.000000
   21       -4.161878   1.000000
   22       -2.035355   1.000000
   23       -1.534159   1.000000
   24       -1.127148   1.000000
   25       -0.796849   1.000000
   26       -0.663910   1.000000
   27       -0.214542   1.000000
   28       -0.087023   1.000000
   29       -0.003995   1.000000
   30        0.247627   1.000000
   31        0.465604   1.000000
   32        0.609777   1.000000
   33        1.471826   1.000000
   34        1.622196   1.000000
   35        1.701261   1.000000
   36        1.770222   1.000000
   37        1.924492   1.000000
   38        2.267169   1.000000
   39        2.414180   1.000000
   40        3.027811   1.000000
   41        3.613920   1.000000
   42        3.839203   1.000000
   43        6.128682   0.000000
   44        7.620716   0.000000
   45        8.478353   0.000000
   46        8.823314   0.000000
   47        9.015272   0.000000
   48        9.955715   0.000000
   49       10.281883   0.000000
   50       10.823598   0.000000
 
  0.1666667E+00  0.3333333E+00  0.0000000E+00  0.2777778E-01
    1      -68.513720   1.000000
    2      -68.480486   1.000000
    3      -68.480387   1.000000
    4      -68.461215   1.000000
    5      -68.458093   1.000000
    6      -68.457997   1.000000
    7      -20.160973   1.000000
    8      -20.156818   1.000000
    9      -20.156556   1.000000
   10      -20.062279   1.000000
   11      -20.057189   1.000000
   12      -11.222219   1.000000
   13      -10.454547   1.000000
   14      -10.260554   1.000000
   15      -10.178123   1.000000
   16       -4.885854   1.000000
   17       -4.654618   1.000000
   18       -4.631723   1.000000
   19       -4.568103   1.000000
   20       -4.548183   1.000000
   21       -3.897157   1.000000
   22       -2.097322   1.000000
   23       -1.701327   1.000000
   24       -1.080059   1.000000
   25       -0.730112   1.000000
   26       -0.483026   1.000000
   27       -0.329749   1.000000
   28       -0.077598   1.000000
   29        0.053333   1.000000
   30        0.301028   1.000000
   31        0.530136   1.000000
   32        0.640680   1.000000
   33        1.535570   1.000000
   34        1.643766   1.000000
   35        1.770220   1.000000
   36        1.840075   1.000000
   37        2.194625   1.000000
   38        2.261800   1.000000
   39        2.508853   1.000000
   40        2.701280   1.000000
   41        3.268610   1.000000
   42        3.548768   1.000000
   43        6.435876   0.000000
   44        7.992137   0.000000
   45        8.221507   0.000000
   46        8.565959   0.000000
   47        9.372694   0.000000
   48       10.361068   0.000000
   49       10.857552   0.000000
   50       11.405367   0.000000
 
  0.3333333E+00  0.3333333E+00  0.0000000E+00  0.1388889E-01
    1      -68.513652   1.000000
    2      -68.480469   1.000000
    3      -68.480398   1.000000
    4      -68.461149   1.000000
    5      -68.458077   1.000000
    6      -68.458012   1.000000
    7      -20.161282   1.000000
    8      -20.156910   1.000000
    9      -20.156713   1.000000
   10      -20.061962   1.000000
   11      -20.057068   1.000000
   12      -11.021648   1.000000
   13      -10.468051   1.000000
   14      -10.330101   1.000000
   15      -10.304052   1.000000
   16       -4.910713   1.000000
   17       -4.667115   1.000000
   18       -4.638443   1.000000
   19       -4.554355   1.000000
   20       -4.544165   1.000000
   21       -3.919511   1.000000
   22       -2.286808   1.000000
   23       -1.868091   1.000000
   24       -1.544085   1.000000
   25       -0.502813   1.000000
   26       -0.253868   1.000000
   27       -0.193655   1.000000
   28       -0.065835   1.000000
   29        0.099461   1.000000
   30        0.342928   1.000000
   31        0.529302   1.000000
   32        0.671143   1.000000
   33        1.526289   1.000000
   34        1.599912   1.000000
   35        1.816125   1.000000
   36        1.863871   1.000000
   37        2.217947   1.000000
   38        2.543883   1.000000
   39        2.751054   1.000000
   40        2.850377   1.000000
   41        3.337219   1.000000
   42        3.373813   1.000000
   43        6.189883   0.000000
   44        7.943923   0.000000
   45        8.528754   0.000000
   46        8.716217   0.000000
   47        9.260036   0.000000
   48       10.208228   0.000000
   49       10.986188   0.000000
   50       11.290211   0.000000
 
  0.5000000E+00  0.3333333E+00  0.0000000E+00  0.2777778E-01
    1      -68.513712   1.000000
    2      -68.480483   1.000000
    3      -68.480438   1.000000
    4      -68.461211   1.000000
    5      -68.458094   1.000000
    6      -68.458049   1.000000
    7      -20.161429   1.000000
    8      -20.157082   1.000000
    9      -20.156725   1.000000
   10      -20.061805   1.000000
   11      -20.057018   1.000000
   12      -10.981776   1.000000
   13      -10.491847   1.000000
   14      -10.372390   1.000000
   15      -10.254090   1.000000
   16       -4.898003   1.000000
   17       -4.649963   1.000000
   18       -4.628979   1.000000
   19       -4.551263   1.000000
   20       -4.543236   1.000000
   21       -4.023861   1.000000
   22       -2.476674   1.000000
   23       -1.906319   1.000000
   24       -1.490255   1.000000
   25       -0.829061   1.000000
   26       -0.253013   1.000000
   27       -0.049437   1.000000
   28        0.039781   1.000000
   29        0.130575   1.000000
   30        0.400053   1.000000
   31        0.507103   1.000000
   32        0.739481   1.000000
   33        1.561236   1.000000
   34        1.592452   1.000000
   35        1.773768   1.000000
   36        1.873072   1.000000
   37        2.342381   1.000000
   38        2.622331   1.000000
   39        2.873529   1.000000
   40        2.949886   1.000000
   41        3.223308   1.000000
   42        3.399202   1.000000
   43        6.167665   0.000000
   44        7.899399   0.000000
   45        8.534065   0.000000
   46        9.088117   0.000000
   47        9.651690   0.000000
   48        9.851396   0.000000
   49       10.816245   0.000000
   50       11.325425   0.000000
 
 -0.3333333E+00  0.3333333E+00  0.0000000E+00  0.1388889E-01
    1      -68.513700   1.000000
    2      -68.480460   1.000000
    3      -68.480403   1.000000
    4      -68.461197   1.000000
    5      -68.458068   1.000000
    6      -68.458018   1.000000
    7      -20.161256   1.000000
    8      -20.157021   1.000000
    9      -20.156702   1.000000
   10      -20.061951   1.000000
   11      -20.057087   1.000000
   12      -11.178227   1.000000
   13      -10.431761   1.000000
   14      -10.301077   1.000000
   15      -10.156906   1.000000
   16       -4.831160   1.000000
   17       -4.644153   1.000000
   18       -4.613072   1.000000
   19       -4.558998   1.000000
   20       -4.550240   1.000000
   21       -4.107162   1.000000
   22       -2.464420   1.000000
   23       -1.747926   1.000000
   24       -1.261405   1.000000
   25       -1.133540   1.000000
   26       -0.231300   1.000000
   27       -0.145415   1.000000
   28        0.039262   1.000000
   29        0.090362   1.000000
   30        0.383304   1.000000
   31        0.530555   1.000000
   32        0.799535   1.000000
   33        1.550810   1.000000
   34        1.629773   1.000000
   35        1.745432   1.000000
   36        1.849927   1.000000
   37        2.403809   1.000000
   38        2.485030   1.000000
   39        2.597947   1.000000
   40        2.763436   1.000000
   41        3.206198   1.000000
   42        3.634751   1.000000
   43        6.343152   0.000000
   44        8.189997   0.000000
   45        8.285317   0.000000
   46        8.935638   0.000000
   47        9.340177   0.000000
   48       10.027662   0.000000
   49       10.720606   0.000000
   50       11.114219   0.000000
 
 -0.1666667E+00  0.3333333E+00  0.0000000E+00  0.1388889E-01
    1      -68.513657   1.000000
    2      -68.480486   1.000000
    3      -68.480378   1.000000
    4      -68.461157   1.000000
    5      -68.458088   1.000000
    6      -68.457990   1.000000
    7      -20.160942   1.000000
    8      -20.156881   1.000000
    9      -20.156584   1.000000
   10      -20.062264   1.000000
   11      -20.057197   1.000000
   12      -11.338234   1.000000
   13      -10.376470   1.000000
   14      -10.240840   1.000000
   15      -10.109419   1.000000
   16       -4.797089   1.000000
   17       -4.647835   1.000000
   18       -4.617037   1.000000
   19       -4.569591   1.000000
   20       -4.560272   1.000000
   21       -4.044664   1.000000
   22       -2.179134   1.000000
   23       -1.597660   1.000000
   24       -1.212934   1.000000
   25       -0.877739   1.000000
   26       -0.507067   1.000000
   27       -0.184998   1.000000
   28       -0.070387   1.000000
   29       -0.035045   1.000000
   30        0.308595   1.000000
   31        0.549625   1.000000
   32        0.668109   1.000000
   33        1.516757   1.000000
   34        1.647376   1.000000
   35        1.722393   1.000000
   36        1.895515   1.000000
   37        2.050429   1.000000
   38        2.339446   1.000000
   39        2.526800   1.000000
   40        2.791099   1.000000
   41        3.338269   1.000000
   42        3.523095   1.000000
   43        6.514962   0.000000
   44        8.285722   0.000000
   45        8.363481   0.000000
   46        8.594011   0.000000
   47        9.295618   0.000000
   48       10.121192   0.000000
   49       10.840147   0.000000
   50       11.121707   0.000000
 
  0.1666667E+00  0.5000000E+00  0.0000000E+00  0.2777778E-01
    1      -68.513705   1.000000
    2      -68.480475   1.000000
    3      -68.480383   1.000000
    4      -68.461204   1.000000
    5      -68.458080   1.000000
    6      -68.457991   1.000000
    7      -20.161095   1.000000
    8      -20.156974   1.000000
    9      -20.156563   1.000000
   10      -20.062128   1.000000
   11      -20.057120   1.000000
   12      -11.076858   1.000000
   13      -10.600771   1.000000
   14      -10.293812   1.000000
   15      -10.157992   1.000000
   16       -4.869025   1.000000
   17       -4.660678   1.000000
   18       -4.625715   1.000000
   19       -4.565290   1.000000
   20       -4.546044   1.000000
   21       -3.899163   1.000000
   22       -2.134339   1.000000
   23       -1.686783   1.000000
   24       -1.261134   1.000000
   25       -0.816441   1.000000
   26       -0.474400   1.000000
   27       -0.211309   1.000000
   28       -0.066576   1.000000
   29        0.008991   1.000000
   30        0.319846   1.000000
   31        0.589673   1.000000
   32        0.640447   1.000000
   33        1.547981   1.000000
   34        1.637422   1.000000
   35        1.709817   1.000000
   36        1.880090   1.000000
   37        2.215481   1.000000
   38        2.475920   1.000000
   39        2.549170   1.000000
   40        2.818735   1.000000
   41        3.024475   1.000000
   42        3.325299   1.000000
   43        6.638219   0.000000
   44        8.185140   0.000000
   45        8.499554   0.000000
   46        9.188892   0.000000
   47        9.511658   0.000000
   48       10.115225   0.000000
   49       10.632731   0.000000
   50       11.037330   0.000000
 
  0.3333333E+00  0.5000000E+00  0.0000000E+00  0.2777778E-01
    1      -68.513712   1.000000
    2      -68.480484   1.000000
    3      -68.480437   1.000000
    4      -68.461208   1.000000
    5      -68.458095   1.000000
    6      -68.458050   1.000000
    7      -20.161429   1.000000
    8      -20.157087   1.000000
    9      -20.156721   1.000000
   10      -20.061805   1.000000
   11      -20.057018   1.000000
   12      -10.981471   1.000000
   13      -10.493124   1.000000
   14      -10.371482   1.000000
   15      -10.254090   1.000000
   16       -4.883054   1.000000
   17       -4.670428   1.000000
   18       -4.621356   1.000000
   19       -4.551004   1.000000
   20       -4.543784   1.000000
   21       -4.029322   1.000000
   22       -2.484505   1.000000
   23       -1.894245   1.000000
   24       -1.501593   1.000000
   25       -0.765653   1.000000
   26       -0.300850   1.000000
   27       -0.038610   1.000000
   28       -0.013617   1.000000
   29        0.175203   1.000000
   30        0.393443   1.000000
   31        0.534530   1.000000
   32        0.700236   1.000000
   33        1.551334   1.000000
   34        1.607451   1.000000
   35        1.735929   1.000000
   36        1.929908   1.000000
   37        2.430302   1.000000
   38        2.485008   1.000000
   39        2.803724   1.000000
   40        3.048497   1.000000
   41        3.232863   1.000000
   42        3.397952   1.000000
   43        6.175147   0.000000
   44        7.899608   0.000000
   45        8.557100   0.000000
   46        9.038535   0.000000
   47        9.539108   0.000000
   48       10.114228   0.000000
   49       10.789731   0.000000
   50       11.373562   0.000000
 
  0.5000000E+00  0.5000000E+00  0.0000000E+00  0.1388889E-01
    1      -68.513642   1.000000
    2      -68.480492   1.000000
    3      -68.480256   1.000000
    4      -68.461142   1.000000
    5      -68.458106   1.000000
    6      -68.457868   1.000000
    7      -20.161590   1.000000
    8      -20.157190   1.000000
    9      -20.156744   1.000000
   10      -20.061645   1.000000
   11      -20.056960   1.000000
   12      -10.917423   1.000000
   13      -10.424401   1.000000
   14      -10.376334   1.000000
   15      -10.367019   1.000000
   16       -4.904395   1.000000
   17       -4.660608   1.000000
   18       -4.611192   1.000000
   19       -4.545979   1.000000
   20       -4.541588   1.000000
   21       -4.103285   1.000000
   22       -2.650210   1.000000
   23       -1.965133   1.000000
   24       -1.519677   1.000000
   25       -0.642895   1.000000
   26       -0.475318   1.000000
   27       -0.003376   1.000000
   28        0.039249   1.000000
   29        0.301425   1.000000
   30        0.434504   1.000000
   31        0.456227   1.000000
   32        0.680652   1.000000
   33        1.567640   1.000000
   34        1.603762   1.000000
   35        1.824848   1.000000
   36        1.894226   1.000000
   37        2.448782   1.000000
   38        2.572984   1.000000
   39        3.042581   1.000000
   40        3.154003   1.000000
   41        3.377577   1.000000
   42        3.478325   1.000000
   43        5.848323   0.000000
   44        7.545776   0.000000
   45        8.382115   0.000000
   46        9.348637   0.000000
   47        9.737160   0.000000
   48       10.285759   0.000000
   49       10.750091   0.000000
   50       11.166119   0.000000
 
  0.0000000E+00  0.0000000E+00  0.2500000E+00  0.1388889E-01
    1      -68.513760   1.000000
    2      -68.480299   1.000000
    3      -68.480298   1.000000
    4      -68.461254   1.000000
    5      -68.457911   1.000000
    6      -68.457910   1.000000
    7      -20.160490   1.000000
    8      -20.156357   1.000000
    9      -20.156354   1.000000
   10      -20.062898   1.000000
   11      -20.057437   1.000000
   12      -11.542754   1.000000
   13      -10.356431   1.000000
   14      -10.073935   1.000000
   15      -10.073935   1.000000
   16       -4.953732   1.000000
   17       -4.613976   1.000000
   18       -4.613955   1.000000