       N       E                     dE             d eps       ncg     rms          rms(c)
DAV:   1     0.359325459857E+04    0.35933E+04   -0.18941E+05  7176   0.170E+03
DAV:   2     0.197686763245E+03   -0.33956E+04   -0.31950E+04  8016   0.354E+02
DAV:   3    -0.398348446139E+03   -0.59604E+03   -0.58746E+03  9480   0.171E+02
DAV:   4    -0.438151515691E+03   -0.39803E+02   -0.39633E+02  9656   0.488E+01
DAV:   5    -0.439630744438E+03   -0.14792E+01   -0.14770E+01  9784   0.912E+00    0.293E+01
DAV:   6    -0.419453099029E+03    0.20178E+02   -0.40831E+01  9784   0.104E+01    0.155E+01
DAV:   7    -0.417005404564E+03    0.24477E+01   -0.14506E+01 10216   0.639E+00    0.771E+00
DAV:   8    -0.416830452753E+03    0.17495E+00   -0.30570E+00  8592   0.321E+00    0.181E+00
DAV:   9    -0.416760573449E+03    0.69879E-01   -0.72889E-01  9384   0.173E+00    0.725E-01
DAV:  10    -0.416772645106E+03   -0.12072E-01   -0.11258E-01  8896   0.587E-01    0.476E-01
DAV:  11    -0.416772089774E+03    0.55533E-03   -0.13937E-02  9720   0.278E-01    0.212E-01
DAV:  12    -0.416773461261E+03   -0.13715E-02   -0.10356E-02  9904   0.163E-01    0.109E-01
DAV:  13    -0.416773622743E+03   -0.16148E-03   -0.14337E-03  8312   0.811E-02    0.768E-02
DAV:  14    -0.416773675989E+03   -0.53246E-04   -0.28154E-04  8696   0.297E-02    0.372E-02
DAV:  15    -0.416773721331E+03   -0.45341E-04   -0.21431E-04  8168   0.242E-02    0.147E-02
DAV:  16    -0.416773725619E+03   -0.42879E-05   -0.23490E-05 10080   0.103E-02    0.151E-02
DAV:  17    -0.416773725243E+03    0.37552E-06   -0.35354E-06  8504   0.348E-03    0.793E-03
DAV:  18    -0.416773724978E+03    0.26486E-06   -0.12515E-05  9640   0.559E-03    0.348E-03
DAV:  19    -0.416773725108E+03   -0.13014E-06   -0.13278E-06  9120   0.261E-03    0.317E-03
DAV:  20    -0.416773725106E+03    0.27685E-08   -0.38450E-07  9488   0.106E-03    0.837E-04
DAV:  21    -0.416773725167E+03   -0.61333E-07   -0.11895E-07  9848   0.588E-04    0.419E-04
DAV:  22    -0.416773725151E+03    0.15545E-07   -0.89470E-09  7528   0.237E-04    0.271E-04
DAV:  23    -0.416773725156E+03   -0.43256E-08    0.77915E-11  7624   0.126E-04    0.240E-04
DAV:  24    -0.416773725157E+03   -0.13097E-08   -0.23140E-10  8824   0.793E-05    0.218E-04
DAV:  25    -0.416773725159E+03   -0.21864E-08    0.17228E-09  5616   0.495E-05    0.212E-04
DAV:  26    -0.416773725161E+03   -0.17790E-08    0.18864E-09  5104   0.288E-05    0.213E-04
DAV:  27    -0.416773725159E+03    0.17244E-08    0.17916E-09  4800   0.267E-05    0.208E-04
DAV:  28    -0.416773725159E+03    0.57480E-09    0.17899E-09  4264   0.162E-05    0.207E-04
DAV:  29    -0.416773725159E+03   -0.83674E-10    0.15336E-09  4256   0.132E-05    0.207E-04
DAV:  30    -0.416773725159E+03    0.10550E-09    0.12919E-09  4256   0.891E-06    0.207E-04
DAV:  31    -0.416773725159E+03   -0.55297E-09    0.16422E-09  4256   0.821E-06    0.207E-04
DAV:  32    -0.416773725159E+03    0.33469E-09    0.85876E-10  4256   0.358E-06    0.207E-04
DAV:  33    -0.416773725159E+03   -0.83674E-10    0.10149E-09  4248   0.290E-06    0.207E-04
DAV:  34    -0.416773725159E+03   -0.27649E-09    0.69339E-10  4216   0.137E-06    0.207E-04
DAV:  35    -0.416773725159E+03    0.18190E-09    0.89410E-10  4208   0.167E-06    0.207E-04
DAV:  36    -0.416773725159E+03   -0.13461E-09    0.79281E-10  4184   0.125E-06    0.207E-04
DAV:  37    -0.416773725159E+03    0.28376E-09    0.80184E-10  4144   0.109E-06    0.207E-04
DAV:  38    -0.416773725159E+03    0.15643E-09    0.62187E-10  4072   0.858E-07    0.207E-04
DAV:  39    -0.416773725159E+03   -0.26193E-09    0.58135E-10  4040   0.464E-07    0.207E-04
DAV:  40    -0.416773725159E+03   -0.22192E-09    0.61189E-10  4024   0.398E-07    0.207E-04
DAV:  41    -0.416773725159E+03    0.57480E-09    0.65959E-10  4016   0.332E-07    0.207E-04
DAV:  42    -0.416773725159E+03   -0.10914E-09    0.53721E-10  4016   0.446E-07    0.207E-04
DAV:  43    -0.416773725159E+03   -0.34925E-09    0.48663E-10  4016   0.195E-07    0.207E-04
DAV:  44    -0.416773725159E+03    0.42201E-09    0.46075E-10  3992   0.116E-07    0.207E-04
DAV:  45    -0.416773725159E+03   -0.50204E-09    0.40276E-10  3984   0.786E-08    0.207E-04
DAV:  46    -0.416773725159E+03    0.98225E-10    0.33554E-10  3944   0.978E-08
