       N       E                     dE             d eps       ncg     rms          ort
DAV:   1     0.393480774395E+05    0.39348E+05   -0.10870E+06  3528   0.494E+03
DAV:   2     0.964865640531E+04   -0.29699E+05   -0.29085E+05  3528   0.168E+03
DAV:   3     0.215663923815E+04   -0.74920E+04   -0.73056E+04  3528   0.533E+02
DAV:   4     0.497173283778E+03   -0.16595E+04   -0.15857E+04  3528   0.223E+02
DAV:   5     0.276404785203E+03   -0.22077E+03   -0.21686E+03  3528   0.866E+01
SDA:   6    -0.444212906030E+03   -0.72062E+03   -0.21686E+03  3528   0.126E+03 0.000E+00
CGA:   7    -0.465904308396E+03   -0.21691E+02   -0.21761E+02  3528   0.455E+02 0.821E+00
CGA:   8    -0.474662753297E+03   -0.87584E+01   -0.87589E+01  3528   0.945E+01-0.137E-01
CGA:   9    -0.477777953486E+03   -0.31152E+01   -0.31153E+01  3528   0.306E+01-0.126E-01
CGA:  10    -0.478734621691E+03   -0.95667E+00   -0.95767E+00  3528   0.117E+01-0.993E-02
CGA:  11    -0.478987022380E+03   -0.25240E+00   -0.25242E+00  3528   0.460E+00-0.203E-02
CGA:  12    -0.479118323526E+03   -0.13130E+00   -0.13145E+00  3528   0.117E+00-0.190E-02
CGA:  13    -0.479158858135E+03   -0.40535E-01   -0.40612E-01  3528   0.365E-01-0.535E-03
CGA:  14    -0.479170059683E+03   -0.11202E-01   -0.11201E-01  3528   0.167E-01 0.166E-04
CGA:  15    -0.479173650477E+03   -0.35908E-02   -0.35878E-02  3528   0.663E-02-0.275E-03
CGA:  16    -0.479175530420E+03   -0.18799E-02   -0.18785E-02  3528   0.215E-02 0.241E-04
CGA:  17    -0.479176321306E+03   -0.79089E-03   -0.79916E-03  3528   0.842E-03-0.576E-04
CGA:  18    -0.479176582004E+03   -0.26070E-03   -0.25910E-03  3528   0.330E-03 0.200E-04
CGA:  19    -0.479176683020E+03   -0.10102E-03   -0.10208E-03  3528   0.172E-03-0.168E-04
CGA:  20    -0.479176715263E+03   -0.32244E-04   -0.32975E-04  3528   0.568E-04 0.183E-04
CGA:  21    -0.479176737233E+03   -0.21970E-04   -0.22266E-04  3528   0.247E-04-0.257E-05
CGA:  22    -0.479176746170E+03   -0.89374E-05   -0.99063E-05  3528   0.184E-04-0.557E-05
CGA:  23    -0.479176747866E+03   -0.16961E-05   -0.20724E-05  3528   0.704E-05 0.344E-05
CGA:  24    -0.479176748995E+03   -0.11283E-05   -0.12854E-05  3528   0.344E-05 0.165E-05
CGA:  25    -0.479176750107E+03   -0.11122E-05   -0.15698E-05  3528   0.564E-05-0.365E-05
CGA:  26    -0.479176750674E+03   -0.56675E-06   -0.73548E-06  3528   0.865E-06 0.140E-05
CGA:  27    -0.479176750863E+03   -0.18978E-06   -0.56861E-06  3528   0.256E-05-0.134E-05
CGA:  28    -0.479176751277E+03   -0.41317E-06   -0.43835E-06  3528   0.198E-06 0.288E-06
CGA:  29    -0.479176751346E+03   -0.69285E-07   -0.74311E-07  3528   0.100E-06-0.599E-07
CGA:  30    -0.479176751361E+03   -0.15476E-07   -0.16211E-07  3528   0.531E-07 0.260E-07
CGA:  31    -0.479176751421E+03   -0.59925E-07    0.11565E-07  3528   0.236E-07 0.130E-07
CGA:  32    -0.479176751466E+03   -0.44598E-07    0.19394E-08  3528   0.114E-07 0.803E-08
CGA:  33    -0.479176751470E+03   -0.38272E-08   -0.38713E-08  3528   0.688E-08 0.467E-08
   1 F= -.47917675E+03 E0= -.47917675E+03  d E =-.577304E-91
