  96  96   0   0
  0.2080188E+02  0.1257760E-08  0.1245754E-08  0.1274818E-08  0.5000000E-15
  1.000000000000000E-004
  CAR 
 MAPbI3-Cubic                            
      8.84254702    -19.42308676  301      1.35215407      1.00000000
    -19.423  0.0000E+00  0.0000E+00
    -19.329  0.0000E+00  0.0000E+00
    -19.235  0.0000E+00  0.0000E+00
    -19.140  0.0000E+00  0.0000E+00
    -19.046  0.0000E+00  0.0000E+00
    -18.952  0.0000E+00  0.0000E+00
    -18.858  0.0000E+00  0.0000E+00
    -18.764  0.0000E+00  0.0000E+00
    -18.669  0.0000E+00  0.0000E+00
    -18.575  0.0000E+00  0.0000E+00
    -18.481  0.0000E+00  0.0000E+00
    -18.387  0.0000E+00  0.0000E+00
    -18.292  0.0000E+00  0.0000E+00
    -18.198  0.0000E+00  0.0000E+00
    -18.104  0.0000E+00  0.1600E+02
    -18.010  0.0000E+00  0.1600E+02
    -17.916  0.0000E+00  0.1600E+02
    -17.821  0.0000E+00  0.1600E+02
    -17.727  0.0000E+00  0.1600E+02
    -17.633  0.0000E+00  0.1600E+02
    -17.539  0.0000E+00  0.1600E+02
    -17.444  0.0000E+00  0.1600E+02
    -17.350  0.0000E+00  0.1600E+02
    -17.256  0.0000E+00  0.1600E+02
    -17.162  0.0000E+00  0.1600E+02
    -17.068  0.0000E+00  0.1600E+02
    -16.973  0.0000E+00  0.1600E+02
    -16.879  0.0000E+00  0.1600E+02
    -16.785  0.0000E+00  0.1600E+02
    -16.691  0.0000E+00  0.1600E+02
    -16.597  0.0000E+00  0.1600E+02
    -16.502  0.0000E+00  0.1600E+02
    -16.408  0.0000E+00  0.1600E+02
    -16.314  0.0000E+00  0.1600E+02
    -16.220  0.0000E+00  0.1600E+02
    -16.125  0.0000E+00  0.1600E+02
    -16.031  0.0000E+00  0.1600E+02
    -15.937  0.0000E+00  0.1600E+02
    -15.843  0.0000E+00  0.1600E+02
    -15.749  0.0000E+00  0.1600E+02
    -15.654  0.0000E+00  0.1600E+02
    -15.560  0.0000E+00  0.1600E+02
    -15.466  0.0000E+00  0.1600E+02
    -15.372  0.0000E+00  0.1600E+02
    -15.277  0.0000E+00  0.1600E+02
    -15.183  0.0000E+00  0.1600E+02
    -15.089  0.6506E+02  0.4798E+02
    -14.995  0.0000E+00  0.9600E+02
    -14.901  0.0000E+00  0.9600E+02
    -14.806  0.0000E+00  0.9600E+02
    -14.712  0.0000E+00  0.9600E+02
    -14.618  0.0000E+00  0.9600E+02
    -14.524  0.0000E+00  0.9600E+02
    -14.429  0.0000E+00  0.9600E+02
    -14.335  0.0000E+00  0.9600E+02
    -14.241  0.0000E+00  0.9600E+02
    -14.147  0.0000E+00  0.9600E+02
    -14.053  0.0000E+00  0.9600E+02
    -13.958  0.0000E+00  0.9600E+02
    -13.864  0.0000E+00  0.9600E+02
    -13.770  0.0000E+00  0.9600E+02
    -13.676  0.0000E+00  0.9600E+02
    -13.582  0.0000E+00  0.9600E+02
    -13.487  0.0000E+00  0.9600E+02
    -13.393  0.0000E+00  0.9600E+02
    -13.299  0.0000E+00  0.9600E+02
    -13.205  0.0000E+00  0.9600E+02
    -13.110  0.0000E+00  0.9600E+02
    -13.016  0.0000E+00  0.9600E+02
    -12.922  0.0000E+00  0.9600E+02
    -12.828  0.0000E+00  0.9600E+02
    -12.734  0.0000E+00  0.9600E+02
    -12.639  0.0000E+00  0.9600E+02
    -12.545  0.0000E+00  0.9600E+02
    -12.451  0.0000E+00  0.9600E+02
    -12.357  0.0000E+00  0.9600E+02
    -12.262  0.0000E+00  0.9600E+02
    -12.168  0.0000E+00  0.9600E+02
    -12.074  0.0000E+00  0.9600E+02
    -11.980  0.0000E+00  0.9600E+02
    -11.886  0.0000E+00  0.9600E+02
    -11.791  0.0000E+00  0.9600E+02
    -11.697  0.0000E+00  0.9600E+02
    -11.603  0.0000E+00  0.9600E+02
    -11.509  0.0000E+00  0.9600E+02
    -11.414  0.0000E+00  0.9600E+02
    -11.320  0.2057E+01  0.9619E+02
    -11.226  0.0000E+00  0.1040E+03
    -11.132  0.0000E+00  0.1120E+03
    -11.038  0.0000E+00  0.1120E+03
    -10.943  0.0000E+00  0.1120E+03
    -10.849  0.0000E+00  0.1120E+03
    -10.755  0.4685E+01  0.1130E+03
    -10.661  0.5777E+01  0.1156E+03
    -10.567  0.9320E+01  0.1214E+03
    -10.472  0.6992E+01  0.1280E+03
    -10.378  0.9747E-04  0.1291E+03
    -10.284  0.1560E+01  0.1364E+03
    -10.190  0.1255E+02  0.1415E+03
    -10.095  0.3084E+01  0.1445E+03
    -10.001  0.4169E+01  0.1550E+03
     -9.907  0.0000E+00  0.1600E+03
     -9.813  0.0000E+00  0.1600E+03
     -9.719  0.0000E+00  0.1600E+03
     -9.624  0.0000E+00  0.1600E+03
     -9.530  0.0000E+00  0.1600E+03
     -9.436  0.0000E+00  0.1600E+03
     -9.342  0.0000E+00  0.1600E+03
     -9.247  0.0000E+00  0.1600E+03
     -9.153  0.0000E+00  0.1600E+03
     -9.059  0.0000E+00  0.1600E+03
     -8.965  0.0000E+00  0.1600E+03
     -8.871  0.0000E+00  0.1600E+03
     -8.776  0.0000E+00  0.1600E+03
     -8.682  0.0000E+00  0.1600E+03
     -8.588  0.0000E+00  0.1600E+03
     -8.494  0.0000E+00  0.1600E+03
     -8.399  0.0000E+00  0.1600E+03
     -8.305  0.0000E+00  0.1600E+03
     -8.211  0.0000E+00  0.1600E+03
     -8.117  0.0000E+00  0.1600E+03
     -8.023  0.0000E+00  0.1600E+03
     -7.928  0.0000E+00  0.1600E+03
     -7.834  0.0000E+00  0.1600E+03
     -7.740  0.0000E+00  0.1600E+03
     -7.646  0.3962E+02  0.1664E+03
     -7.552  0.3931E+01  0.1840E+03
     -7.457  0.0000E+00  0.1920E+03
     -7.363  0.0000E+00  0.1920E+03
     -7.269  0.0000E+00  0.1920E+03
     -7.175  0.0000E+00  0.1920E+03
     -7.080  0.0000E+00  0.1920E+03
     -6.986  0.0000E+00  0.1921E+03
     -6.892  0.0000E+00  0.1925E+03
     -6.798  0.2359E+01  0.1927E+03
     -6.704  0.0000E+00  0.1934E+03
     -6.609  0.0000E+00  0.1944E+03
     -6.515  0.1778E+01  0.1958E+03
     -6.421  0.6290E+01  0.1976E+03
     -6.327  0.0000E+00  0.1991E+03
     -6.232  0.0000E+00  0.2009E+03
     -6.138  0.0000E+00  0.2030E+03
     -6.044  0.0000E+00  0.2041E+03
     -5.950  0.0000E+00  0.2059E+03
     -5.856  0.0000E+00  0.2066E+03
     -5.761  0.6303E+01  0.2141E+03
     -5.667  0.0000E+00  0.2159E+03
     -5.573  0.0000E+00  0.2235E+03
     -5.479  0.0000E+00  0.2239E+03
     -5.384  0.0000E+00  0.2240E+03
     -5.290  0.0000E+00  0.2240E+03
     -5.196  0.0000E+00  0.2240E+03
     -5.102  0.0000E+00  0.2240E+03
     -5.008  0.0000E+00  0.2240E+03
     -4.913  0.0000E+00  0.2240E+03
     -4.819  0.0000E+00  0.2240E+03
     -4.725  0.0000E+00  0.2240E+03
     -4.631  0.0000E+00  0.2240E+03
     -4.537  0.0000E+00  0.2240E+03
     -4.442  0.0000E+00  0.2240E+03
     -4.348  0.0000E+00  0.2240E+03
     -4.254  0.0000E+00  0.2240E+03
     -4.160  0.0000E+00  0.2240E+03
     -4.065  0.0000E+00  0.2240E+03
     -3.971  0.0000E+00  0.2240E+03
     -3.877  0.0000E+00  0.2240E+03
     -3.783  0.0000E+00  0.2240E+03
     -3.689  0.0000E+00  0.2240E+03
     -3.594  0.7911E+00  0.2241E+03
     -3.500  0.9513E+01  0.2411E+03
     -3.406  0.0000E+00  0.2560E+03
     -3.312  0.0000E+00  0.2560E+03
     -3.217  0.0000E+00  0.2560E+03
     -3.123  0.0000E+00  0.2560E+03
     -3.029  0.0000E+00  0.2560E+03
     -2.935  0.0000E+00  0.2560E+03
     -2.841  0.0000E+00  0.2560E+03
     -2.746  0.0000E+00  0.2560E+03
     -2.652  0.0000E+00  0.2560E+03
     -2.558  0.0000E+00  0.2560E+03
     -2.464  0.0000E+00  0.2560E+03
     -2.369  0.0000E+00  0.2560E+03
     -2.275  0.0000E+00  0.2560E+03
     -2.181  0.0000E+00  0.2560E+03
     -2.087  0.5137E+01  0.2566E+03
     -1.993  0.5522E+01  0.2588E+03
     -1.898  0.1572E+01  0.2611E+03
     -1.804  0.1359E+01  0.2633E+03
     -1.710  0.1580E+01  0.2659E+03
     -1.616  0.1572E+01  0.2689E+03
     -1.522  0.3174E+01  0.2723E+03
     -1.427  0.4764E+01  0.2760E+03
     -1.333  0.4717E+01  0.2791E+03
     -1.239  0.0000E+00  0.2799E+03
     -1.145  0.0000E+00  0.2800E+03
     -1.050  0.0000E+00  0.2800E+03
     -0.956  0.3010E-05  0.2811E+03
     -0.862  0.1748E+01  0.2862E+03
     -0.768  0.3729E+01  0.2927E+03
     -0.674  0.6295E+01  0.2983E+03
     -0.579  0.3491E-02  0.3023E+03
     -0.485  0.6299E+01  0.3060E+03
     -0.391  0.3145E+01  0.3097E+03
     -0.297  0.7419E+01  0.3152E+03
     -0.202  0.1260E+02  0.3221E+03
     -0.108  0.7048E+01  0.3284E+03
     -0.014  0.4979E+01  0.3336E+03
      0.080  0.2794E+01  0.3403E+03
      0.174  0.3988E+01  0.3490E+03
      0.269  0.9420E+01  0.3596E+03
      0.363  0.8115E+01  0.3667E+03
      0.457  0.1115E+02  0.3740E+03
      0.551  0.6172E+01  0.3824E+03
      0.646  0.5159E+01  0.3889E+03
      0.740  0.6446E+01  0.3942E+03
      0.834  0.0000E+00  0.3967E+03
      0.928  0.3145E+01  0.3985E+03
      1.022  0.0000E+00  0.3993E+03
      1.117  0.0000E+00  0.3998E+03
      1.211  0.0000E+00  0.3999E+03
      1.305  0.2231E+00  0.3999E+03
      1.399  0.0000E+00  0.4000E+03
      1.493  0.0000E+00  0.4000E+03
      1.588  0.0000E+00  0.4000E+03
      1.682  0.0000E+00  0.4000E+03
      1.776  0.0000E+00  0.4000E+03
      1.870  0.0000E+00  0.4000E+03
      1.965  0.0000E+00  0.4000E+03
      2.059  0.0000E+00  0.4000E+03
      2.153  0.0000E+00  0.4000E+03
      2.247  0.0000E+00  0.4000E+03
      2.341  0.0000E+00  0.4000E+03
      2.436  0.0000E+00  0.4000E+03
      2.530  0.0000E+00  0.4000E+03
      2.624  0.0000E+00  0.4000E+03
      2.718  0.0000E+00  0.4000E+03
      2.813  0.0000E+00  0.4000E+03
      2.907  0.0000E+00  0.4000E+03
      3.001  0.3145E+01  0.4005E+03
      3.095  0.0000E+00  0.4007E+03
      3.189  0.8885E+01  0.4020E+03
      3.284  0.3930E+01  0.4033E+03
      3.378  0.4522E-06  0.4039E+03
      3.472  0.4727E-01  0.4059E+03
      3.566  0.0000E+00  0.4067E+03
      3.661  0.1572E+01  0.4079E+03
      3.755  0.0000E+00  0.4084E+03
      3.849  0.3145E+01  0.4093E+03
      3.943  0.3145E+01  0.4105E+03
      4.037  0.4717E+01  0.4121E+03
      4.132  0.4717E+01  0.4145E+03
      4.226  0.3142E+01  0.4164E+03
      4.320  0.4108E+01  0.4189E+03
      4.414  0.6289E+01  0.4219E+03
      4.508  0.0000E+00  0.4233E+03
      4.603  0.0000E+00  0.4239E+03
      4.697  0.0000E+00  0.4240E+03
      4.791  0.0000E+00  0.4240E+03
      4.885  0.0000E+00  0.4240E+03
      4.980  0.0000E+00  0.4240E+03
      5.074  0.0000E+00  0.4241E+03
      5.168  0.1648E+00  0.4244E+03
      5.262  0.3145E+01  0.4269E+03
      5.356  0.0000E+00  0.4293E+03
      5.451  0.2074E+01  0.4332E+03
      5.545  0.5565E+01  0.4365E+03
      5.639  0.1572E+01  0.4390E+03
      5.733  0.3145E+01  0.4415E+03
      5.828  0.1003E+00  0.4433E+03
      5.922  0.8661E+01  0.4457E+03
      6.016  0.1572E+01  0.4485E+03
      6.110  0.2976E+01  0.4524E+03
      6.204  0.1251E+01  0.4567E+03
      6.299  0.2736E+01  0.4602E+03
      6.393  0.1571E+01  0.4629E+03
      6.487  0.9608E+01  0.4672E+03
      6.581  0.4717E+01  0.4724E+03
      6.676  0.4675E+01  0.4767E+03
      6.770  0.6321E+01  0.4804E+03
      6.864  0.3145E+01  0.4852E+03
      6.958  0.2111E-09  0.4873E+03
      7.052  0.3153E+01  0.4904E+03
      7.147  0.1359E+02  0.4959E+03
      7.241  0.1262E+01  0.5012E+03
      7.335  0.4717E+01  0.5045E+03
      7.429  0.4364E-15  0.5091E+03
      7.523  0.4531E-03  0.5115E+03
      7.618  0.0000E+00  0.5120E+03
      7.712  0.0000E+00  0.5120E+03
      7.806  0.0000E+00  0.5120E+03
      7.900  0.0000E+00  0.5120E+03
      7.995  0.0000E+00  0.5120E+03
      8.089  0.0000E+00  0.5120E+03
      8.183  0.0000E+00  0.5120E+03
      8.277  0.0000E+00  0.5120E+03
      8.371  0.0000E+00  0.5120E+03
      8.466  0.0000E+00  0.5120E+03
      8.560  0.0000E+00  0.5120E+03
      8.654  0.0000E+00  0.5120E+03
      8.748  0.0000E+00  0.5120E+03
      8.843  0.0000E+00  0.5120E+03
