 running on   24 total cores
 distrk:  each k-point on   24 cores,    1 groups
 distr:  one band on    3 cores,    8 groups
 using from now: INCAR     
 vasp.5.4.1 24Jun15 (build Nov 25 2015 16:01:35) complex                        
  
 POSCAR found type information on POSCAR  C  N  H  Pb I 
 POSCAR found :  5 types and      96 ions
 scaLAPACK will be used

 ----------------------------------------------------------------------------- 
|                                                                             |
|  ADVICE TO THIS USER RUNNING 'VASP/VAMP'   (HEAR YOUR MASTER'S VOICE ...):  |
|                                                                             |
|      You have a (more or less) 'large supercell' and for larger cells       |
|      it might be more efficient to use real space projection opertators     |
|      So try LREAL= Auto  in the INCAR   file.                               |
|      Mind: At the moment your POTCAR file does not contain real space       |
|       projectors, and has to be modified,  BUT if you                       |
|      want to do an extremely  accurate calculation you might also keep the  |
|      reciprocal projection scheme          (i.e. LREAL=.FALSE.)             |
|                                                                             |
 ----------------------------------------------------------------------------- 


 ----------------------------------------------------------------------------- 
|                                                                             |
|  ADVICE TO THIS USER RUNNING 'VASP/VAMP'   (HEAR YOUR MASTER'S VOICE ...):  |
|                                                                             |
|      You enforced a specific xc-type in the INCAR file,                     |
|      a different type was found on the POTCAR file                          |
|          I HOPE YOU KNOW, WHAT YOU ARE  DOING                               |
|                                                                             |
 ----------------------------------------------------------------------------- 

 LDA part: xc-table for Pade appr. of Perdew
 POSCAR, INCAR and KPOINTS ok, starting setup
 WARNING: small aliasing (wrap around) errors must be expected
 FFT: planning ...
 WAVECAR not read
 entering main loop
       N       E                     dE             d eps       ncg     rms          rms(c)
DAV:   1     0.359527397428E+04    0.35953E+04   -0.18941E+05  7176   0.170E+03
DAV:   2     0.202534022793E+03   -0.33927E+04   -0.31936E+04  7976   0.354E+02
DAV:   3    -0.397486854286E+03   -0.60002E+03   -0.59093E+03  9472   0.172E+02
DAV:   4    -0.438186700606E+03   -0.40700E+02   -0.40525E+02  9648   0.490E+01
DAV:   5    -0.439731263672E+03   -0.15446E+01   -0.15422E+01  9784   0.925E+00    0.293E+01
DAV:   6    -0.419482697361E+03    0.20249E+02   -0.40864E+01  9752   0.104E+01    0.155E+01
DAV:   7    -0.417042230113E+03    0.24405E+01   -0.14658E+01 10264   0.641E+00    0.775E+00
DAV:   8    -0.416874731451E+03    0.16750E+00   -0.31076E+00  8536   0.322E+00    0.184E+00
DAV:   9    -0.416797247659E+03    0.77484E-01   -0.77293E-01  9432   0.178E+00    0.713E-01
DAV:  10    -0.416808742280E+03   -0.11495E-01   -0.11029E-01  8928   0.587E-01    0.465E-01
DAV:  11    -0.416808589822E+03    0.15246E-03   -0.15033E-02  9992   0.285E-01    0.195E-01
DAV:  12    -0.416809953037E+03   -0.13632E-02   -0.89061E-03  9752   0.151E-01    0.104E-01
DAV:  13    -0.416810113422E+03   -0.16039E-03   -0.13356E-03  8264   0.766E-02    0.726E-02
DAV:  14    -0.416810145900E+03   -0.32479E-04   -0.29446E-04  8648   0.295E-02    0.318E-02
DAV:  15    -0.416810191672E+03   -0.45771E-04   -0.14729E-04  8184   0.202E-02    0.121E-02
DAV:  16    -0.416810195441E+03   -0.37694E-05   -0.12825E-05 10448   0.666E-03    0.126E-02
DAV:  17    -0.416810195199E+03    0.24239E-06   -0.29477E-06  8168   0.309E-03    0.614E-03
DAV:  18    -0.416810195131E+03    0.68059E-07   -0.97142E-06  9216   0.496E-03    0.378E-03
DAV:  19    -0.416810195157E+03   -0.26703E-07   -0.94179E-07  7928   0.213E-03    0.272E-03
DAV:  20    -0.416810195139E+03    0.18732E-07   -0.45240E-07  8368   0.105E-03    0.551E-04
DAV:  21    -0.416810195187E+03   -0.48796E-07   -0.67148E-08  7048   0.522E-04    0.320E-04
DAV:  22    -0.416810195179E+03    0.83128E-08   -0.46201E-09  4832   0.228E-04
   1 F= -.41681020E+03 E0= -.41681020E+03  d E =0.000000E+00
Application 22074927 resources: utime ~167385s, stime ~93s, Rss ~640528, inblocks ~184891, outblocks ~194552
