   2   2   1   0
  0.3405476E+02  0.4583961E-09  0.4583961E-09  0.4583961E-09  0.5000000E-15
  1.000000000000000E-004
  CAR 
 Name                                    
     12.95144068    -10.03754702  301      2.54892375      1.00000000
    -10.038  0.0000E+00  0.0000E+00
     -9.961  0.0000E+00  0.0000E+00
     -9.884  0.0000E+00  0.0000E+00
     -9.808  0.0000E+00  0.0000E+00
     -9.731  0.0000E+00  0.0000E+00
     -9.654  0.0000E+00  0.0000E+00
     -9.578  0.0000E+00  0.0000E+00
     -9.501  0.0000E+00  0.0000E+00
     -9.425  0.0000E+00  0.0000E+00
     -9.348  0.0000E+00  0.0000E+00
     -9.271  0.0000E+00  0.0000E+00
     -9.195  0.0000E+00  0.0000E+00
     -9.118  0.0000E+00  0.0000E+00
     -9.041  0.3221E-12  0.2469E-13
     -8.965  0.1208E+00  0.9259E-02
     -8.888  0.6668E+00  0.6035E-01
     -8.811  0.7250E+00  0.1389E+00
     -8.735  0.1448E+01  0.2498E+00
     -8.658  0.3867E+01  0.5463E+00
     -8.582  0.3738E+01  0.8328E+00
     -8.505  0.8449E+01  0.1517E+01
     -8.428  0.5903E+01  0.2000E+01
     -8.352  0.0000E+00  0.2000E+01
     -8.275  0.0000E+00  0.2000E+01
     -8.198  0.0000E+00  0.2000E+01
     -8.122  0.0000E+00  0.2000E+01
     -8.045  0.0000E+00  0.2000E+01
     -7.969  0.0000E+00  0.2000E+01
     -7.892  0.0000E+00  0.2000E+01
     -7.815  0.0000E+00  0.2000E+01
     -7.739  0.0000E+00  0.2000E+01
     -7.662  0.0000E+00  0.2000E+01
     -7.585  0.0000E+00  0.2000E+01
     -7.509  0.0000E+00  0.2000E+01
     -7.432  0.0000E+00  0.2000E+01
     -7.355  0.0000E+00  0.2000E+01
     -7.279  0.0000E+00  0.2000E+01
     -7.202  0.0000E+00  0.2000E+01
     -7.126  0.0000E+00  0.2000E+01
     -7.049  0.0000E+00  0.2000E+01
     -6.972  0.0000E+00  0.2000E+01
     -6.896  0.0000E+00  0.2000E+01
     -6.819  0.0000E+00  0.2000E+01
     -6.742  0.0000E+00  0.2000E+01
     -6.666  0.0000E+00  0.2000E+01
     -6.589  0.0000E+00  0.2000E+01
     -6.513  0.0000E+00  0.2000E+01
     -6.436  0.0000E+00  0.2000E+01
     -6.359  0.7476E+00  0.2057E+01
     -6.283  0.2308E+02  0.3833E+01
     -6.206  0.9899E+01  0.4619E+01
     -6.129  0.8294E+01  0.5268E+01
     -6.053  0.9112E+00  0.5338E+01
     -5.976  0.5836E+01  0.5786E+01
     -5.900  0.2793E+01  0.6000E+01
     -5.823  0.2865E-01  0.6002E+01
     -5.746  0.1992E+01  0.6155E+01
     -5.670  0.1442E+02  0.7260E+01
     -5.593  0.1319E+02  0.8327E+01
     -5.516  0.2436E+02  0.1020E+02
     -5.440  0.4496E+01  0.1055E+02
     -5.363  0.3530E+01  0.1082E+02
     -5.286  0.2232E+01  0.1100E+02
     -5.210  0.7586E+01  0.1158E+02
     -5.133  0.2537E+01  0.1178E+02
     -5.057  0.2810E+01  0.1199E+02
     -4.980  0.0000E+00  0.1200E+02
     -4.903  0.0000E+00  0.1200E+02
     -4.827  0.0000E+00  0.1200E+02
     -4.750  0.0000E+00  0.1200E+02
     -4.673  0.0000E+00  0.1200E+02
     -4.597  0.0000E+00  0.1200E+02
     -4.520  0.0000E+00  0.1200E+02
     -4.444  0.0000E+00  0.1200E+02
     -4.367  0.0000E+00  0.1200E+02
     -4.290  0.0000E+00  0.1200E+02
     -4.214  0.0000E+00  0.1200E+02
     -4.137  0.0000E+00  0.1200E+02
     -4.060  0.0000E+00  0.1200E+02
     -3.984  0.0000E+00  0.1200E+02
     -3.907  0.0000E+00  0.1200E+02
     -3.831  0.0000E+00  0.1200E+02
     -3.754  0.0000E+00  0.1200E+02
     -3.677  0.0000E+00  0.1200E+02
     -3.601  0.0000E+00  0.1200E+02
     -3.524  0.0000E+00  0.1200E+02
     -3.447  0.0000E+00  0.1200E+02
     -3.371  0.0000E+00  0.1200E+02
     -3.294  0.0000E+00  0.1200E+02
     -3.217  0.0000E+00  0.1200E+02
     -3.141  0.0000E+00  0.1200E+02
     -3.064  0.0000E+00  0.1200E+02
     -2.988  0.0000E+00  0.1200E+02
     -2.911  0.0000E+00  0.1200E+02
     -2.834  0.0000E+00  0.1200E+02
     -2.758  0.0000E+00  0.1200E+02
     -2.681  0.0000E+00  0.1200E+02
     -2.604  0.0000E+00  0.1200E+02
     -2.528  0.0000E+00  0.1200E+02
     -2.451  0.0000E+00  0.1200E+02
     -2.375  0.0000E+00  0.1200E+02
     -2.298  0.7682E-02  0.1200E+02
     -2.221  0.4756E+00  0.1204E+02
     -2.145  0.1120E+01  0.1212E+02
     -2.068  0.3587E+01  0.1240E+02
     -1.991  0.2901E+01  0.1262E+02
     -1.915  0.1722E+01  0.1275E+02
     -1.838  0.3624E+01  0.1306E+02
     -1.762  0.8832E-02  0.1307E+02
     -1.685  0.2891E+01  0.1329E+02
     -1.608  0.8049E-16  0.1329E+02
     -1.532  0.1441E+01  0.1340E+02
     -1.455  0.4970E-02  0.1340E+02
     -1.378  0.9617E+00  0.1347E+02
     -1.302  0.7250E+00  0.1353E+02
     -1.225  0.0000E+00  0.1353E+02
     -1.148  0.0000E+00  0.1353E+02
     -1.072  0.1437E-10  0.1353E+02
     -0.995  0.1450E+01  0.1364E+02
     -0.919  0.1450E+01  0.1375E+02
     -0.842  0.0000E+00  0.1375E+02
     -0.765  0.0000E+00  0.1375E+02
     -0.689  0.2951E-12  0.1375E+02
     -0.612  0.1434E+01  0.1386E+02
     -0.535  0.9804E-02  0.1386E+02
     -0.459  0.7152E+00  0.1392E+02
     -0.382  0.1440E+01  0.1403E+02
     -0.306  0.1174E+01  0.1412E+02
     -0.229  0.2565E+00  0.1414E+02
     -0.152  0.3287E-01  0.1414E+02
     -0.076  0.3353E+01  0.1440E+02
      0.001  0.9636E+00  0.1447E+02
      0.078  0.1306E+01  0.1457E+02
      0.154  0.2089E+01  0.1473E+02
      0.231  0.1971E+01  0.1489E+02
      0.307  0.1449E+01  0.1500E+02
      0.384  0.2910E+01  0.1522E+02
      0.461  0.1394E+01  0.1535E+02
      0.537  0.1212E+01  0.1544E+02
      0.614  0.4557E+01  0.1579E+02
      0.691  0.2567E+01  0.1599E+02
      0.767  0.9240E-02  0.1599E+02
      0.844  0.3593E+01  0.1627E+02
      0.921  0.2170E+01  0.1644E+02
      0.997  0.3098E+01  0.1667E+02
      1.074  0.7244E-15  0.1671E+02
      1.150  0.1514E+01  0.1683E+02
      1.227  0.1866E+01  0.1697E+02
      1.304  0.1057E+01  0.1705E+02
      1.380  0.2416E+01  0.1727E+02
      1.457  0.3622E+01  0.1755E+02
      1.534  0.0000E+00  0.1755E+02
      1.610  0.5045E-06  0.1755E+02
      1.687  0.5896E+00  0.1759E+02
      1.763  0.9666E+00  0.1767E+02
      1.840  0.1091E+01  0.1775E+02
      1.917  0.1893E+01  0.1791E+02
      1.993  0.0000E+00  0.1791E+02
      2.070  0.0000E+00  0.1791E+02
      2.147  0.0000E+00  0.1791E+02
      2.223  0.5237E-01  0.1791E+02
      2.300  0.9143E+00  0.1798E+02
      2.377  0.0000E+00  0.1798E+02
      2.453  0.7451E-05  0.1798E+02
      2.530  0.2417E+00  0.1800E+02
      2.606  0.0000E+00  0.1800E+02
      2.683  0.0000E+00  0.1800E+02
      2.760  0.0000E+00  0.1800E+02
      2.836  0.4337E-06  0.1800E+02
      2.913  0.1208E+00  0.1801E+02
      2.990  0.0000E+00  0.1801E+02
      3.066  0.0000E+00  0.1801E+02
      3.143  0.0000E+00  0.1801E+02
      3.219  0.0000E+00  0.1801E+02
      3.296  0.0000E+00  0.1801E+02
      3.373  0.0000E+00  0.1801E+02
      3.449  0.0000E+00  0.1801E+02
      3.526  0.0000E+00  0.1801E+02
      3.603  0.0000E+00  0.1801E+02
      3.679  0.0000E+00  0.1801E+02
      3.756  0.0000E+00  0.1801E+02
      3.832  0.0000E+00  0.1801E+02
      3.909  0.2498E-04  0.1801E+02
      3.986  0.5483E+00  0.1805E+02
      4.062  0.1847E+01  0.1819E+02
      4.139  0.0000E+00  0.1819E+02
      4.216  0.0000E+00  0.1819E+02
      4.292  0.0000E+00  0.1819E+02
      4.369  0.0000E+00  0.1819E+02
      4.446  0.0000E+00  0.1819E+02
      4.522  0.0000E+00  0.1819E+02
      4.599  0.2012E-15  0.1819E+02
      4.675  0.7237E+00  0.1825E+02
      4.752  0.1076E+01  0.1833E+02
      4.829  0.3629E+00  0.1836E+02
      4.905  0.3814E+01  0.1865E+02
      4.982  0.6329E+01  0.1914E+02
      5.059  0.2030E+01  0.1929E+02
      5.135  0.1155E+01  0.1938E+02
      5.212  0.1134E+01  0.1947E+02
      5.288  0.7034E+00  0.1953E+02
      5.365  0.0000E+00  0.1953E+02
      5.442  0.0000E+00  0.1953E+02
      5.518  0.0000E+00  0.1953E+02
      5.595  0.1439E+01  0.1964E+02
      5.672  0.2747E-04  0.1964E+02
      5.748  0.2171E+01  0.1981E+02
      5.825  0.2011E+01  0.1996E+02
      5.901  0.2995E+01  0.2020E+02
      5.978  0.2888E+01  0.2044E+02
      6.055  0.4596E+00  0.2047E+02
      6.131  0.3827E-07  0.2047E+02
      6.208  0.2999E+01  0.2070E+02
      6.285  0.1359E+01  0.2081E+02
      6.361  0.1442E+01  0.2092E+02
      6.438  0.0000E+00  0.2092E+02
      6.515  0.1720E-01  0.2092E+02
      6.591  0.1036E+00  0.2093E+02
      6.668  0.5718E-08  0.2093E+02
      6.744  0.1491E+01  0.2104E+02
      6.821  0.3639E+01  0.2132E+02
      6.898  0.3305E+01  0.2157E+02
      6.974  0.9974E-03  0.2157E+02
      7.051  0.1438E+01  0.2168E+02
      7.128  0.3144E+01  0.2193E+02
      7.204  0.6182E+00  0.2197E+02
      7.281  0.1278E+01  0.2207E+02
      7.357  0.1955E+01  0.2222E+02
      7.434  0.2633E+01  0.2243E+02
      7.511  0.2409E+01  0.2261E+02
      7.587  0.4153E-03  0.2261E+02
      7.664  0.1177E+01  0.2270E+02
      7.741  0.1039E+01  0.2278E+02
      7.817  0.4871E+01  0.2315E+02
      7.894  0.2823E+01  0.2339E+02
      7.970  0.1397E+01  0.2350E+02
      8.047  0.1243E-03  0.2350E+02
      8.124  0.2900E+01  0.2372E+02
      8.200  0.0000E+00  0.2372E+02
      8.277  0.1817E+01  0.2386E+02
      8.354  0.7481E+00  0.2394E+02
      8.430  0.9645E+00  0.2402E+02
      8.507  0.2251E+01  0.2419E+02
      8.584  0.6483E+00  0.2424E+02
      8.660  0.2065E-04  0.2424E+02
      8.737  0.1943E+01  0.2439E+02
      8.813  0.1682E+01  0.2452E+02
      8.890  0.7250E+00  0.2457E+02
      8.967  0.7250E+00  0.2463E+02
      9.043  0.1704E+01  0.2476E+02
      9.120  0.3331E+01  0.2502E+02
      9.197  0.1205E+01  0.2511E+02
      9.273  0.7251E+00  0.2517E+02
      9.350  0.2847E+01  0.2538E+02
      9.426  0.6358E-07  0.2539E+02
      9.503  0.2969E+01  0.2562E+02
      9.580  0.7015E+00  0.2567E+02
      9.656  0.1585E+01  0.2580E+02
      9.733  0.1315E+01  0.2590E+02
      9.810  0.7244E+00  0.2595E+02
      9.886  0.4325E+01  0.2629E+02
      9.963  0.7135E-05  0.2629E+02
     10.040  0.3417E+01  0.2655E+02
     10.116  0.9689E+00  0.2662E+02
     10.193  0.1008E+01  0.2670E+02
     10.269  0.1373E+01  0.2681E+02
     10.346  0.1467E+01  0.2692E+02
     10.423  0.1433E+01  0.2703E+02
     10.499  0.2242E+00  0.2704E+02
     10.576  0.7008E+00  0.2710E+02
     10.653  0.2941E+01  0.2732E+02
     10.729  0.4571E+00  0.2736E+02
     10.806  0.3624E+00  0.2739E+02
     10.882  0.1450E+01  0.2750E+02
     10.959  0.1026E-02  0.2750E+02
     11.036  0.1449E+01  0.2761E+02
     11.112  0.6848E+00  0.2766E+02
     11.189  0.7651E+00  0.2772E+02
     11.266  0.1512E-04  0.2772E+02
     11.342  0.1812E+01  0.2786E+02
     11.419  0.3623E+00  0.2789E+02
     11.495  0.1676E-05  0.2789E+02
     11.572  0.7250E+00  0.2794E+02
     11.649  0.0000E+00  0.2794E+02
     11.725  0.0000E+00  0.2794E+02
     11.802  0.0000E+00  0.2794E+02
     11.879  0.2964E-04  0.2794E+02
     11.955  0.7250E+00  0.2800E+02
     12.032  0.0000E+00  0.2800E+02
     12.109  0.0000E+00  0.2800E+02
     12.185  0.0000E+00  0.2800E+02
     12.262  0.0000E+00  0.2800E+02
     12.338  0.0000E+00  0.2800E+02
     12.415  0.0000E+00  0.2800E+02
     12.492  0.0000E+00  0.2800E+02
     12.568  0.0000E+00  0.2800E+02
     12.645  0.0000E+00  0.2800E+02
     12.722  0.0000E+00  0.2800E+02
     12.798  0.0000E+00  0.2800E+02
     12.875  0.0000E+00  0.2800E+02
     12.951  0.0000E+00  0.2800E+02
     12.95144068    -10.03754702  301      2.54892375      1.00000000
    -10.038  0.0000E+00  0.0000E+00  0.0000E+00  0.0000E+00  0.0000E+00  0.0000E+00  0.0000E+00  0.0000E+00  0.0000E+00  0.0000E+00  0.0000E+00  0.0000E+00
     -9.961  0.0000E+00  0.0000E+00  0.0000E+00  0.0000E+00  0.0000E+00  0.0000E+00  0.0000E+00  0.0000E+00  0.0000E+00  0.0000E+00  0.0000E+00  0.0000E+00
     -9.884  0.0000E+00  0.0000E+00  0.0000E+00  0.0000E+00  0.0000E+00  0.0000E+00  0.0000E+00  0.0000E+00  0.0000E+00  0.0000E+00  0.0000E+00  0.0000E+00
     -9.808  0.0000E+00  0.0000E+00  0.0000E+00  0.0000E+00  0.0000E+00  0.0000E+00  0.0000E+00  0.0000E+00  0.0000E+00  0.0000E+00  0.0000E+00  0.0000E+00
     -9.731  0.0000E+00  0.0000E+00  0.0000E+00  0.0000E+00  0.0000E+00  0.0000E+00  0.0000E+00  0.0000E+00  0.0000E+00  0.0000E+00  0.0000E+00  0.0000E+00
     -9.654  0.0000E+00  0.0000E+00  0.0000E+00  0.0000E+00  0.0000E+00  0.0000E+00  0.0000E+00  0.0000E+00  0.0000E+00  0.0000E+00  0.0000E+00  0.0000E+00
     -9.578  0.0000E+00  0.0000E+00  0.0000E+00  0.0000E+00  0.0000E+00  0.0000E+00  0.0000E+00  0.0000E+00  0.0000E+00  0.0000E+00  0.0000E+00  0.0000E+00
     -9.501  0.0000E+00  0.0000E+00  0.0000E+00  0.0000E+00  0.0000E+00  0.0000E+00  0.0000E+00  0.0000E+00  0.0000E+00  0.0000E+00  0.0000E+00  0.0000E+00
     -9.425  0.0000E+00  0.0000E+00  0.0000E+00  0.0000E+00  0.0000E+00  0.0000E+00  0.0000E+00  0.0000E+00  0.0000E+00  0.0000E+00  0.0000E+00  0.0000E+00
     -9.348  0.0000E+00  0.0000E+00  0.0000E+00  0.0000E+00  0.0000E+00  0.0000E+00  0.0000E+00  0.0000E+00  0.0000E+00  0.0000E+00  0.0000E+00  0.0000E+00
     -9.271  0.0000E+00  0.0000E+00  0.0000E+00  0.0000E+00  0.0000E+00  0.0000E+00  0.0000E+00  0.0000E+00  0.0000E+00  0.0000E+00  0.0000E+00  0.0000E+00
     -9.195  0.0000E+00  0.0000E+00  0.0000E+00  0.0000E+00  0.0000E+00  0.0000E+00  0.0000E+00  0.0000E+00  0.0000E+00  0.0000E+00  0.0000E+00  0.0000E+00
     -9.118  0.0000E+00  0.0000E+00  0.0000E+00  0.0000E+00  0.0000E+00  0.0000E+00  0.0000E+00  0.0000E+00  0.0000E+00  0.0000E+00  0.0000E+00  0.0000E+00
     -9.041  0.2027E-13 -0.7731E-17 -0.7709E-17 -0.7578E-17  0.3138E-28 -0.6052E-29 -0.5959E-29 -0.5442E-29  0.8108E-27 -0.6595E-28 -0.5278E-28  0.1710E-27
     -8.965  0.7602E-02  0.5421E-09  0.5413E-09  0.5330E-09  0.1177E-16 -0.2272E-17 -0.2237E-17 -0.2044E-17  0.3041E-15 -0.2479E-16 -0.1985E-16  0.6407E-16
     -8.888  0.3525E-01 -0.1367E-05 -0.1380E-05 -0.1366E-05  0.1681E-02 -0.6556E-07 -0.6593E-07 -0.6525E-07  0.1197E-01 -0.4646E-06 -0.4682E-06 -0.4636E-06
     -8.811  0.3579E-01  0.6912E-08  0.6966E-08  0.6871E-08  0.2458E-02 -0.2624E-09 -0.1935E-09 -0.1903E-09  0.1770E-01 -0.4889E-08 -0.5286E-08 -0.5299E-08
     -8.735  0.5497E-01 -0.2262E-04  0.2261E-04 -0.8416E-08  0.8621E-02 -0.3388E-04  0.3387E-04 -0.3386E-08  0.7047E-01  0.7423E-03 -0.7423E-03 -0.3128E-07
     -8.658  0.1157E+00  0.3010E-04 -0.3003E-04  0.3618E-07  0.2967E-01  0.3879E-04 -0.3879E-04  0.2225E-08  0.2604E+00 -0.7540E-03  0.7541E-03  0.3195E-07
     -8.582  0.6368E-01  0.9207E-03 -0.3298E-03 -0.5962E-03  0.3803E-01  0.4008E-03 -0.9172E-04 -0.3125E-03  0.3790E+00  0.7841E-02 -0.2752E-02 -0.5122E-02
     -8.505  0.8529E-01 -0.1559E-02  0.7344E-03  0.8220E-03  0.9683E-01 -0.4847E-02  0.2579E-02  0.2258E-02  0.1028E+01 -0.6235E-01  0.3769E-01  0.2455E-01
     -8.428  0.1793E-01  0.2152E-02 -0.1260E-02 -0.8889E-03  0.7828E-01  0.6923E-02 -0.4020E-02 -0.2891E-02  0.7915E+00  0.5292E-01 -0.3173E-01 -0.2108E-01
     -8.352  0.0000E+00  0.0000E+00  0.0000E+00  0.0000E+00  0.0000E+00  0.0000E+00  0.0000E+00  0.0000E+00  0.0000E+00  0.0000E+00  0.0000E+00  0.0000E+00
     -8.275  0.0000E+00  0.0000E+00  0.0000E+00  0.0000E+00  0.0000E+00  0.0000E+00  0.0000E+00  0.0000E+00  0.0000E+00  0.0000E+00  0.0000E+00  0.0000E+00
     -8.198  0.0000E+00  0.0000E+00  0.0000E+00  0.0000E+00  0.0000E+00  0.0000E+00  0.0000E+00  0.0000E+00  0.0000E+00  0.0000E+00  0.0000E+00  0.0000E+00
     -8.122  0.0000E+00  0.0000E+00  0.0000E+00  0.0000E+00  0.0000E+00  0.0000E+00  0.0000E+00  0.0000E+00  0.0000E+00  0.0000E+00  0.0000E+00  0.0000E+00
     -8.045  0.0000E+00  0.0000E+00  0.0000E+00  0.0000E+00  0.0000E+00  0.0000E+00  0.0000E+00  0.0000E+00  0.0000E+00  0.0000E+00  0.0000E+00  0.0000E+00
     -7.969  0.0000E+00  0.0000E+00  0.0000E+00  0.0000E+00  0.0000E+00  0.0000E+00  0.0000E+00  0.0000E+00  0.0000E+00  0.0000E+00  0.0000E+00  0.0000E+00
     -7.892  0.0000E+00  0.0000E+00  0.0000E+00  0.0000E+00  0.0000E+00  0.0000E+00  0.0000E+00  0.0000E+00  0.0000E+00  0.0000E+00  0.0000E+00  0.0000E+00
     -7.815  0.0000E+00  0.0000E+00  0.0000E+00  0.0000E+00  0.0000E+00  0.0000E+00  0.0000E+00  0.0000E+00  0.0000E+00  0.0000E+00  0.0000E+00  0.0000E+00
     -7.739  0.0000E+00  0.0000E+00  0.0000E+00  0.0000E+00  0.0000E+00  0.0000E+00  0.0000E+00  0.0000E+00  0.0000E+00  0.0000E+00  0.0000E+00  0.0000E+00
     -7.662  0.0000E+00  0.0000E+00  0.0000E+00  0.0000E+00  0.0000E+00  0.0000E+00  0.0000E+00  0.0000E+00  0.0000E+00  0.0000E+00  0.0000E+00  0.0000E+00
     -7.585  0.0000E+00  0.0000E+00  0.0000E+00  0.0000E+00  0.0000E+00  0.0000E+00  0.0000E+00  0.0000E+00  0.0000E+00  0.0000E+00  0.0000E+00  0.0000E+00
     -7.509  0.0000E+00  0.0000E+00  0.0000E+00  0.0000E+00  0.0000E+00  0.0000E+00  0.0000E+00  0.0000E+00  0.0000E+00  0.0000E+00  0.0000E+00  0.0000E+00
     -7.432  0.0000E+00  0.0000E+00  0.0000E+00  0.0000E+00  0.0000E+00  0.0000E+00  0.0000E+00  0.0000E+00  0.0000E+00  0.0000E+00  0.0000E+00  0.0000E+00
     -7.355  0.0000E+00  0.0000E+00  0.0000E+00  0.0000E+00  0.0000E+00  0.0000E+00  0.0000E+00  0.0000E+00  0.0000E+00  0.0000E+00  0.0000E+00  0.0000E+00
     -7.279  0.0000E+00  0.0000E+00  0.0000E+00  0.0000E+00  0.0000E+00  0.0000E+00  0.0000E+00  0.0000E+00  0.0000E+00  0.0000E+00  0.0000E+00  0.0000E+00
     -7.202  0.0000E+00  0.0000E+00  0.0000E+00  0.0000E+00  0.0000E+00  0.0000E+00  0.0000E+00  0.0000E+00  0.0000E+00  0.0000E+00  0.0000E+00  0.0000E+00
     -7.126  0.0000E+00  0.0000E+00  0.0000E+00  0.0000E+00  0.0000E+00  0.0000E+00  0.0000E+00  0.0000E+00  0.0000E+00  0.0000E+00  0.0000E+00  0.0000E+00
     -7.049  0.0000E+00  0.0000E+00  0.0000E+00  0.0000E+00  0.0000E+00  0.0000E+00  0.0000E+00  0.0000E+00  0.0000E+00  0.0000E+00  0.0000E+00  0.0000E+00
     -6.972  0.0000E+00  0.0000E+00  0.0000E+00  0.0000E+00  0.0000E+00  0.0000E+00  0.0000E+00  0.0000E+00  0.0000E+00  0.0000E+00  0.0000E+00  0.0000E+00
     -6.896  0.0000E+00  0.0000E+00  0.0000E+00  0.0000E+00  0.0000E+00  0.0000E+00  0.0000E+00  0.0000E+00  0.0000E+00  0.0000E+00  0.0000E+00  0.0000E+00
     -6.819  0.0000E+00  0.0000E+00  0.0000E+00  0.0000E+00  0.0000E+00  0.0000E+00  0.0000E+00  0.0000E+00  0.0000E+00  0.0000E+00  0.0000E+00  0.0000E+00
     -6.742  0.0000E+00  0.0000E+00  0.0000E+00  0.0000E+00  0.0000E+00  0.0000E+00  0.0000E+00  0.0000E+00  0.0000E+00  0.0000E+00  0.0000E+00  0.0000E+00
     -6.666  0.0000E+00  0.0000E+00  0.0000E+00  0.0000E+00  0.0000E+00  0.0000E+00  0.0000E+00  0.0000E+00  0.0000E+00  0.0000E+00  0.0000E+00  0.0000E+00
     -6.589  0.0000E+00  0.0000E+00  0.0000E+00  0.0000E+00  0.0000E+00  0.0000E+00  0.0000E+00  0.0000E+00  0.0000E+00  0.0000E+00  0.0000E+00  0.0000E+00
     -6.513  0.0000E+00  0.0000E+00  0.0000E+00  0.0000E+00  0.0000E+00  0.0000E+00  0.0000E+00  0.0000E+00  0.0000E+00  0.0000E+00  0.0000E+00  0.0000E+00
     -6.436  0.0000E+00  0.0000E+00  0.0000E+00  0.0000E+00  0.0000E+00  0.0000E+00  0.0000E+00  0.0000E+00  0.0000E+00  0.0000E+00  0.0000E+00  0.0000E+00
     -6.359  0.7460E-05 -0.6575E-06  0.6579E-06  0.1104E-09  0.2071E-03 -0.3637E-06  0.3582E-06 -0.3548E-08  0.6864E+00  0.9055E-03 -0.9145E-03 -0.6848E-05
     -6.283  0.6686E-02 -0.2233E-03  0.1834E-03  0.3984E-04  0.6573E-02 -0.2965E-04  0.1336E-04  0.1625E-04  0.2133E+02  0.1490E+00 -0.6796E-01 -0.8108E-01
     -6.206  0.9119E-02  0.5156E-03 -0.6161E-03  0.1005E-03  0.3541E-02 -0.3157E-04 -0.3399E-04  0.6558E-04  0.9136E+01 -0.1952E-01 -0.1700E-01  0.3658E-01
     -6.129  0.1920E-01 -0.2197E-04 -0.1691E-05  0.2371E-04  0.4677E-02  0.1005E-03 -0.4127E-04 -0.5923E-04  0.7544E+01 -0.2007E+00  0.8285E-01  0.1179E+00
     -6.053  0.9570E-03  0.4335E-04 -0.2161E-04 -0.2177E-04  0.7927E-03  0.7633E-05 -0.3797E-05 -0.3841E-05  0.8314E+00  0.1874E-03 -0.9739E-04 -0.8756E-04
     -5.976  0.1424E-01 -0.4836E-04  0.6307E-03 -0.5822E-03  0.5198E-02 -0.4167E-03  0.3762E-03  0.4046E-04  0.5240E+01  0.1963E+00 -0.1353E+00 -0.6096E-01
     -5.900  0.2543E-02 -0.1750E-03  0.1994E-03 -0.2440E-04  0.2981E-02 -0.7802E-03  0.4189E-03  0.3612E-03  0.2510E+01  0.3334E+00 -0.1693E+00 -0.1641E+00
     -5.823  0.2602E-12 -0.2650E-16  0.1457E-16  0.1683E-16  0.1488E-04 -0.1691E-09 -0.1698E-09 -0.1766E-09  0.2557E-01 -0.2708E-06 -0.2720E-06 -0.2847E-06
     -5.746  0.3371E-02  0.6685E-04 -0.6686E-04 -0.1064E-08  0.9129E-03 -0.3879E-05  0.3876E-05 -0.1986E-08  0.1775E+01  0.5437E-02 -0.5440E-02 -0.1765E-05
     -5.670  0.1094E-01 -0.2444E-03  0.2552E-03 -0.1072E-04  0.7905E-02  0.2332E-03 -0.1539E-03 -0.7931E-04  0.1309E+02  0.2158E+00 -0.1377E+00 -0.7810E-01
     -5.593  0.7998E-02  0.1091E-03 -0.1663E-04 -0.9250E-04  0.5265E-02  0.2454E-03 -0.1743E-03 -0.7109E-04  0.1214E+02  0.1667E+00 -0.1392E+00 -0.2733E-01
     -5.516  0.9841E-02 -0.5130E-03  0.2230E-03  0.2898E-03  0.2800E-02  0.6049E-04 -0.2807E-04 -0.3236E-04  0.2284E+02 -0.1262E+01  0.8908E+00  0.3706E+00
     -5.440  0.2737E-01 -0.1404E-03  0.1405E-03  0.3437E-07  0.1330E-02  0.4516E-05 -0.4513E-05  0.1808E-08  0.4041E+01 -0.1271E-01  0.1269E-01 -0.1013E-04
     -5.363  0.2526E-01  0.1367E-03  0.1269E-02 -0.1405E-02  0.3800E-02  0.5966E-04  0.1931E-03 -0.2528E-03  0.3072E+01  0.1357E+00 -0.3082E-02 -0.1327E+00
     -5.286  0.1441E-01 -0.1116E-02  0.5379E-03  0.5776E-03  0.3086E-02 -0.1417E-03  0.6752E-04  0.7419E-04  0.1937E+01 -0.1001E+00  0.4836E-01  0.5174E-01
     -5.210  0.4253E-01 -0.9385E-03 -0.1307E-02  0.2245E-02  0.1530E-01 -0.1223E-02  0.4514E-03  0.7717E-03  0.6485E+01 -0.1879E+00 -0.2621E-01  0.2141E+00
     -5.133  0.6576E-02  0.1184E-02 -0.5921E-03 -0.5921E-03  0.8557E-02 -0.4607E-03  0.2304E-03  0.2304E-03  0.2128E+01  0.1803E-01 -0.9017E-02 -0.9016E-02
     -5.057  0.8309E-02  0.1226E-02 -0.7959E-03 -0.4298E-03  0.8973E-02  0.2276E-02 -0.1279E-02 -0.9969E-03  0.2359E+01  0.4798E+00 -0.2839E+00 -0.1959E+00
     -4.980  0.0000E+00  0.0000E+00  0.0000E+00  0.0000E+00  0.0000E+00  0.0000E+00  0.0000E+00  0.0000E+00  0.0000E+00  0.0000E+00  0.0000E+00  0.0000E+00
     -4.903  0.0000E+00  0.0000E+00  0.0000E+00  0.0000E+00  0.0000E+00  0.0000E+00  0.0000E+00  0.0000E+00  0.0000E+00  0.0000E+00  0.0000E+00  0.0000E+00
     -4.827  0.0000E+00  0.0000E+00  0.0000E+00  0.0000E+00  0.0000E+00  0.0000E+00  0.0000E+00  0.0000E+00  0.0000E+00  0.0000E+00  0.0000E+00  0.0000E+00
     -4.750  0.0000E+00  0.0000E+00  0.0000E+00  0.0000E+00  0.0000E+00  0.0000E+00  0.0000E+00  0.0000E+00  0.0000E+00  0.0000E+00  0.0000E+00  0.0000E+00
     -4.673  0.0000E+00  0.0000E+00  0.0000E+00  0.0000E+00  0.0000E+00  0.0000E+00  0.0000E+00  0.0000E+00  0.0000E+00  0.0000E+00  0.0000E+00  0.0000E+00
     -4.597  0.0000E+00  0.0000E+00  0.0000E+00  0.0000E+00  0.0000E+00  0.0000E+00  0.0000E+00  0.0000E+00  0.0000E+00  0.0000E+00  0.0000E+00  0.0000E+00
     -4.520  0.0000E+00  0.0000E+00  0.0000E+00  0.0000E+00  0.0000E+00  0.0000E+00  0.0000E+00  0.0000E+00  0.0000E+00  0.0000E+00  0.0000E+00  0.0000E+00
     -4.444  0.0000E+00  0.0000E+00  0.0000E+00  0.0000E+00  0.0000E+00  0.0000E+00  0.0000E+00  0.0000E+00  0.0000E+00  0.0000E+00  0.0000E+00  0.0000E+00
     -4.367  0.0000E+00  0.0000E+00  0.0000E+00  0.0000E+00  0.0000E+00  0.0000E+00  0.0000E+00  0.0000E+00  0.0000E+00  0.0000E+00  0.0000E+00  0.0000E+00
     -4.290  0.0000E+00  0.0000E+00  0.0000E+00  0.0000E+00  0.0000E+00  0.0000E+00  0.0000E+00  0.0000E+00  0.0000E+00  0.0000E+00  0.0000E+00  0.0000E+00
     -4.214  0.0000E+00  0.0000E+00  0.0000E+00  0.0000E+00  0.0000E+00  0.0000E+00  0.0000E+00  0.0000E+00  0.0000E+00  0.0000E+00  0.0000E+00  0.0000E+00
     -4.137  0.0000E+00  0.0000E+00  0.0000E+00  0.0000E+00  0.0000E+00  0.0000E+00  0.0000E+00  0.0000E+00  0.0000E+00  0.0000E+00  0.0000E+00  0.0000E+00
     -4.060  0.0000E+00  0.0000E+00  0.0000E+00  0.0000E+00  0.0000E+00  0.0000E+00  0.0000E+00  0.0000E+00  0.0000E+00  0.0000E+00  0.0000E+00  0.0000E+00
     -3.984  0.0000E+00  0.0000E+00  0.0000E+00  0.0000E+00  0.0000E+00  0.0000E+00  0.0000E+00  0.0000E+00  0.0000E+00  0.0000E+00  0.0000E+00  0.0000E+00
     -3.907  0.0000E+00  0.0000E+00  0.0000E+00  0.0000E+00  0.0000E+00  0.0000E+00  0.0000E+00  0.0000E+00  0.0000E+00  0.0000E+00  0.0000E+00  0.0000E+00
     -3.831  0.0000E+00  0.0000E+00  0.0000E+00  0.0000E+00  0.0000E+00  0.0000E+00  0.0000E+00  0.0000E+00  0.0000E+00  0.0000E+00  0.0000E+00  0.0000E+00
     -3.754  0.0000E+00  0.0000E+00  0.0000E+00  0.0000E+00  0.0000E+00  0.0000E+00  0.0000E+00  0.0000E+00  0.0000E+00  0.0000E+00  0.0000E+00  0.0000E+00
     -3.677  0.0000E+00  0.0000E+00  0.0000E+00  0.0000E+00  0.0000E+00  0.0000E+00  0.0000E+00  0.0000E+00  0.0000E+00  0.0000E+00  0.0000E+00  0.0000E+00
     -3.601  0.0000E+00  0.0000E+00  0.0000E+00  0.0000E+00  0.0000E+00  0.0000E+00  0.0000E+00  0.0000E+00  0.0000E+00  0.0000E+00  0.0000E+00  0.0000E+00
     -3.524  0.0000E+00  0.0000E+00  0.0000E+00  0.0000E+00  0.0000E+00  0.0000E+00  0.0000E+00  0.0000E+00  0.0000E+00  0.0000E+00  0.0000E+00  0.0000E+00
     -3.447  0.0000E+00  0.0000E+00  0.0000E+00  0.0000E+00  0.0000E+00  0.0000E+00  0.0000E+00  0.0000E+00  0.0000E+00  0.0000E+00  0.0000E+00  0.0000E+00
     -3.371  0.0000E+00  0.0000E+00  0.0000E+00  0.0000E+00  0.0000E+00  0.0000E+00  0.0000E+00  0.0000E+00  0.0000E+00  0.0000E+00  0.0000E+00  0.0000E+00
     -3.294  0.0000E+00  0.0000E+00  0.0000E+00  0.0000E+00  0.0000E+00  0.0000E+00  0.0000E+00  0.0000E+00  0.0000E+00  0.0000E+00  0.0000E+00  0.0000E+00
     -3.217  0.0000E+00  0.0000E+00  0.0000E+00  0.0000E+00  0.0000E+00  0.0000E+00  0.0000E+00  0.0000E+00  0.0000E+00  0.0000E+00  0.0000E+00  0.0000E+00
     -3.141  0.0000E+00  0.0000E+00  0.0000E+00  0.0000E+00  0.0000E+00  0.0000E+00  0.0000E+00  0.0000E+00  0.0000E+00  0.0000E+00  0.0000E+00  0.0000E+00
     -3.064  0.0000E+00  0.0000E+00  0.0000E+00  0.0000E+00  0.0000E+00  0.0000E+00  0.0000E+00  0.0000E+00  0.0000E+00  0.0000E+00  0.0000E+00  0.0000E+00
     -2.988  0.0000E+00  0.0000E+00  0.0000E+00  0.0000E+00  0.0000E+00  0.0000E+00  0.0000E+00  0.0000E+00  0.0000E+00  0.0000E+00  0.0000E+00  0.0000E+00
     -2.911  0.0000E+00  0.0000E+00  0.0000E+00  0.0000E+00  0.0000E+00  0.0000E+00  0.0000E+00  0.0000E+00  0.0000E+00  0.0000E+00  0.0000E+00  0.0000E+00
     -2.834  0.0000E+00  0.0000E+00  0.0000E+00  0.0000E+00  0.0000E+00  0.0000E+00  0.0000E+00  0.0000E+00  0.0000E+00  0.0000E+00  0.0000E+00  0.0000E+00
     -2.758  0.0000E+00  0.0000E+00  0.0000E+00  0.0000E+00  0.0000E+00  0.0000E+00  0.0000E+00  0.0000E+00  0.0000E+00  0.0000E+00  0.0000E+00  0.0000E+00
     -2.681  0.0000E+00  0.0000E+00  0.0000E+00  0.0000E+00  0.0000E+00  0.0000E+00  0.0000E+00  0.0000E+00  0.0000E+00  0.0000E+00  0.0000E+00  0.0000E+00
     -2.604  0.0000E+00  0.0000E+00  0.0000E+00  0.0000E+00  0.0000E+00  0.0000E+00  0.0000E+00  0.0000E+00  0.0000E+00  0.0000E+00  0.0000E+00  0.0000E+00
     -2.528  0.0000E+00  0.0000E+00  0.0000E+00  0.0000E+00  0.0000E+00  0.0000E+00  0.0000E+00  0.0000E+00  0.0000E+00  0.0000E+00  0.0000E+00  0.0000E+00
     -2.451  0.0000E+00  0.0000E+00  0.0000E+00  0.0000E+00  0.0000E+00  0.0000E+00  0.0000E+00  0.0000E+00  0.0000E+00  0.0000E+00  0.0000E+00  0.0000E+00
     -2.375  0.0000E+00  0.0000E+00  0.0000E+00  0.0000E+00  0.0000E+00  0.0000E+00  0.0000E+00  0.0000E+00  0.0000E+00  0.0000E+00  0.0000E+00  0.0000E+00
     -2.298  0.1265E-02  0.6583E-06  0.5945E-06  0.6018E-06  0.2003E-03  0.1042E-06  0.9411E-07  0.9525E-07  0.5914E-05  0.1832E-09 -0.8932E-09 -0.8900E-09
     -2.221  0.7830E-01 -0.6987E-06 -0.6378E-06 -0.6449E-06  0.1240E-01 -0.1041E-06 -0.9429E-07 -0.9581E-07  0.3661E-03 -0.1235E-08 -0.5330E-09 -0.5838E-09
     -2.145  0.2758E+00 -0.9234E-01  0.4650E-01  0.4584E-01  0.6945E-03  0.7186E-04 -0.2019E-04 -0.5166E-04  0.2264E-01 -0.4791E-02  0.2398E-02  0.2393E-02
     -2.068  0.7487E+00 -0.7123E-01  0.4817E-01  0.2307E-01  0.4566E-01 -0.2255E-02  0.1724E-02  0.5318E-03  0.3530E-01 -0.2518E-02  0.1361E-02  0.1158E-02
     -1.991  0.5923E+00 -0.5846E-01  0.2923E-01  0.2923E-01  0.3858E-01 -0.9280E-03  0.4635E-03  0.4635E-03  0.6022E-01 -0.7431E-02  0.3715E-02  0.3715E-02
     -1.915  0.4260E+00  0.1478E+00 -0.8334E-01 -0.6449E-01  0.1033E-01  0.2256E-02 -0.1580E-02 -0.6754E-03  0.1805E-01  0.6862E-02 -0.3720E-02 -0.3142E-02
     -1.838  0.7750E+00  0.1051E+00 -0.5253E-01 -0.5253E-01  0.4115E-01  0.6343E-02 -0.3171E-02 -0.3171E-02  0.9158E-01  0.1431E-01 -0.7153E-02 -0.7153E-02
     -1.762  0.1523E-02 -0.2692E-03  0.1348E-03  0.1348E-03  0.2081E-03 -0.3661E-04  0.1833E-04  0.1833E-04  0.2162E-03 -0.3686E-04  0.1846E-04  0.1846E-04
     -1.685  0.5408E+00 -0.9192E-01  0.8679E-01  0.5122E-02  0.4945E-01 -0.7843E-02  0.5986E-02  0.1857E-02  0.9057E-01 -0.1525E-01  0.1493E-01  0.3221E-03
     -1.608  0.1669E-16  0.2700E-17 -0.3682E-17  0.9820E-18  0.1022E-17  0.1487E-18 -0.2146E-18  0.6591E-19  0.3011E-17  0.4750E-18 -0.6475E-18  0.1725E-18
     -1.532  0.2988E+00  0.4832E-01 -0.6590E-01  0.1758E-01  0.1830E-01  0.2661E-02 -0.3841E-02  0.1180E-02  0.5390E-01  0.8503E-02 -0.1159E-01  0.3087E-02
     -1.455  0.7115E-03  0.2882E-06  0.2513E-06  0.2548E-06  0.1383E-03  0.5588E-07  0.4866E-07  0.4934E-07  0.2015E-03  0.7873E-07  0.6769E-07  0.6864E-07
     -1.378  0.1377E+00 -0.3642E-06 -0.3342E-06 -0.3377E-06  0.2676E-01 -0.5800E-07 -0.5139E-07 -0.5269E-07  0.3898E-01 -0.6818E-07 -0.5981E-07 -0.6067E-07
     -1.302  0.1456E+00 -0.7427E-07 -0.6155E-07 -0.6239E-07  0.4983E-02 -0.4136E-08 -0.4564E-08 -0.4620E-08  0.4553E-01  0.2484E-07  0.2035E-07  0.2084E-07
     -1.225  0.0000E+00  0.0000E+00  0.0000E+00  0.0000E+00  0.0000E+00  0.0000E+00  0.0000E+00  0.0000E+00  0.0000E+00  0.0000E+00  0.0000E+00  0.0000E+00
     -1.148  0.0000E+00  0.0000E+00  0.0000E+00  0.0000E+00  0.0000E+00  0.0000E+00  0.0000E+00  0.0000E+00  0.0000E+00  0.0000E+00  0.0000E+00  0.0000E+00
     -1.072  0.2301E-11 -0.2032E-12  0.2036E-12  0.1678E-15  0.2686E-12 -0.2316E-13  0.2321E-13  0.1925E-16  0.8110E-12 -0.6884E-13  0.6900E-13  0.5721E-16
     -0.995  0.2321E+00 -0.2052E-01  0.2052E-01  0.1645E-05  0.2710E-01 -0.2339E-02  0.2339E-02  0.2000E-06  0.8181E-01 -0.6951E-02  0.6952E-02  0.5939E-06
     -0.919  0.2296E+00  0.2029E-01 -0.2029E-01 -0.1857E-05  0.3072E-01  0.2679E-02 -0.2680E-02 -0.2096E-06  0.7938E-01  0.6816E-02 -0.6817E-02 -0.5659E-06