       N       E                     dE             d eps       ncg     rms          rms(c)
DAV:   1    -0.561204560080E+01   -0.56120E+01   -0.14147E-04 73256   0.102E-01
DAV:   2    -0.561204573155E+01   -0.13076E-06   -0.13078E-06 64548   0.127E-02
DAV:   3    -0.561204573263E+01   -0.10782E-08   -0.10383E-08 68008   0.911E-04
DAV:   4    -0.561204573278E+01   -0.15280E-09   -0.16210E-09 64980   0.347E-04
DAV:   5    -0.561204573278E+01    0.20464E-11   -0.36772E-10 68812   0.169E-04
   1 F= -.56120457E+01 E0= -.56120457E+01  d E =-.901449E-24  mag=     0.0000     0.0000     0.0000
