  12  12   1   0
  0.2070820E+02  0.6290120E-09  0.6273890E-09  0.6297040E-09  0.5000000E-15
  1.000000000000000E-004
  CAR 
 Name                                    
      9.05178735    -19.45014588  301      1.45720972      1.00000000
    -19.450  0.0000E+00  0.0000E+00
    -19.355  0.0000E+00  0.0000E+00
    -19.260  0.0000E+00  0.0000E+00
    -19.165  0.0000E+00  0.0000E+00
    -19.070  0.0000E+00  0.0000E+00
    -18.975  0.0000E+00  0.0000E+00
    -18.880  0.0000E+00  0.0000E+00
    -18.785  0.0000E+00  0.0000E+00
    -18.690  0.0000E+00  0.0000E+00
    -18.595  0.0000E+00  0.0000E+00
    -18.500  0.0000E+00  0.0000E+00
    -18.405  0.0000E+00  0.0000E+00
    -18.310  0.0000E+00  0.0000E+00
    -18.215  0.0000E+00  0.0000E+00
    -18.120  0.2105E+02  0.2000E+01
    -18.025  0.0000E+00  0.2000E+01
    -17.930  0.0000E+00  0.2000E+01
    -17.835  0.0000E+00  0.2000E+01
    -17.740  0.0000E+00  0.2000E+01
    -17.645  0.0000E+00  0.2000E+01
    -17.550  0.0000E+00  0.2000E+01
    -17.455  0.0000E+00  0.2000E+01
    -17.360  0.0000E+00  0.2000E+01
    -17.265  0.0000E+00  0.2000E+01
    -17.170  0.0000E+00  0.2000E+01
    -17.075  0.0000E+00  0.2000E+01
    -16.980  0.0000E+00  0.2000E+01
    -16.885  0.0000E+00  0.2000E+01
    -16.790  0.0000E+00  0.2000E+01
    -16.695  0.0000E+00  0.2000E+01
    -16.600  0.0000E+00  0.2000E+01
    -16.505  0.0000E+00  0.2000E+01
    -16.410  0.0000E+00  0.2000E+01
    -16.315  0.0000E+00  0.2000E+01
    -16.220  0.0000E+00  0.2000E+01
    -16.125  0.0000E+00  0.2000E+01
    -16.030  0.0000E+00  0.2000E+01
    -15.935  0.0000E+00  0.2000E+01
    -15.840  0.0000E+00  0.2000E+01
    -15.745  0.0000E+00  0.2000E+01
    -15.650  0.0000E+00  0.2000E+01
    -15.555  0.0000E+00  0.2000E+01
    -15.460  0.0000E+00  0.2000E+01
    -15.365  0.0000E+00  0.2000E+01
    -15.270  0.0000E+00  0.2000E+01
    -15.175  0.2409E+02  0.4288E+01
    -15.080  0.6450E+02  0.1200E+02
    -14.985  0.0000E+00  0.1200E+02
    -14.890  0.0000E+00  0.1200E+02
    -14.795  0.0000E+00  0.1200E+02
    -14.700  0.0000E+00  0.1200E+02
    -14.605  0.0000E+00  0.1200E+02
    -14.510  0.0000E+00  0.1200E+02
    -14.415  0.0000E+00  0.1200E+02
    -14.320  0.0000E+00  0.1200E+02
    -14.225  0.0000E+00  0.1200E+02
    -14.130  0.0000E+00  0.1200E+02
    -14.035  0.0000E+00  0.1200E+02
    -13.940  0.0000E+00  0.1200E+02
    -13.845  0.0000E+00  0.1200E+02
    -13.750  0.0000E+00  0.1200E+02
    -13.655  0.0000E+00  0.1200E+02
    -13.560  0.0000E+00  0.1200E+02
    -13.465  0.0000E+00  0.1200E+02
    -13.370  0.0000E+00  0.1200E+02
    -13.275  0.0000E+00  0.1200E+02
    -13.180  0.0000E+00  0.1200E+02
    -13.085  0.0000E+00  0.1200E+02
    -12.990  0.0000E+00  0.1200E+02
    -12.895  0.0000E+00  0.1200E+02
    -12.800  0.0000E+00  0.1200E+02
    -12.705  0.0000E+00  0.1200E+02
    -12.610  0.0000E+00  0.1200E+02
    -12.515  0.0000E+00  0.1200E+02
    -12.420  0.0000E+00  0.1200E+02
    -12.325  0.0000E+00  0.1200E+02
    -12.230  0.0000E+00  0.1200E+02
    -12.135  0.0000E+00  0.1200E+02
    -12.040  0.0000E+00  0.1200E+02
    -11.945  0.0000E+00  0.1200E+02
    -11.850  0.0000E+00  0.1200E+02
    -11.755  0.0000E+00  0.1200E+02
    -11.660  0.0000E+00  0.1200E+02
    -11.565  0.0000E+00  0.1200E+02
    -11.470  0.0000E+00  0.1200E+02
    -11.375  0.1879E-03  0.1200E+02
    -11.280  0.7936E+01  0.1275E+02
    -11.185  0.9238E+01  0.1400E+02
    -11.090  0.0000E+00  0.1400E+02
    -10.995  0.2736E-08  0.1400E+02
    -10.900  0.5686E+00  0.1405E+02
    -10.805  0.2143E+01  0.1431E+02
    -10.710  0.5233E+01  0.1486E+02
    -10.615  0.7325E+01  0.1568E+02
    -10.520  0.3514E+01  0.1611E+02
    -10.425  0.7968E+01  0.1693E+02
    -10.330  0.4538E+01  0.1756E+02
    -10.235  0.2998E+01  0.1801E+02
    -10.140  0.6185E+01  0.1862E+02
    -10.045  0.9041E+01  0.1961E+02
     -9.950  0.2338E+01  0.2000E+02
     -9.854  0.0000E+00  0.2000E+02
     -9.759  0.0000E+00  0.2000E+02
     -9.664  0.0000E+00  0.2000E+02
     -9.569  0.0000E+00  0.2000E+02
     -9.474  0.0000E+00  0.2000E+02
     -9.379  0.0000E+00  0.2000E+02
     -9.284  0.0000E+00  0.2000E+02
     -9.189  0.0000E+00  0.2000E+02
     -9.094  0.0000E+00  0.2000E+02
     -8.999  0.0000E+00  0.2000E+02
     -8.904  0.0000E+00  0.2000E+02
     -8.809  0.0000E+00  0.2000E+02
     -8.714  0.0000E+00  0.2000E+02
     -8.619  0.0000E+00  0.2000E+02
     -8.524  0.0000E+00  0.2000E+02
     -8.429  0.0000E+00  0.2000E+02
     -8.334  0.0000E+00  0.2000E+02
     -8.239  0.0000E+00  0.2000E+02
     -8.144  0.0000E+00  0.2000E+02
     -8.049  0.0000E+00  0.2000E+02
     -7.954  0.0000E+00  0.2000E+02
     -7.859  0.5725E-05  0.2000E+02
     -7.764  0.1383E+02  0.2131E+02
     -7.669  0.4072E+01  0.2215E+02
     -7.574  0.1440E+02  0.2400E+02
     -7.479  0.0000E+00  0.2400E+02
     -7.384  0.0000E+00  0.2400E+02
     -7.289  0.0000E+00  0.2400E+02
     -7.194  0.7517E-01  0.2401E+02
     -7.099  0.3700E-05  0.2401E+02
     -7.004  0.5848E+00  0.2406E+02
     -6.909  0.1169E+01  0.2418E+02
     -6.814  0.4117E+00  0.2422E+02
     -6.719  0.5848E+00  0.2431E+02
     -6.624  0.2383E+01  0.2453E+02
     -6.529  0.2019E+01  0.2473E+02
     -6.434  0.1169E+01  0.2489E+02
     -6.339  0.2339E+01  0.2511E+02
     -6.244  0.2431E+01  0.2534E+02
     -6.149  0.7893E+00  0.2545E+02
     -6.054  0.2132E+01  0.2568E+02
     -5.959  0.1400E+01  0.2582E+02
     -5.864  0.7286E+01  0.2652E+02
     -5.769  0.1050E+02  0.2784E+02
     -5.674  0.1948E+00  0.2794E+02
     -5.579  0.5848E+00  0.2799E+02
     -5.484  0.2590E-01  0.2799E+02
     -5.389  0.0000E+00  0.2800E+02
     -5.294  0.0000E+00  0.2800E+02
     -5.199  0.0000E+00  0.2800E+02
     -5.104  0.0000E+00  0.2800E+02
     -5.009  0.0000E+00  0.2800E+02
     -4.914  0.0000E+00  0.2800E+02
     -4.819  0.0000E+00  0.2800E+02
     -4.724  0.0000E+00  0.2800E+02
     -4.629  0.0000E+00  0.2800E+02
     -4.534  0.0000E+00  0.2800E+02
     -4.439  0.0000E+00  0.2800E+02
     -4.344  0.0000E+00  0.2800E+02
     -4.249  0.0000E+00  0.2800E+02
     -4.154  0.0000E+00  0.2800E+02
     -4.059  0.0000E+00  0.2800E+02
     -3.964  0.0000E+00  0.2800E+02
     -3.869  0.0000E+00  0.2800E+02
     -3.774  0.0000E+00  0.2800E+02
     -3.679  0.2665E-11  0.2800E+02
     -3.584  0.6852E+01  0.2865E+02
     -3.489  0.2638E+02  0.3200E+02
     -3.394  0.0000E+00  0.3200E+02
     -3.299  0.0000E+00  0.3200E+02
     -3.204  0.0000E+00  0.3200E+02
     -3.109  0.0000E+00  0.3200E+02
     -3.014  0.0000E+00  0.3200E+02
     -2.919  0.0000E+00  0.3200E+02
     -2.824  0.0000E+00  0.3200E+02
     -2.729  0.0000E+00  0.3200E+02
     -2.634  0.0000E+00  0.3200E+02
     -2.539  0.0000E+00  0.3200E+02
     -2.444  0.0000E+00  0.3200E+02
     -2.349  0.0000E+00  0.3200E+02
     -2.254  0.1062E-02  0.3200E+02
     -2.159  0.1793E+01  0.3217E+02
     -2.064  0.4238E+01  0.3261E+02
     -1.969  0.2046E+01  0.3287E+02
     -1.874  0.1877E+01  0.3311E+02
     -1.779  0.2862E+01  0.3340E+02
     -1.684  0.3572E+01  0.3386E+02
     -1.589  0.4993E+01  0.3438E+02
     -1.494  0.3141E+01  0.3478E+02
     -1.399  0.1662E+01  0.3497E+02
     -1.304  0.0000E+00  0.3500E+02
     -1.209  0.3408E-15  0.3500E+02
     -1.114  0.2632E+00  0.3503E+02
     -1.019  0.2643E+01  0.3528E+02
     -0.924  0.7404E+01  0.3607E+02
     -0.829  0.5240E+01  0.3674E+02
     -0.734  0.7920E+01  0.3755E+02
     -0.639  0.4180E+01  0.3802E+02
     -0.544  0.3219E+01  0.3837E+02
     -0.449  0.6254E+01  0.3907E+02
     -0.354  0.4488E+01  0.3953E+02
     -0.259  0.8184E+01  0.4044E+02
     -0.164  0.7319E+01  0.4128E+02
     -0.069  0.5594E+01  0.4188E+02
      0.026  0.1179E+02  0.4309E+02
      0.121  0.8192E+01  0.4394E+02
      0.216  0.8405E+01  0.4486E+02
      0.311  0.6422E+01  0.4560E+02
      0.406  0.9939E+01  0.4675E+02
      0.501  0.8909E+01  0.4795E+02
      0.596  0.5706E+01  0.4855E+02
      0.691  0.4166E+01  0.4920E+02
      0.786  0.4079E+01  0.4960E+02
      0.881  0.7683E+00  0.4972E+02
      0.976  0.7218E+00  0.4985E+02
      1.071  0.3338E+00  0.4991E+02
      1.166  0.4374E+00  0.4997E+02
      1.261  0.1949E+00  0.4999E+02
      1.356  0.4293E-01  0.4999E+02
      1.451  0.0000E+00  0.5000E+02
      1.546  0.0000E+00  0.5000E+02
      1.641  0.0000E+00  0.5000E+02
      1.736  0.0000E+00  0.5000E+02
      1.831  0.0000E+00  0.5000E+02
      1.926  0.0000E+00  0.5000E+02
      2.021  0.0000E+00  0.5000E+02
      2.116  0.0000E+00  0.5000E+02
      2.211  0.0000E+00  0.5000E+02
      2.306  0.0000E+00  0.5000E+02
      2.401  0.0000E+00  0.5000E+02
      2.496  0.0000E+00  0.5000E+02
      2.591  0.0000E+00  0.5000E+02
      2.686  0.0000E+00  0.5000E+02
      2.781  0.7450E-03  0.5000E+02
      2.876  0.1942E+00  0.5002E+02
      2.971  0.9387E+00  0.5011E+02
      3.066  0.1458E+01  0.5025E+02
      3.161  0.5043E+00  0.5030E+02
      3.256  0.2550E+01  0.5057E+02
      3.351  0.1171E+01  0.5072E+02
      3.446  0.7552E+00  0.5082E+02
      3.541  0.9947E+00  0.5096E+02
      3.636  0.8692E+00  0.5105E+02
      3.731  0.1884E-11  0.5106E+02
      3.826  0.1499E+01  0.5120E+02
      3.921  0.5680E+00  0.5128E+02
      4.016  0.2572E+01  0.5152E+02
      4.111  0.3076E+01  0.5185E+02
      4.206  0.1800E+01  0.5204E+02
      4.301  0.3809E+01  0.5247E+02
      4.396  0.2376E+01  0.5278E+02
      4.491  0.1422E+01  0.5295E+02
      4.586  0.5440E-02  0.5298E+02
      4.681  0.1082E-16  0.5300E+02
      4.776  0.9746E-01  0.5301E+02
      4.872  0.1285E+00  0.5302E+02
      4.967  0.3826E+00  0.5306E+02
      5.062  0.8057E+00  0.5314E+02
      5.157  0.1364E+01  0.5328E+02
      5.252  0.2778E+01  0.5354E+02
      5.347  0.2247E+01  0.5377E+02
      5.442  0.3558E+01  0.5419E+02
      5.537  0.3873E+01  0.5462E+02
      5.632  0.3478E+01  0.5502E+02
      5.727  0.2816E+01  0.5543E+02
      5.822  0.3323E+01  0.5577E+02
      5.917  0.3693E+01  0.5626E+02
      6.012  0.4443E+01  0.5676E+02
      6.107  0.5607E+01  0.5735E+02
      6.202  0.5137E+01  0.5788E+02
      6.297  0.2908E+01  0.5835E+02
      6.392  0.5565E+01  0.5897E+02
      6.487  0.5624E+01  0.5966E+02
      6.582  0.3882E+01  0.6007E+02
      6.677  0.3312E+01  0.6042E+02
      6.772  0.3715E+01  0.6086E+02
      6.867  0.4973E+01  0.6142E+02
      6.962  0.6337E+01  0.6209E+02
      7.057  0.3887E+01  0.6263E+02
      7.152  0.3191E+01  0.6303E+02
      7.247  0.2720E+01  0.6332E+02
      7.342  0.1274E+01  0.6345E+02
      7.437  0.2100E+01  0.6373E+02
      7.532  0.1006E+01  0.6386E+02
      7.627  0.2924E+00  0.6393E+02
      7.722  0.5848E+00  0.6398E+02
      7.817  0.1949E+00  0.6400E+02
      7.912  0.0000E+00  0.6400E+02
      8.007  0.0000E+00  0.6400E+02
      8.102  0.0000E+00  0.6400E+02
      8.197  0.0000E+00  0.6400E+02
      8.292  0.0000E+00  0.6400E+02
      8.387  0.0000E+00  0.6400E+02
      8.482  0.0000E+00  0.6400E+02
      8.577  0.0000E+00  0.6400E+02
      8.672  0.0000E+00  0.6400E+02
      8.767  0.0000E+00  0.6400E+02
      8.862  0.0000E+00  0.6400E+02
      8.957  0.0000E+00  0.6400E+02
      9.052  0.0000E+00  0.6400E+02
      9.05178735    -19.45014588  301      1.45720972      1.00000000
    -19.450  0.0000E+00  0.0000E+00  0.0000E+00
    -19.355  0.0000E+00  0.0000E+00  0.0000E+00
    -19.260  0.0000E+00  0.0000E+00  0.0000E+00
    -19.165  0.0000E+00  0.0000E+00  0.0000E+00
    -19.070  0.0000E+00  0.0000E+00  0.0000E+00
    -18.975  0.0000E+00  0.0000E+00  0.0000E+00
    -18.880  0.0000E+00  0.0000E+00  0.0000E+00
    -18.785  0.0000E+00  0.0000E+00  0.0000E+00
    -18.690  0.0000E+00  0.0000E+00  0.0000E+00
    -18.595  0.0000E+00  0.0000E+00  0.0000E+00
    -18.500  0.0000E+00  0.0000E+00  0.0000E+00
    -18.405  0.0000E+00  0.0000E+00  0.0000E+00
    -18.310  0.0000E+00  0.0000E+00  0.0000E+00
    -18.215  0.0000E+00  0.0000E+00  0.0000E+00
    -18.120  0.1265E+01  0.4075E+00  0.0000E+00
    -18.025  0.0000E+00  0.0000E+00  0.0000E+00
    -17.930  0.0000E+00  0.0000E+00  0.0000E+00
    -17.835  0.0000E+00  0.0000E+00  0.0000E+00
    -17.740  0.0000E+00  0.0000E+00  0.0000E+00
    -17.645  0.0000E+00  0.0000E+00  0.0000E+00
    -17.550  0.0000E+00  0.0000E+00  0.0000E+00
    -17.455  0.0000E+00  0.0000E+00  0.0000E+00
    -17.360  0.0000E+00  0.0000E+00  0.0000E+00
    -17.265  0.0000E+00  0.0000E+00  0.0000E+00
    -17.170  0.0000E+00  0.0000E+00  0.0000E+00
    -17.075  0.0000E+00  0.0000E+00  0.0000E+00
    -16.980  0.0000E+00  0.0000E+00  0.0000E+00
    -16.885  0.0000E+00  0.0000E+00  0.0000E+00
    -16.790  0.0000E+00  0.0000E+00  0.0000E+00
    -16.695  0.0000E+00  0.0000E+00  0.0000E+00
    -16.600  0.0000E+00  0.0000E+00  0.0000E+00
    -16.505  0.0000E+00  0.0000E+00  0.0000E+00
    -16.410  0.0000E+00  0.0000E+00  0.0000E+00
    -16.315  0.0000E+00  0.0000E+00  0.0000E+00
    -16.220  0.0000E+00  0.0000E+00  0.0000E+00
    -16.125  0.0000E+00  0.0000E+00  0.0000E+00
    -16.030  0.0000E+00  0.0000E+00  0.0000E+00
    -15.935  0.0000E+00  0.0000E+00  0.0000E+00
    -15.840  0.0000E+00  0.0000E+00  0.0000E+00
    -15.745  0.0000E+00  0.0000E+00  0.0000E+00
    -15.650  0.0000E+00  0.0000E+00  0.0000E+00
    -15.555  0.0000E+00  0.0000E+00  0.0000E+00
    -15.460  0.0000E+00  0.0000E+00  0.0000E+00
    -15.365  0.0000E+00  0.0000E+00  0.0000E+00
    -15.270  0.0000E+00  0.0000E+00  0.0000E+00
    -15.175  0.7364E-05  0.1443E-05  0.0000E+00
    -15.080  0.2576E-04  0.5633E-05  0.0000E+00
    -14.985  0.0000E+00  0.0000E+00  0.0000E+00
    -14.890  0.0000E+00  0.0000E+00  0.0000E+00
    -14.795  0.0000E+00  0.0000E+00  0.0000E+00
    -14.700  0.0000E+00  0.0000E+00  0.0000E+00
    -14.605  0.0000E+00  0.0000E+00  0.0000E+00
    -14.510  0.0000E+00  0.0000E+00  0.0000E+00
    -14.415  0.0000E+00  0.0000E+00  0.0000E+00
    -14.320  0.0000E+00  0.0000E+00  0.0000E+00
    -14.225  0.0000E+00  0.0000E+00  0.0000E+00
    -14.130  0.0000E+00  0.0000E+00  0.0000E+00
    -14.035  0.0000E+00  0.0000E+00  0.0000E+00
    -13.940  0.0000E+00  0.0000E+00  0.0000E+00
    -13.845  0.0000E+00  0.0000E+00  0.0000E+00
    -13.750  0.0000E+00  0.0000E+00  0.0000E+00
    -13.655  0.0000E+00  0.0000E+00  0.0000E+00
    -13.560  0.0000E+00  0.0000E+00  0.0000E+00
    -13.465  0.0000E+00  0.0000E+00  0.0000E+00
    -13.370  0.0000E+00  0.0000E+00  0.0000E+00
    -13.275  0.0000E+00  0.0000E+00  0.0000E+00
    -13.180  0.0000E+00  0.0000E+00  0.0000E+00
    -13.085  0.0000E+00  0.0000E+00  0.0000E+00
    -12.990  0.0000E+00  0.0000E+00  0.0000E+00
    -12.895  0.0000E+00  0.0000E+00  0.0000E+00
    -12.800  0.0000E+00  0.0000E+00  0.0000E+00
    -12.705  0.0000E+00  0.0000E+00  0.0000E+00
    -12.610  0.0000E+00  0.0000E+00  0.0000E+00
    -12.515  0.0000E+00  0.0000E+00  0.0000E+00
    -12.420  0.0000E+00  0.0000E+00  0.0000E+00
    -12.325  0.0000E+00  0.0000E+00  0.0000E+00
    -12.230  0.0000E+00  0.0000E+00  0.0000E+00
    -12.135  0.0000E+00  0.0000E+00  0.0000E+00
    -12.040  0.0000E+00  0.0000E+00  0.0000E+00
    -11.945  0.0000E+00  0.0000E+00  0.0000E+00
    -11.850  0.0000E+00  0.0000E+00  0.0000E+00
    -11.755  0.0000E+00  0.0000E+00  0.0000E+00
    -11.660  0.0000E+00  0.0000E+00  0.0000E+00
    -11.565  0.0000E+00  0.0000E+00  0.0000E+00
    -11.470  0.0000E+00  0.0000E+00  0.0000E+00
    -11.375  0.5197E-04  0.4976E-09  0.0000E+00
    -11.280  0.2413E+01  0.8325E-04  0.0000E+00
    -11.185  0.3023E+01  0.8139E-04  0.0000E+00
    -11.090  0.0000E+00  0.0000E+00  0.0000E+00
    -10.995  0.5123E-10  0.1595E-11  0.0000E+00
    -10.900  0.9937E-02  0.3141E-03  0.0000E+00
    -10.805  0.4420E-01  0.9777E-03  0.0000E+00
    -10.710  0.1030E+00  0.1791E-02  0.0000E+00
    -10.615  0.9214E-01  0.1613E-02  0.0000E+00
    -10.520  0.6875E-02  0.9200E-03  0.0000E+00
    -10.425  0.4065E-01  0.1937E-02  0.0000E+00
    -10.330  0.1484E-01  0.7456E-03  0.0000E+00
    -10.235  0.8965E-03  0.2443E-03  0.0000E+00
    -10.140  0.2494E-02  0.4546E-03  0.0000E+00
    -10.045  0.1168E-01  0.4176E-03  0.0000E+00
     -9.950  0.5409E-02  0.1787E-03  0.0000E+00
     -9.854  0.0000E+00  0.0000E+00  0.0000E+00
     -9.759  0.0000E+00  0.0000E+00  0.0000E+00
     -9.664  0.0000E+00  0.0000E+00  0.0000E+00
     -9.569  0.0000E+00  0.0000E+00  0.0000E+00
     -9.474  0.0000E+00  0.0000E+00  0.0000E+00
     -9.379  0.0000E+00  0.0000E+00  0.0000E+00
     -9.284  0.0000E+00  0.0000E+00  0.0000E+00
     -9.189  0.0000E+00  0.0000E+00  0.0000E+00
     -9.094  0.0000E+00  0.0000E+00  0.0000E+00
     -8.999  0.0000E+00  0.0000E+00  0.0000E+00
     -8.904  0.0000E+00  0.0000E+00  0.0000E+00
     -8.809  0.0000E+00  0.0000E+00  0.0000E+00
     -8.714  0.0000E+00  0.0000E+00  0.0000E+00
     -8.619  0.0000E+00  0.0000E+00  0.0000E+00
     -8.524  0.0000E+00  0.0000E+00  0.0000E+00
     -8.429  0.0000E+00  0.0000E+00  0.0000E+00
     -8.334  0.0000E+00  0.0000E+00  0.0000E+00
     -8.239  0.0000E+00  0.0000E+00  0.0000E+00
     -8.144  0.0000E+00  0.0000E+00  0.0000E+00
     -8.049  0.0000E+00  0.0000E+00  0.0000E+00
     -7.954  0.0000E+00  0.0000E+00  0.0000E+00
     -7.859  0.1728E-14  0.2421E-06  0.0000E+00
     -7.764  0.9748E-04  0.5885E+00  0.0000E+00
     -7.669  0.1507E-04  0.1797E+00  0.0000E+00
     -7.574  0.1812E-03  0.6623E+00  0.0000E+00
     -7.479  0.0000E+00  0.0000E+00  0.0000E+00
     -7.384  0.0000E+00  0.0000E+00  0.0000E+00
     -7.289  0.0000E+00  0.0000E+00  0.0000E+00
     -7.194  0.2860E-10  0.6100E-05  0.0000E+00
     -7.099  0.2677E-13  0.7338E-09  0.0000E+00
     -7.004  0.1719E-07  0.9351E-04  0.0000E+00
     -6.909  0.1087E-04  0.2179E-03  0.0000E+00
     -6.814  0.1087E-04  0.1092E-03  0.0000E+00
     -6.719  0.2214E-08  0.1094E-03  0.0000E+00
     -6.624  0.6544E-04  0.6089E-03  0.0000E+00
     -6.529  0.1547E-03  0.1386E-02  0.0000E+00
     -6.434  0.4969E-04  0.4149E-03  0.0000E+00
     -6.339  0.2909E-03  0.2495E-02  0.0000E+00
     -6.244  0.8444E-03  0.9032E-02  0.0000E+00
     -6.149  0.1382E-04  0.3163E-03  0.0000E+00
     -6.054  0.1801E-02  0.2156E-01  0.0000E+00
     -5.959  0.4148E-02  0.5220E-01  0.0000E+00
     -5.864  0.1115E+00  0.1433E+01  0.0000E+00
     -5.769  0.1701E+00  0.2208E+01  0.0000E+00
     -5.674  0.1592E-02  0.2076E-01  0.0000E+00
     -5.579  0.1511E-02  0.2031E-01  0.0000E+00
     -5.484  0.2713E-04  0.3792E-03  0.0000E+00
     -5.389  0.0000E+00  0.0000E+00  0.0000E+00
     -5.294  0.0000E+00  0.0000E+00  0.0000E+00
     -5.199  0.0000E+00  0.0000E+00  0.0000E+00
     -5.104  0.0000E+00  0.0000E+00  0.0000E+00
     -5.009  0.0000E+00  0.0000E+00  0.0000E+00
     -4.914  0.0000E+00  0.0000E+00  0.0000E+00
     -4.819  0.0000E+00  0.0000E+00  0.0000E+00
     -4.724  0.0000E+00  0.0000E+00  0.0000E+00
     -4.629  0.0000E+00  0.0000E+00  0.0000E+00
     -4.534  0.0000E+00  0.0000E+00  0.0000E+00
     -4.439  0.0000E+00  0.0000E+00  0.0000E+00
     -4.344  0.0000E+00  0.0000E+00  0.0000E+00
     -4.249  0.0000E+00  0.0000E+00  0.0000E+00
     -4.154  0.0000E+00  0.0000E+00  0.0000E+00
     -4.059  0.0000E+00  0.0000E+00  0.0000E+00
     -3.964  0.0000E+00  0.0000E+00  0.0000E+00
     -3.869  0.0000E+00  0.0000E+00  0.0000E+00
     -3.774  0.0000E+00  0.0000E+00  0.0000E+00
     -3.679  0.1146E-22  0.6992E-12  0.0000E+00
     -3.584  0.2487E-04  0.1824E+01  0.0000E+00
     -3.489  0.1412E-03  0.7111E+01  0.0000E+00
     -3.394  0.0000E+00  0.0000E+00  0.0000E+00
     -3.299  0.0000E+00  0.0000E+00  0.0000E+00
     -3.204  0.0000E+00  0.0000E+00  0.0000E+00
     -3.109  0.0000E+00  0.0000E+00  0.0000E+00
     -3.014  0.0000E+00  0.0000E+00  0.0000E+00
     -2.919  0.0000E+00  0.0000E+00  0.0000E+00
     -2.824  0.0000E+00  0.0000E+00  0.0000E+00
     -2.729  0.0000E+00  0.0000E+00  0.0000E+00
     -2.634  0.0000E+00  0.0000E+00  0.0000E+00
     -2.539  0.0000E+00  0.0000E+00  0.0000E+00
     -2.444  0.0000E+00  0.0000E+00  0.0000E+00
     -2.349  0.0000E+00  0.0000E+00  0.0000E+00
     -2.254  0.1794E-08  0.2002E-05  0.0000E+00
     -2.159  0.2742E-04  0.5233E-02  0.0000E+00
     -2.064  0.4896E-03  0.1385E-01  0.0000E+00
     -1.969  0.2216E-03  0.6811E-02  0.0000E+00
     -1.874  0.1833E-03  0.5061E-02  0.0000E+00
     -1.779  0.4543E-03  0.6772E-02  0.0000E+00
     -1.684  0.1941E-03  0.9478E-02  0.0000E+00
     -1.589  0.4776E-03  0.1015E-01  0.0000E+00
     -1.494  0.3480E-03  0.7197E-02  0.0000E+00
     -1.399  0.1658E-03  0.4016E-02  0.0000E+00
     -1.304  0.0000E+00  0.0000E+00  0.0000E+00
     -1.209  0.9136E-18  0.6287E-18  0.0000E+00
     -1.114  0.6351E-03  0.8994E-03  0.0000E+00
     -1.019  0.4540E-02  0.8730E-02  0.0000E+00
     -0.924  0.7370E-02  0.3678E-01  0.0000E+00
     -0.829  0.6133E-02  0.2062E-01  0.0000E+00
     -0.734  0.6936E-02  0.4449E-01  0.0000E+00
     -0.639  0.4575E-02  0.2209E-01  0.0000E+00
     -0.544  0.1984E-02  0.1617E-01  0.0000E+00
     -0.449  0.3166E-02  0.2577E-01  0.0000E+00
     -0.354  0.1244E-02  0.1603E-01  0.0000E+00
     -0.259  0.1994E-02  0.2787E-01  0.0000E+00
     -0.164  0.1553E-02  0.2194E-01  0.0000E+00
     -0.069  0.5463E-03  0.1493E-01  0.0000E+00
      0.026  0.4338E-02  0.2694E-01  0.0000E+00
      0.121  0.1851E-02  0.1918E-01  0.0000E+00
      0.216  0.2156E-02  0.2531E-01  0.0000E+00
      0.311  0.1967E-02  0.1390E-01  0.0000E+00
      0.406  0.3856E-02  0.2975E-01  0.0000E+00
      0.501  0.3625E-02  0.2405E-01  0.0000E+00
      0.596  0.1457E-02  0.8561E-02  0.0000E+00
      0.691  0.5843E-03  0.6676E-02  0.0000E+00
      0.786  0.7263E-03  0.3924E-02  0.0000E+00
      0.881  0.7105E-04  0.5872E-03  0.0000E+00
      0.976  0.5823E-04  0.4705E-03  0.0000E+00
      1.071  0.1350E-04  0.3049E-03  0.0000E+00
      1.166  0.2805E-06  0.4070E-03  0.0000E+00
      1.261  0.2684E-10  0.5544E-04  0.0000E+00
      1.356  0.7769E-13  0.2257E-05  0.0000E+00
      1.451  0.0000E+00  0.0000E+00  0.0000E+00
      1.546  0.0000E+00  0.0000E+00  0.0000E+00
      1.641  0.0000E+00  0.0000E+00  0.0000E+00
      1.736  0.0000E+00  0.0000E+00  0.0000E+00
      1.831  0.0000E+00  0.0000E+00  0.0000E+00
      1.926  0.0000E+00  0.0000E+00  0.0000E+00
      2.021  0.0000E+00  0.0000E+00  0.0000E+00
      2.116  0.0000E+00  0.0000E+00  0.0000E+00
      2.211  0.0000E+00  0.0000E+00  0.0000E+00
      2.306  0.0000E+00  0.0000E+00  0.0000E+00
      2.401  0.0000E+00  0.0000E+00  0.0000E+00
      2.496  0.0000E+00  0.0000E+00  0.0000E+00
      2.591  0.0000E+00  0.0000E+00  0.0000E+00
      2.686  0.0000E+00  0.0000E+00  0.0000E+00
      2.781  0.7603E-07  0.1438E-06  0.0000E+00
      2.876  0.1031E-04  0.2615E-04  0.0000E+00
      2.971  0.4158E-04  0.1646E-03  0.0000E+00
      3.066  0.7562E-04  0.3277E-03  0.0000E+00
      3.161  0.2968E-04  0.1388E-03  0.0000E+00
      3.256  0.2179E-03  0.6284E-03  0.0000E+00
      3.351  0.1265E-03  0.4098E-03  0.0000E+00
      3.446  0.2161E-03  0.3287E-03  0.0000E+00
      3.541  0.4214E-03  0.6159E-03  0.0000E+00
      3.636  0.1825E-03  0.4539E-03  0.0000E+00
      3.731  0.5478E-16  0.2517E-15  0.0000E+00
      3.826  0.4528E-04  0.3454E-03  0.0000E+00
      3.921  0.4311E-04  0.2126E-03  0.0000E+00
      4.016  0.4129E-04  0.6607E-03  0.0000E+00
      4.111  0.1262E-03  0.7991E-03  0.0000E+00
      4.206  0.8758E-04  0.5412E-03  0.0000E+00
      4.301  0.2822E-03  0.1142E-02  0.0000E+00
      4.396  0.1372E-03  0.8908E-03  0.0000E+00
      4.491  0.1534E-03  0.7910E-03  0.0000E+00
      4.586  0.8308E-06  0.1897E-05  0.0000E+00
      4.681  0.3222E-18  0.1607E-18  0.0000E+00
      4.776  0.2902E-02  0.1448E-02  0.0000E+00
      4.872  0.3088E-02  0.2004E-02  0.0000E+00
      4.967  0.1023E-01  0.6592E-02  0.0000E+00
      5.062  0.1542E-01  0.1276E-01  0.0000E+00
      5.157  0.2147E-01  0.2083E-01  0.0000E+00
      5.252  0.1646E-01  0.2226E-01  0.0000E+00
      5.347  0.1726E-02  0.4511E-02  0.0000E+00
      5.442  0.9490E-02  0.1081E-01  0.0000E+00
      5.537  0.1947E-01  0.2265E-01  0.0000E+00
      5.632  0.2321E-01  0.1845E-01  0.0000E+00
      5.727  0.3247E-01  0.2861E-01  0.0000E+00
      5.822  0.3032E-01  0.3828E-01  0.0000E+00
      5.917  0.2154E-01  0.2700E-01  0.0000E+00
      6.012  0.2678E-01  0.6611E-01  0.0000E+00
      6.107  0.4061E-01  0.3792E-01  0.0000E+00
      6.202  0.1236E+00  0.4453E-01  0.0000E+00
      6.297  0.6473E-01  0.2560E-01  0.0000E+00
      6.392  0.1080E+00  0.4785E-01  0.0000E+00
      6.487  0.1106E+00  0.5811E-01  0.0000E+00
      6.582  0.4248E-01  0.4586E-01  0.0000E+00
      6.677  0.4644E-01  0.3914E-01  0.0000E+00
      6.772  0.2514E-01  0.5051E-01  0.0000E+00
      6.867  0.2809E-01  0.7840E-01  0.0000E+00
      6.962  0.2916E-01  0.1062E+00  0.0000E+00
      7.057  0.1657E-01  0.7272E-01  0.0000E+00
      7.152  0.3318E-01  0.5211E-01  0.0000E+00
      7.247  0.9240E-02  0.6200E-01  0.0000E+00
      7.342  0.4010E-02  0.1978E-01  0.0000E+00
      7.437  0.9863E-02  0.5014E-01  0.0000E+00
      7.532  0.5853E-02  0.2227E-01  0.0000E+00
      7.627  0.6121E-04  0.1339E-02  0.0000E+00
      7.722  0.1817E-03  0.5194E-02  0.0000E+00
      7.817  0.1383E-04  0.2276E-02  0.0000E+00
      7.912  0.0000E+00  0.0000E+00  0.0000E+00
      8.007  0.0000E+00  0.0000E+00  0.0000E+00
      8.102  0.0000E+00  0.0000E+00  0.0000E+00
      8.197  0.0000E+00  0.0000E+00  0.0000E+00
      8.292  0.0000E+00  0.0000E+00  0.0000E+00
      8.387  0.0000E+00  0.0000E+00  0.0000E+00
      8.482  0.0000E+00  0.0000E+00  0.0000E+00
      8.577  0.0000E+00  0.0000E+00  0.0000E+00
      8.672  0.0000E+00  0.0000E+00  0.0000E+00
      8.767  0.0000E+00  0.0000E+00  0.0000E+00
      8.862  0.0000E+00  0.0000E+00  0.0000E+00
      8.957  0.0000E+00  0.0000E+00  0.0000E+00
      9.052  0.0000E+00  0.0000E+00  0.0000E+00
      9.05178735    -19.45014588  301      1.45720972      1.00000000
    -19.450  0.0000E+00  0.0000E+00  0.0000E+00
    -19.355  0.0000E+00  0.0000E+00  0.0000E+00
    -19.260  0.0000E+00  0.0000E+00  0.0000E+00
    -19.165  0.0000E+00  0.0000E+00  0.0000E+00
    -19.070  0.0000E+00  0.0000E+00  0.0000E+00
    -18.975  0.0000E+00  0.0000E+00  0.0000E+00
    -18.880  0.0000E+00  0.0000E+00  0.0000E+00
    -18.785  0.0000E+00  0.0000E+00  0.0000E+00
    -18.690  0.0000E+00  0.0000E+00  0.0000E+00
    -18.595  0.0000E+00  0.0000E+00  0.0000E+00
    -18.500  0.0000E+00  0.0000E+00  0.0000E+00
    -18.405  0.0000E+00  0.0000E+00  0.0000E+00
    -18.310  0.0000E+00  0.0000E+00  0.0000E+00
    -18.215  0.0000E+00  0.0000E+00  0.0000E+00
    -18.120  0.1163E+02  0.4625E-02  0.0000E+00
    -18.025  0.0000E+00  0.0000E+00  0.0000E+00
    -17.930  0.0000E+00  0.0000E+00  0.0000E+00
    -17.835  0.0000E+00  0.0000E+00  0.0000E+00
    -17.740  0.0000E+00  0.0000E+00  0.0000E+00
    -17.645  0.0000E+00  0.0000E+00  0.0000E+00
    -17.550  0.0000E+00  0.0000E+00  0.0000E+00
    -17.455  0.0000E+00  0.0000E+00  0.0000E+00
    -17.360  0.0000E+00  0.0000E+00  0.0000E+00
    -17.265  0.0000E+00  0.0000E+00  0.0000E+00
    -17.170  0.0000E+00  0.0000E+00  0.0000E+00
    -17.075  0.0000E+00  0.0000E+00  0.0000E+00
    -16.980  0.0000E+00  0.0000E+00  0.0000E+00
    -16.885  0.0000E+00  0.0000E+00  0.0000E+00
    -16.790  0.0000E+00  0.0000E+00  0.0000E+00
    -16.695  0.0000E+00  0.0000E+00  0.0000E+00
    -16.600  0.0000E+00  0.0000E+00  0.0000E+00
    -16.505  0.0000E+00  0.0000E+00  0.0000E+00
    -16.410  0.0000E+00  0.0000E+00  0.0000E+00
    -16.315  0.0000E+00  0.0000E+00  0.0000E+00
    -16.220  0.0000E+00  0.0000E+00  0.0000E+00
    -16.125  0.0000E+00  0.0000E+00  0.0000E+00
    -16.030  0.0000E+00  0.0000E+00  0.0000E+00
    -15.935  0.0000E+00  0.0000E+00  0.0000E+00
    -15.840  0.0000E+00  0.0000E+00  0.0000E+00
    -15.745  0.0000E+00  0.0000E+00  0.0000E+00
    -15.650  0.0000E+00  0.0000E+00  0.0000E+00
    -15.555  0.0000E+00  0.0000E+00  0.0000E+00
    -15.460  0.0000E+00  0.0000E+00  0.0000E+00
    -15.365  0.0000E+00  0.0000E+00  0.0000E+00
    -15.270  0.0000E+00  0.0000E+00  0.0000E+00
    -15.175  0.1217E-04  0.1506E-04  0.0000E+00
    -15.080  0.5908E-04  0.1563E-04  0.0000E+00
    -14.985  0.0000E+00  0.0000E+00  0.0000E+00
    -14.890  0.0000E+00  0.0000E+00  0.0000E+00
    -14.795  0.0000E+00  0.0000E+00  0.0000E+00
    -14.700  0.0000E+00  0.0000E+00  0.0000E+00
    -14.605  0.0000E+00  0.0000E+00  0.0000E+00
    -14.510  0.0000E+00  0.0000E+00  0.0000E+00
    -14.415  0.0000E+00  0.0000E+00  0.0000E+00
    -14.320  0.0000E+00  0.0000E+00  0.0000E+00
    -14.225  0.0000E+00  0.0000E+00  0.0000E+00
    -14.130  0.0000E+00  0.0000E+00  0.0000E+00
    -14.035  0.0000E+00  0.0000E+00  0.0000E+00
    -13.940  0.0000E+00  0.0000E+00  0.0000E+00
    -13.845  0.0000E+00  0.0000E+00  0.0000E+00
    -13.750  0.0000E+00  0.0000E+00  0.0000E+00
    -13.655  0.0000E+00  0.0000E+00  0.0000E+00
    -13.560  0.0000E+00  0.0000E+00  0.0000E+00
    -13.465  0.0000E+00  0.0000E+00  0.0000E+00
    -13.370  0.0000E+00  0.0000E+00  0.0000E+00
    -13.275  0.0000E+00  0.0000E+00  0.0000E+00
    -13.180  0.0000E+00  0.0000E+00  0.0000E+00
    -13.085  0.0000E+00  0.0000E+00  0.0000E+00
    -12.990  0.0000E+00  0.0000E+00  0.0000E+00
    -12.895  0.0000E+00  0.0000E+00  0.0000E+00
    -12.800  0.0000E+00  0.0000E+00  0.0000E+00
    -12.705  0.0000E+00  0.0000E+00  0.0000E+00
    -12.610  0.0000E+00  0.0000E+00  0.0000E+00
    -12.515  0.0000E+00  0.0000E+00  0.0000E+00
    -12.420  0.0000E+00  0.0000E+00  0.0000E+00
    -12.325  0.0000E+00  0.0000E+00  0.0000E+00
    -12.230  0.0000E+00  0.0000E+00  0.0000E+00
    -12.135  0.0000E+00  0.0000E+00  0.0000E+00
    -12.040  0.0000E+00  0.0000E+00  0.0000E+00
    -11.945  0.0000E+00  0.0000E+00  0.0000E+00
    -11.850  0.0000E+00  0.0000E+00  0.0000E+00
    -11.755  0.0000E+00  0.0000E+00  0.0000E+00
    -11.660  0.0000E+00  0.0000E+00  0.0000E+00
    -11.565  0.0000E+00  0.0000E+00  0.0000E+00
    -11.470  0.0000E+00  0.0000E+00  0.0000E+00
    -11.375  0.4252E-05  0.2105E-04  0.0000E+00
    -11.280  0.2155E+00  0.9777E+00  0.0000E+00
    -11.185  0.2885E+00  0.1225E+01  0.0000E+00
    -11.090  0.0000E+00  0.0000E+00  0.0000E+00
    -10.995  0.2024E-10  0.1363E-10  0.0000E+00