       N       E                     dE             d eps       ncg     rms          rms(c)
DAV:   1     0.350582965813E+03    0.35058E+03   -0.19906E+04 48896   0.130E+03
DAV:   2    -0.149018614937E+02   -0.36548E+03   -0.35225E+03 61184   0.293E+02
DAV:   3    -0.531461802090E+02   -0.38244E+02   -0.37991E+02 59352   0.105E+02
DAV:   4    -0.548044130527E+02   -0.16582E+01   -0.16563E+01 73216   0.284E+01
DAV:   5    -0.548329858619E+02   -0.28573E-01   -0.28569E-01 62816   0.276E+00
DAV:   6    -0.548338011974E+02   -0.81534E-03   -0.81531E-03 74120   0.590E-01
DAV:   7    -0.548338150673E+02   -0.13870E-04   -0.13870E-04 62776   0.625E-02
DAV:   8    -0.548338153749E+02   -0.30761E-06   -0.30764E-06 51192   0.111E-02
   1 F= -.54833815E+02 E0= -.54833815E+02  d E =-.548338E+02
