 vasp.5.3.5 31Mar14 (build Apr 15 2015 10:45:18) complex                        
  
 executed on             LinuxIFC date 2016.02.16  12:04:56
 running on   64 total cores
 distrk:  each k-point on    4 cores,   16 groups
 distr:  one band on NCORES_PER_BAND=   1 cores,    4 groups


--------------------------------------------------------------------------------------------------------


 INCAR:
 POTCAR:   PAW C 31May2000                        
 POTCAR:   PAW N 31May2000                        
 POTCAR:   PAW H 06May1998                        
 POTCAR:   PAW Pb_d 30Apr1998                     
 POTCAR:   PAW I 03Oct2001                        

 ----------------------------------------------------------------------------- 
|                                                                             |
|           W    W    AA    RRRRR   N    N  II  N    N   GGGG   !!!           |
|           W    W   A  A   R    R  NN   N  II  NN   N  G    G  !!!           |
|           W    W  A    A  R    R  N N  N  II  N N  N  G       !!!           |
|           W WW W  AAAAAA  RRRRR   N  N N  II  N  N N  G  GGG   !            |
|           WW  WW  A    A  R   R   N   NN  II  N   NN  G    G                |
|           W    W  A    A  R    R  N    N  II  N    N   GGGG   !!!           |
|                                                                             |
|      For optimal performance we recommend to set                            |
|        NCORE= 4 - approx SQRT( number of cores)                             |
|      NCORE specifies how many cores store one orbital (NPAR=cpu/NCORE).     |
|      This setting can  greatly improve the performance of VASP for DFT.     |
|      The default, NPAR=number of cores might be grossly inefficient         |
|      on modern multi-core architectures or massively parallel machines.     |
|      Do your own testing !!!!                                               |
|      Unfortunately you need to use the default for GW and RPA calculations. |
|      (for HF NCORE is supported but not extensively tested yet)             |
|                                                                             |
 ----------------------------------------------------------------------------- 


 ----------------------------------------------------------------------------- 
|                                                                             |
|           W    W    AA    RRRRR   N    N  II  N    N   GGGG   !!!           |
|           W    W   A  A   R    R  NN   N  II  NN   N  G    G  !!!           |
|           W    W  A    A  R    R  N N  N  II  N N  N  G       !!!           |
|           W WW W  AAAAAA  RRRRR   N  N N  II  N  N N  G  GGG   !            |
|           WW  WW  A    A  R   R   N   NN  II  N   NN  G    G                |
|           W    W  A    A  R    R  N    N  II  N    N   GGGG   !!!           |
|                                                                             |
|      You have enabled k-point parallelism (KPAR>1).                         |
|      This developmental code was originally  written by Paul Kent at ORNL,  |
|      and carefully double checked in Vienna.                                |
|      GW as well as linear response parallelism added by Martijn Marsman     |
|      and Georg Kresse.                                                      |
|      Carefully verify results versus KPAR=1.                                |
|      Report problems to Paul Kent and Vienna.                               |
|                                                                             |
 ----------------------------------------------------------------------------- 

 POTCAR:   PAW C 31May2000                        
   VRHFIN =C: s2p2                                                              
   LEXCH  = CA                                                                  
   EATOM  =   146.6877 eV,   10.7812 Ry                                         
                                                                                
   TITEL  = PAW C 31May2000                                                     
   LULTRA =        F    use ultrasoft PP ?                                      
   IUNSCR =        0    unscreen: 0-lin 1-nonlin 2-no                           
   RPACOR =     .000    partial core radius                                     
   POMASS =   12.011; ZVAL   =    4.000    mass and valenz                      
   RCORE  =    1.500    outmost cutoff radius                                   
   RWIGS  =    1.630; RWIGS  =     .863    wigner-seitz radius (au A)           
   ENMAX  =  400.000; ENMIN  =  300.000 eV                                      
   ICORE  =        2    local potential                                         
   LCOR   =        T    correct aug charges                                     
   LPAW   =        T    paw PP                                                  
   EAUG   =  644.873                                                            
   DEXC   =     .000                                                            
   RMAX   =    2.266    core radius for proj-oper                               
   RAUG   =    1.300    factor for augmentation sphere                          
   RDEP   =    1.501    radius for radial grids                                 
   RDEPT  =    1.300    core radius for aug-charge                              
   QCUT   =   -5.516; QGAM   =   11.032    optimization parameters              
                                                                                
   Description                                                                  
     l     E      TYP  RCUT    TYP  RCUT                                        
     0   .000     23  1.200                                                     
     0   .000     23  1.200                                                     
     1   .000     23  1.500                                                     
     1  2.500     23  1.500                                                     
     2   .000      7  1.500                                                     
  local pseudopotential read in
  atomic valenz-charges read in
  non local Contribution for L=           0  read in
    real space projection operators read in
  non local Contribution for L=           0  read in
    real space projection operators read in
  non local Contribution for L=           1  read in
    real space projection operators read in
  non local Contribution for L=           1  read in
    real space projection operators read in
    PAW grid and wavefunctions read in
 
   number of l-projection  operators is LMAX  =           4
   number of lm-projection operators is LMMAX =           8
 
 POTCAR:   PAW N 31May2000                        
   VRHFIN =N: s2p3                                                              
   LEXCH  = CA                                                                  
   EATOM  =   263.8773 eV,   19.3944 Ry                                         
                                                                                
   TITEL  = PAW N 31May2000                                                     
   LULTRA =        F    use ultrasoft PP ?                                      
   IUNSCR =        0    unscreen: 0-lin 1-nonlin 2-no                           
   RPACOR =     .000    partial core radius                                     
   POMASS =   14.001; ZVAL   =    5.000    mass and valenz                      
   RCORE  =    1.500    outmost cutoff radius                                   
   RWIGS  =    1.400; RWIGS  =     .741    wigner-seitz radius (au A)           
   ENMAX  =  400.000; ENMIN  =  300.000 eV                                      
   ICORE  =        2    local potential                                         
   LCOR   =        T    correct aug charges                                     
   LPAW   =        T    paw PP                                                  
   EAUG   =  555.011                                                            
   DEXC   =     .000                                                            
   RMAX   =    2.248    core radius for proj-oper                               
   RAUG   =    1.300    factor for augmentation sphere                          
   RDEP   =    1.514    core radius for depl-charge                             
   QCUT   =   -5.561; QGAM   =   11.121    optimization parameters              
                                                                                
   Description                                                                  
     l     E      TYP  RCUT    TYP  RCUT                                        
     0   .000     23  1.200                                                     
     0   .000     23  1.200                                                     
     1   .000     23  1.500                                                     
     1   .700     23  1.500                                                     
     2   .000      7  1.500                                                     
  local pseudopotential read in
  atomic valenz-charges read in
  non local Contribution for L=           0  read in
    real space projection operators read in
  non local Contribution for L=           0  read in
    real space projection operators read in
  non local Contribution for L=           1  read in
    real space projection operators read in
  non local Contribution for L=           1  read in
    real space projection operators read in
    PAW grid and wavefunctions read in
 
   number of l-projection  operators is LMAX  =           4
   number of lm-projection operators is LMMAX =           8
 
 POTCAR:   PAW H 06May1998                        
   VRHFIN =H: ultrasoft test                                                    
   LEXCH  = CA                                                                  
   EATOM  =    12.1334 eV,     .8918 Ry                                         
                                                                                
   TITEL  = PAW H 06May1998                                                     
   LULTRA =        F    use ultrasoft PP ?                                      
   IUNSCR =        0    unscreen: 0-lin 1-nonlin 2-no                           
   RPACOR =     .000    partial core radius                                     
   POMASS =    1.000; ZVAL   =    1.000    mass and valenz                      
   RCORE  =    1.100    outmost cutoff radius                                   
   RWIGS  =     .700; RWIGS  =     .370    wigner-seitz radius (au A)           
   ENMAX  =  250.000; ENMIN  =  200.000 eV                                      
   RCLOC  =     .701    cutoff for local pot                                    
   LCOR   =        T    correct aug charges                                     
   LPAW   =        T    paw PP                                                  
   EAUG   =  400.000                                                            
   RMAX   =    2.177    core radius for proj-oper                               
   RAUG   =    1.200    factor for augmentation sphere                          
   RDEP   =    1.112    core radius for depl-charge                             
   QCUT   =   -5.742; QGAM   =   11.483    optimization parameters              
                                                                                
   Description                                                                  
     l     E      TYP  RCUT    TYP  RCUT                                        
     0   .000     23  1.100                                                     
     0   .500     23  1.100                                                     
     1  -.300     23  1.100                                                     
  local pseudopotential read in
  atomic valenz-charges read in
  non local Contribution for L=           0  read in
    real space projection operators read in
  non local Contribution for L=           0  read in
    real space projection operators read in
  non local Contribution for L=           1  read in
    real space projection operators read in
    PAW grid and wavefunctions read in
 
   number of l-projection  operators is LMAX  =           3
   number of lm-projection operators is LMMAX =           5
 
 POTCAR:   PAW Pb_d 30Apr1998                     
   VRHFIN =Pb:                                                                  
   LEXCH  = CA                                                                  
   EATOM  =  1665.9092 eV,  122.4409 Ry                                         
                                                                                
   TITEL  = PAW Pb_d 30Apr1998                                                  
   LULTRA =        F    use ultrasoft PP ?                                      
   IUNSCR =        1    unscreen: 0-lin 1-nonlin 2-no                           
   RPACOR =    2.200    partial core radius                                     
   POMASS =  207.200; ZVAL   =   14.000    mass and valenz                      
   RCORE  =    2.500    outmost cutoff radius                                   
   RWIGS  =    3.260; RWIGS  =    1.725    wigner-seitz radius (au A)           
   ENMAX  =  237.817; ENMIN  =  178.363 eV                                      
   ICORE  =        3    local potential                                         
   LCOR   =        T    correct aug charges                                     
   LPAW   =        T    paw PP                                                  
   EAUG   =  391.914                                                            
   DEXC   =    -.002                                                            
   RMAX   =    2.990    core radius for proj-oper                               
   RAUG   =    1.300    factor for augmentation sphere                          
   RDEP   =    2.643    core radius for depl-charge                             
   QCUT   =   -4.181; QGAM   =    8.362    optimization parameters              
                                                                                
   Description                                                                  
     l     E      TYP  RCUT    TYP  RCUT                                        
     2   .000     23  2.500                                                     
     2   .100     23  2.500                                                     
     0   .000     23  2.500                                                     
     0  1.000     23  2.500                                                     
     1   .000     23  2.500                                                     
     1  1.000     23  2.500                                                     
     3  -.100      7  2.500                                                     
  local pseudopotential read in
  partial core-charges read in
  atomic valenz-charges read in
  non local Contribution for L=           2  read in
    real space projection operators read in
  non local Contribution for L=           2  read in
    real space projection operators read in
  non local Contribution for L=           0  read in
    real space projection operators read in
  non local Contribution for L=           0  read in
    real space projection operators read in
  non local Contribution for L=           1  read in
    real space projection operators read in
  non local Contribution for L=           1  read in
    real space projection operators read in
    PAW grid and wavefunctions read in
 
   number of l-projection  operators is LMAX  =           6
   number of lm-projection operators is LMMAX =          18
 
 POTCAR:   PAW I 03Oct2001                        
   VRHFIN =I : s2p5                                                             
   LEXCH  = CA                                                                  
   EATOM  =   318.2436 eV,   23.3902 Ry                                         
                                                                                
   TITEL  = PAW I 03Oct2001                                                     
   LULTRA =        F    use ultrasoft PP ?                                      
   IUNSCR =        1    unscreen: 0-lin 1-nonlin 2-no                           
   RPACOR =    2.200    partial core radius                                     
   POMASS =  126.904; ZVAL   =    7.000    mass and valenz                      
   RCORE  =    2.300    outmost cutoff radius                                   
   RWIGS  =    2.810; RWIGS  =    1.487    wigner-seitz radius (au A)           
   ENMAX  =  175.712; ENMIN  =  131.784 eV                                      
   ICORE  =        3    local potential                                         
   LCOR   =        T    correct aug charges                                     
   LPAW   =        T    paw PP                                                  
   EAUG   =  370.139                                                            
   DEXC   =    -.063                                                            
   RMAX   =    3.478    core radius for proj-oper                               
   RAUG   =    1.300    factor for augmentation sphere                          
   RDEP   =    2.392    radius for radial grids                                 
   QCUT   =   -3.594; QGAM   =    7.187    optimization parameters              
                                                                                
   Description                                                                  
     l     E      TYP  RCUT    TYP  RCUT                                        
     0   .000     23  2.300                                                     
     0   .000     23  2.300                                                     
     1   .000     23  2.300                                                     
     1   .000     23  2.300                                                     
     2   .000     23  2.300                                                     
     3  -.100     23  2.300                                                     
  local pseudopotential read in
  partial core-charges read in
  atomic valenz-charges read in
  non local Contribution for L=           0  read in
    real space projection operators read in
  non local Contribution for L=           0  read in
    real space projection operators read in
  non local Contribution for L=           1  read in
    real space projection operators read in
  non local Contribution for L=           1  read in
    real space projection operators read in
  non local Contribution for L=           2  read in
    real space projection operators read in
    PAW grid and wavefunctions read in
 
   number of l-projection  operators is LMAX  =           5
   number of lm-projection operators is LMMAX =          13
 
 PAW C 31May2000                        :
 energy of atom  1       EATOM= -146.6877
 kinetic energy error for atom=    0.0075 (will be added to EATOM!!)
 PAW N 31May2000                        :
 energy of atom  2       EATOM= -263.8773
 kinetic energy error for atom=    0.0135 (will be added to EATOM!!)
 PAW H 06May1998                        :
 energy of atom  3       EATOM=  -12.1334
 kinetic energy error for atom=    0.0018 (will be added to EATOM!!)
 PAW Pb_d 30Apr1998                     :
 energy of atom  4       EATOM=-1665.9092
 kinetic energy error for atom=    0.0047 (will be added to EATOM!!)
 PAW I 03Oct2001                        :
 energy of atom  5       EATOM= -318.2436
 kinetic energy error for atom=    0.0009 (will be added to EATOM!!)
 
 
 POSCAR: MA-Pb-I (Github)                        
  positions in direct lattice
  velocities in cartesian coordinates
 exchange correlation table for  LEXCH =        2
   RHO(1)=    0.500       N(1)  =     2000
   RHO(2)=  100.500       N(2)  =     4000
 


--------------------------------------------------------------------------------------------------------


 ion  position               nearest neighbor table
   1  0.903  1.000  0.996-   3 1.10   5 1.10   4 1.10   2 1.48
   2  0.137  1.000  0.025-   6 1.04   7 1.04   8 1.05   1 1.48
   3  0.865  1.000  0.826-   1 1.10
   4  0.838  0.144  0.072-   1 1.10
   5  0.838  0.857  0.072-   1 1.10
   6  0.208  0.134  0.958-   2 1.04
   7  0.207  0.865  0.958-   2 1.04
   8  0.182  0.000  0.185-   2 1.05
   9  0.476  0.500  0.476-  12 3.07  10 3.15  11 3.15  11 3.15  10 3.18  12 3.23
  10  0.427  0.500  0.973-   9 3.15   9 3.18
  11  0.436  0.000  0.507-   9 3.15   9 3.15
  12  0.963  0.500  0.448-   9 3.07   9 3.23
 
  LATTYP: Found a simple monoclinic cell.
 ALAT       =     6.2901201248
 B/A-ratio  =     0.9974197462
 C/A-ratio  =     1.4105278383
 COS(beta)  =    -0.7044835581
  
  Lattice vectors:
  
 A1 = (  -6.2901201248,   0.0000000000,   0.0000000000)
 A2 = (  -0.0000776940,  -6.2738900180,   0.0000000000)
 A3 = (   6.2504525538,  -0.0001537931,   6.2969150416)


Analysis of symmetry for initial positions (statically):
=====================================================================
 Subroutine PRICEL returns:
 Original cell was already a primitive cell.
 

 Routine SETGRP: Setting up the symmetry group for a 
 simple monoclinic supercell.


 Subroutine GETGRP returns: Found  1 space group operations
 (whereof  1 operations were pure point group operations)
 out of a pool of  4 trial point group operations.


The static configuration has the point symmetry C_1 .


Analysis of symmetry for dynamics (positions and initial velocities):
=====================================================================
 Subroutine PRICEL returns:
 Original cell was already a primitive cell.
 

 Routine SETGRP: Setting up the symmetry group for a 
 simple monoclinic supercell.


 Subroutine GETGRP returns: Found  1 space group operations
 (whereof  1 operations were pure point group operations)
 out of a pool of  4 trial point group operations.


The dynamic configuration has the point symmetry C_1 .
 
 
 KPOINTS: Automatically generated mesh            
  k-points in reciprocal lattice
Space group operators:
 irot       det(A)        alpha          n_x          n_y          n_z        tau_x        tau_y        tau_z
    1     1.000000     0.000000     1.000000     0.000000     0.000000     0.000000     0.000000     0.000000


--------------------------------------------------------------------------------------------------------




 Dimension of arrays:
   k-points           NKPTS =    764   k-points in BZ     NKDIM =    764   number of bands    NBANDS=     32
   number of dos      NEDOS =    301   number of ions     NIONS =     12
   non local maximal  LDIM  =      6   non local SUM 2l+1 LMDIM =     18
   total plane-waves  NPLWV = 110592
   max r-space proj   IRMAX =      1   max aug-charges    IRDMAX=  25940
   dimension x,y,z NGX =    48 NGY =   48 NGZ =   48
   dimension x,y,z NGXF=    96 NGYF=   96 NGZF=   96
   support grid    NGXF=    96 NGYF=   96 NGZF=   96
   ions per type =               1   1   6   1   3
 NGX,Y,Z   is equivalent  to a cutoff of  12.69, 12.72, 12.67 a.u.
 NGXF,Y,Z  is equivalent  to a cutoff of  25.37, 25.44, 25.34 a.u.


 I would recommend the setting:
   dimension x,y,z NGX =    46 NGY =   46 NGZ =   46
 SYSTEM =  Name                                    
 POSCAR =  MA-Pb-I (Github)                        

 Startparameter for this run:
   NWRITE =      2    write-flag & timer
   PREC   = accura    normal or accurate (medium, high low for compatibility)
   ISTART =      0    job   : 0-new  1-cont  2-samecut
   ICHARG =     11    charge: 1-file 2-atom 10-const
   ISPIN  =      1    spin polarized calculation?
   LNONCOLLINEAR =      F non collinear calculations
   LSORBIT =      F    spin-orbit coupling
   INIWAV =      1    electr: 0-lowe 1-rand  2-diag
   LASPH  =      F    aspherical Exc in radial PAW
   METAGGA=      F    non-selfconsistent MetaGGA calc.

 Electronic Relaxation 1
   ENCUT  =  500.0 eV  36.75 Ry    6.06 a.u.  11.47 11.44 11.48*2*pi/ulx,y,z
   ENINI  =  500.0     initial cutoff
   ENAUG  =  644.9 eV  augmentation charge cutoff
   NELM   =     60;   NELMIN=  2; NELMDL=  0     # of ELM steps 
   EDIFF  = 0.1E-05   stopping-criterion for ELM
   LREAL  =      F    real-space projection
   NLSPLINE    = F    spline interpolate recip. space projectors
   LCOMPAT=      F    compatible to vasp.4.4
   GGA_COMPAT  = T    GGA compatible to vasp.4.4-vasp.4.6
   LMAXPAW     = -100 max onsite density
   LMAXMIX     =    2 max onsite mixed and CHGCAR
   VOSKOWN=      0    Vosko Wilk Nusair interpolation
   ROPT   =    0.00000   0.00000   0.00000   0.00000
   ROPT   =    0.00000
 Ionic relaxation
   EDIFFG = -.5E-02   stopping-criterion for IOM
   NSW    =      1    number of steps for IOM
   NBLOCK =      1;   KBLOCK =      1    inner block; outer block 
   IBRION =      2    ionic relax: 0-MD 1-quasi-New 2-CG
   NFREE  =      1    steps in history (QN), initial steepest desc. (CG)
   ISIF   =      3    stress and relaxation
   IWAVPR =     11    prediction:  0-non 1-charg 2-wave 3-comb
   ISYM   =      2    0-nonsym 1-usesym 2-fastsym
   LCORR  =      T    Harris-Foulkes like correction to forces

   POTIM  = 0.5000    time-step for ionic-motion
   TEIN   =    0.0    initial temperature
   TEBEG  =    0.0;   TEEND  =   0.0 temperature during run
   SMASS  =  -3.00    Nose mass-parameter (am)
   estimated Nose-frequenzy (Omega)   =  0.10E-29 period in steps =****** mass=  -0.904E-27a.u.
   SCALEE = 1.0000    scale energy and forces
   NPACO  =    256;   APACO  = 16.0  distance and # of slots for P.C.
   PSTRESS=    0.0 pullay stress

  Mass of Ions in am
   POMASS =  12.01 14.00  1.00207.20126.90
  Ionic Valenz
   ZVAL   =   4.00  5.00  1.00 14.00  7.00
  Atomic Wigner-Seitz radii
   RWIGS  =  -1.00 -1.00 -1.00 -1.00 -1.00
  virtual crystal weights 
   VCA    =   1.00  1.00  1.00  1.00  1.00
   NELECT =      50.0000    total number of electrons
   NUPDOWN=      -1.0000    fix difference up-down

 DOS related values:
   EMIN   =  10.00;   EMAX   =-10.00  energy-range for DOS
   EFERMI =   0.00
   ISMEAR =     0;   SIGMA  =   0.01  broadening in eV -4-tet -1-fermi 0-gaus

 Electronic relaxation 2 (details)
   IALGO  =     38    algorithm
   LDIAG  =      T    sub-space diagonalisation (order eigenvalues)
   LSUBROT=      F    optimize rotation matrix (better conditioning)
   TURBO    =      0    0=normal 1=particle mesh
   IRESTART =      0    0=no restart 2=restart with 2 vectors
   NREBOOT  =      0    no. of reboots
   NMIN     =      0    reboot dimension
   EREF     =   0.00    reference energy to select bands
   IMIX   =      4    mixing-type and parameters
     AMIX     =   0.40;   BMIX     =  1.00
     AMIX_MAG =   1.60;   BMIX_MAG =  1.00
     AMIN     =   0.01
     WC   =   100.;   INIMIX=   1;  MIXPRE=   1;  MAXMIX= -45

 Intra band minimization:
   WEIMIN = 0.0010     energy-eigenvalue tresh-hold
   EBREAK =  0.78E-08  absolut break condition
   DEPER  =   0.30     relativ break condition  

   TIME   =   0.40     timestep for ELM

  volume/ion in A,a.u.               =      20.71       139.75
  Fermi-wavevector in a.u.,A,eV,Ry     =   0.959306  1.812825 12.520994  0.920267
  Thomas-Fermi vector in A             =   2.088490
 
 Write flags
   LWAVE  =      T    write WAVECAR
   LCHARG =      T    write CHGCAR
   LVTOT  =      F    write LOCPOT, total local potential
   LVHAR  =      F    write LOCPOT, Hartree potential only
   LELF   =      F    write electronic localiz. function (ELF)
   LORBIT =     10    0 simple, 1 ext, 2 COOP (PROOUT)


 Dipole corrections
   LMONO  =      F    monopole corrections only (constant potential shift)
   LDIPOL =      F    correct potential (dipole corrections)
   IDIPOL =      0    1-x, 2-y, 3-z, 4-all directions 
   EPSILON=  1.0000000 bulk dielectric constant

 Core level calculations are selected ICORELEVEL =  1
 Exchange correlation treatment:
   GGA     =    --    GGA type
   LEXCH   =     2    internal setting for exchange type
   VOSKOWN=      0    Vosko Wilk Nusair interpolation
   LHFCALC =     F    Hartree Fock is set to
   LHFONE  =     F    Hartree Fock one center treatment
   AEXX    =    0.0000 exact exchange contribution

 Linear response parameters
   LEPSILON=     F    determine dielectric tensor
   LRPA    =     F    only Hartree local field effects (RPA)
   LNABLA  =     F    use nabla operator in PAW spheres
   LVEL    =     F    velocity operator in full k-point grid
   LINTERFAST=   F  fast interpolation
   KINTER  =     0    interpolate to denser k-point grid
   CSHIFT  =0.1000    complex shift for real part using Kramers Kronig
   OMEGAMAX=  -1.0    maximum frequency
   DEG_THRESHOLD= 0.2000000E-02 threshold for treating states as degnerate
   RTIME   =    0.100 relaxation time in fs

 Orbital magnetization related:
   ORBITALMAG=     F  switch on orbital magnetization
   LCHIMAG   =     F  perturbation theory with respect to B field
   DQ        =  0.001000  dq finite difference perturbation B field



--------------------------------------------------------------------------------------------------------


 conjugate gradient relaxation of ions
 charge density and potential remain constant during run
 non-spin polarized calculation
 Variant of blocked Davidson
 Davidson routine will perform the subspace rotation
 perform sub-space diagonalisation
    after iterative eigenvector-optimisation
 no mixing
 using additional bands            7
 reciprocal scheme for non local part
 use partial core corrections
 calculate Harris-corrections to forces 
   (improved forces if not selfconsistent)
 use of overlap-Matrix (Vanderbilt PP)
 Gauss-broadening in eV      SIGMA  =   0.01


--------------------------------------------------------------------------------------------------------


  energy-cutoff  :      500.00
  volume of cell :      248.50
      direct lattice vectors                 reciprocal lattice vectors
     6.290120125  0.000000000  0.000000000     0.158979476 -0.000001969  0.001001495
     0.000077694  6.273890018  0.000000000     0.000000000  0.159390744  0.000003893
    -0.039667571 -0.000153793  6.296915042     0.000000000  0.000000000  0.158807923

  length of vectors
     6.290120125  6.273890018  6.297039986     0.158982630  0.159390744  0.158807923


 
 k-points in units of 2pi/SCALE and weight: Automatically generated mesh            
   0.00000000  0.00000000  0.00000000       0.005
   0.02649658 -0.00000033  0.00016692       0.009
   0.05299316 -0.00000066  0.00033383       0.009
   0.07948974 -0.00000098  0.00050075       0.005
   0.00000000  0.02656512  0.00000065       0.009
   0.02649658  0.02656480  0.00016756       0.009
   0.05299316  0.02656447  0.00033448       0.009
   0.07948974  0.02656414  0.00050140       0.009
  -0.05299316  0.02656578 -0.00033318       0.009
  -0.02649658  0.02656545 -0.00016627       0.009
   0.00000000  0.05313025  0.00000130       0.009
   0.02649658  0.05312992  0.00016821       0.009
   0.05299316  0.05312959  0.00033513       0.009
   0.07948974  0.05312926  0.00050205       0.009
  -0.05299316  0.05313090 -0.00033253       0.009
  -0.02649658  0.05313058 -0.00016562       0.009
   0.00000000  0.07969537  0.00000195       0.005
   0.02649658  0.07969504  0.00016886       0.009
   0.05299316  0.07969472  0.00033578       0.009
   0.07948974  0.07969439  0.00050269       0.005
   0.00000000  0.00000000  0.02646799       0.009
   0.02649658 -0.00000033  0.02663490       0.009
   0.05299316 -0.00000066  0.02680182       0.009
   0.07948974 -0.00000098  0.02696873       0.009
  -0.05299316  0.00000066  0.02613416       0.009
  -0.02649658  0.00000033  0.02630107       0.009
   0.00000000  0.02656512  0.02646864       0.009
   0.02649658  0.02656480  0.02663555       0.009
   0.05299316  0.02656447  0.02680247       0.009
   0.07948974  0.02656414  0.02696938       0.009
  -0.05299316  0.02656578  0.02613480       0.009
  -0.02649658  0.02656545  0.02630172       0.009
   0.00000000  0.05313025  0.02646928       0.009
   0.02649658  0.05312992  0.02663620       0.009
   0.05299316  0.05312959  0.02680312       0.009
   0.07948974  0.05312926  0.02697003       0.009
  -0.05299316  0.05313090  0.02613545       0.009
  -0.02649658  0.05313058  0.02630237       0.009
   0.00000000  0.07969537  0.02646993       0.009
   0.02649658  0.07969504  0.02663685       0.009
   0.05299316  0.07969472  0.02680377       0.009
   0.07948974  0.07969439  0.02697068       0.009
  -0.05299316  0.07969603  0.02613610       0.009
  -0.02649658  0.07969570  0.02630302       0.009
   0.00000000 -0.05313025  0.02646669       0.009
   0.02649658 -0.05313058  0.02663361       0.009
   0.05299316 -0.05313090  0.02680052       0.009
   0.07948974 -0.05313123  0.02696744       0.009
  -0.05299316 -0.05312959  0.02613286       0.009
  -0.02649658 -0.05312992  0.02629977       0.009
   0.00000000 -0.02656512  0.02646734       0.009
   0.02649658 -0.02656545  0.02663425       0.009
   0.05299316 -0.02656578  0.02680117       0.009
   0.07948974 -0.02656611  0.02696809       0.009
  -0.05299316 -0.02656447  0.02613351       0.009
  -0.02649658 -0.02656480  0.02630042       0.009
   0.00000000  0.00000000  0.05293597       0.009
   0.02649658 -0.00000033  0.05310289       0.009
   0.05299316 -0.00000066  0.05326981       0.009
   0.07948974 -0.00000098  0.05343672       0.009
  -0.05299316  0.00000066  0.05260214       0.009
  -0.02649658  0.00000033  0.05276906       0.009
   0.00000000  0.02656512  0.05293662       0.009
   0.02649658  0.02656480  0.05310354       0.009
   0.05299316  0.02656447  0.05327045       0.009
   0.07948974  0.02656414  0.05343737       0.009
  -0.05299316  0.02656578  0.05260279       0.009
  -0.02649658  0.02656545  0.05276971       0.009
   0.00000000  0.05313025  0.05293727       0.009
   0.02649658  0.05312992  0.05310419       0.009
   0.05299316  0.05312959  0.05327110       0.009
   0.07948974  0.05312926  0.05343802       0.009
  -0.05299316  0.05313090  0.05260344       0.009
  -0.02649658  0.05313058  0.05277036       0.009
   0.00000000  0.07969537  0.05293792       0.009
   0.02649658  0.07969504  0.05310484       0.009
   0.05299316  0.07969472  0.05327175       0.009
   0.07948974  0.07969439  0.05343867       0.009
  -0.05299316  0.07969603  0.05260409       0.009
  -0.02649658  0.07969570  0.05277100       0.009
   0.00000000 -0.05313025  0.05293468       0.009
   0.02649658 -0.05313058  0.05310159       0.009
   0.05299316 -0.05313090  0.05326851       0.009
   0.07948974 -0.05313123  0.05343542       0.009
  -0.05299316 -0.05312959  0.05260085       0.009
  -0.02649658 -0.05312992  0.05276776       0.009
   0.00000000 -0.02656512  0.05293533       0.009
   0.02649658 -0.02656545  0.05310224       0.009
   0.05299316 -0.02656578  0.05326916       0.009
   0.07948974 -0.02656611  0.05343607       0.009
  -0.05299316 -0.02656447  0.05260149       0.009
  -0.02649658 -0.02656480  0.05276841       0.009
   0.00000000  0.00000000  0.07940396       0.005
   0.02649658 -0.00000033  0.07957088       0.009
   0.05299316 -0.00000066  0.07973779       0.009
   0.07948974 -0.00000098  0.07990471       0.005
   0.00000000  0.02656512  0.07940461       0.009
   0.02649658  0.02656480  0.07957153       0.009
   0.05299316  0.02656447  0.07973844       0.009
   0.07948974  0.02656414  0.07990536       0.009
  -0.05299316  0.02656578  0.07907078       0.009
  -0.02649658  0.02656545  0.07923769       0.009
   0.00000000  0.05313025  0.07940526       0.009
   0.02649658  0.05312992  0.07957218       0.009
   0.05299316  0.05312959  0.07973909       0.009
   0.07948974  0.05312926  0.07990601       0.009
  -0.05299316  0.05313090  0.07907143       0.009
  -0.02649658  0.05313058  0.07923834       0.009
   0.00000000  0.07969537  0.07940591       0.005
   0.02649658  0.07969504  0.07957282       0.009
   0.05299316  0.07969472  0.07973974       0.009
   0.07948974  0.07969439  0.07990666       0.005
   0.00000000  0.00000000  0.00000000       0.000
   0.00000000  0.00079695  0.00000002       0.000
   0.00000000  0.00159391  0.00000004       0.000
   0.00000000  0.00239086  0.00000006       0.000
   0.00000000  0.00318781  0.00000008       0.000
   0.00000000  0.00398477  0.00000010       0.000
   0.00000000  0.00478172  0.00000012       0.000
   0.00000000  0.00557868  0.00000014       0.000
   0.00000000  0.00637563  0.00000016       0.000
   0.00000000  0.00717258  0.00000018       0.000
   0.00000000  0.00796954  0.00000019       0.000
   0.00000000  0.00876649  0.00000021       0.000
   0.00000000  0.00956344  0.00000023       0.000
   0.00000000  0.01036040  0.00000025       0.000
   0.00000000  0.01115735  0.00000027       0.000
   0.00000000  0.01195431  0.00000029       0.000
   0.00000000  0.01275126  0.00000031       0.000
   0.00000000  0.01354821  0.00000033       0.000
   0.00000000  0.01434517  0.00000035       0.000
   0.00000000  0.01514212  0.00000037       0.000
   0.00000000  0.01593907  0.00000039       0.000
   0.00000000  0.01673603  0.00000041       0.000
   0.00000000  0.01753298  0.00000043       0.000
   0.00000000  0.01832993  0.00000045       0.000
   0.00000000  0.01912689  0.00000047       0.000
   0.00000000  0.01992384  0.00000049       0.000
   0.00000000  0.02072080  0.00000051       0.000
   0.00000000  0.02151775  0.00000053       0.000
   0.00000000  0.02231470  0.00000055       0.000
   0.00000000  0.02311166  0.00000056       0.000
   0.00000000  0.02390861  0.00000058       0.000
   0.00000000  0.02470557  0.00000060       0.000
   0.00000000  0.02550252  0.00000062       0.000
   0.00000000  0.02629947  0.00000064       0.000
   0.00000000  0.02709643  0.00000066       0.000
   0.00000000  0.02789338  0.00000068       0.000
   0.00000000  0.02869033  0.00000070       0.000
   0.00000000  0.02948729  0.00000072       0.000
   0.00000000  0.03028424  0.00000074       0.000
   0.00000000  0.03108119  0.00000076       0.000
   0.00000000  0.03187815  0.00000078       0.000
   0.00000000  0.03267510  0.00000080       0.000
   0.00000000  0.03347205  0.00000082       0.000
   0.00000000  0.03426901  0.00000084       0.000
   0.00000000  0.03506596  0.00000086       0.000
   0.00000000  0.03586292  0.00000088       0.000
   0.00000000  0.03665987  0.00000090       0.000
   0.00000000  0.03745682  0.00000091       0.000
   0.00000000  0.03825378  0.00000093       0.000
   0.00000000  0.03905073  0.00000095       0.000
   0.00000000  0.03984769  0.00000097       0.000
   0.00000000  0.04064464  0.00000099       0.000
   0.00000000  0.04144159  0.00000101       0.000
   0.00000000  0.04223855  0.00000103       0.000
   0.00000000  0.04303550  0.00000105       0.000
   0.00000000  0.04383246  0.00000107       0.000
   0.00000000  0.04462941  0.00000109       0.000
   0.00000000  0.04542636  0.00000111       0.000
   0.00000000  0.04622331  0.00000113       0.000
   0.00000000  0.04702027  0.00000115       0.000
   0.00000000  0.04781722  0.00000117       0.000
   0.00000000  0.04861418  0.00000119       0.000
   0.00000000  0.04941113  0.00000121       0.000
   0.00000000  0.05020808  0.00000123       0.000
   0.00000000  0.05100504  0.00000125       0.000
   0.00000000  0.05180199  0.00000127       0.000
   0.00000000  0.05259894  0.00000128       0.000
   0.00000000  0.05339590  0.00000130       0.000
   0.00000000  0.05419285  0.00000132       0.000
   0.00000000  0.05498981  0.00000134       0.000
   0.00000000  0.05578676  0.00000136       0.000
   0.00000000  0.05658371  0.00000138       0.000
   0.00000000  0.05738066  0.00000140       0.000
   0.00000000  0.05817762  0.00000142       0.000
   0.00000000  0.05897458  0.00000144       0.000
   0.00000000  0.05977153  0.00000146       0.000
   0.00000000  0.06056848  0.00000148       0.000
   0.00000000  0.06136543  0.00000150       0.000
   0.00000000  0.06216239  0.00000152       0.000
   0.00000000  0.06295934  0.00000154       0.000
   0.00000000  0.06375629  0.00000156       0.000
   0.00000000  0.06455325  0.00000158       0.000
   0.00000000  0.06535021  0.00000160       0.000
   0.00000000  0.06614716  0.00000162       0.000
   0.00000000  0.06694411  0.00000164       0.000
   0.00000000  0.06774106  0.00000165       0.000
   0.00000000  0.06853802  0.00000167       0.000
   0.00000000  0.06933497  0.00000169       0.000
   0.00000000  0.07013193  0.00000171       0.000
   0.00000000  0.07092888  0.00000173       0.000
   0.00000000  0.07172583  0.00000175       0.000
   0.00000000  0.07252279  0.00000177       0.000
   0.00000000  0.07331974  0.00000179       0.000
   0.00000000  0.07411670  0.00000181       0.000
   0.00000000  0.07491365  0.00000183       0.000
   0.00000000  0.07571060  0.00000185       0.000
   0.00000000  0.07650756  0.00000187       0.000
   0.00000000  0.07730451  0.00000189       0.000
   0.00000000  0.07810146  0.00000191       0.000
   0.00000000  0.07889841  0.00000193       0.000
   0.00000000  0.07969537  0.00000195       0.000
   0.00080293  0.07969536  0.00000700       0.000
   0.00160585  0.07969535  0.00001206       0.000
   0.00240878  0.07969534  0.00001712       0.000
   0.00321171  0.07969533  0.00002218       0.000
   0.00401463  0.07969532  0.00002724       0.000
   0.00481756  0.07969531  0.00003229       0.000
   0.00562049  0.07969530  0.00003735       0.000
   0.00642341  0.07969529  0.00004241       0.000
   0.00722634  0.07969528  0.00004747       0.000
   0.00802927  0.07969527  0.00005253       0.000
   0.00883219  0.07969526  0.00005759       0.000
   0.00963512  0.07969525  0.00006264       0.000
   0.01043805  0.07969524  0.00006770       0.000
   0.01124097  0.07969523  0.00007276       0.000
   0.01204390  0.07969522  0.00007782       0.000
   0.01284683  0.07969521  0.00008288       0.000
   0.01364975  0.07969520  0.00008793       0.000
   0.01445268  0.07969519  0.00009299       0.000
   0.01525561  0.07969518  0.00009805       0.000
   0.01605853  0.07969517  0.00010311       0.000
   0.01686146  0.07969516  0.00010817       0.000
   0.01766439  0.07969515  0.00011322       0.000
   0.01846731  0.07969514  0.00011828       0.000
   0.01927024  0.07969513  0.00012334       0.000
   0.02007317  0.07969512  0.00012840       0.000
   0.02087609  0.07969511  0.00013346       0.000
   0.02167902  0.07969510  0.00013851       0.000
   0.02248195  0.07969509  0.00014357       0.000
   0.02328487  0.07969508  0.00014863       0.000
   0.02408780  0.07969507  0.00015369       0.000
   0.02489072  0.07969506  0.00015875       0.000
   0.02569365  0.07969505  0.00016380       0.000
   0.02649658  0.07969504  0.00016886       0.000
   0.02729951  0.07969503  0.00017392       0.000
   0.02810243  0.07969502  0.00017898       0.000
   0.02890536  0.07969501  0.00018404       0.000
   0.02970828  0.07969500  0.00018909       0.000
   0.03051121  0.07969499  0.00019415       0.000
   0.03131414  0.07969498  0.00019921       0.000
   0.03211707  0.07969497  0.00020427       0.000
   0.03291999  0.07969496  0.00020933       0.000
   0.03372292  0.07969495  0.00021438       0.000
   0.03452584  0.07969494  0.00021944       0.000
   0.03532877  0.07969493  0.00022450       0.000
   0.03613170  0.07969492  0.00022956       0.000
   0.03693463  0.07969491  0.00023462       0.000
   0.03773755  0.07969490  0.00023968       0.000
   0.03854048  0.07969489  0.00024473       0.000
   0.03934340  0.07969488  0.00024979       0.000
   0.04014633  0.07969488  0.00025485       0.000
   0.04094926  0.07969487  0.00025991       0.000
   0.04175219  0.07969486  0.00026497       0.000
   0.04255511  0.07969485  0.00027002       0.000
   0.04335804  0.07969484  0.00027508       0.000
   0.04416097  0.07969483  0.00028014       0.000
   0.04496389  0.07969482  0.00028520       0.000
   0.04576682  0.07969481  0.00029026       0.000
   0.04656974  0.07969480  0.00029531       0.000
   0.04737267  0.07969479  0.00030037       0.000
   0.04817560  0.07969478  0.00030543       0.000
   0.04897853  0.07969477  0.00031049       0.000
   0.04978145  0.07969476  0.00031555       0.000
   0.05058438  0.07969475  0.00032060       0.000
   0.05138730  0.07969474  0.00032566       0.000
   0.05219023  0.07969473  0.00033072       0.000
   0.05299316  0.07969472  0.00033578       0.000
   0.05379608  0.07969471  0.00034084       0.000
   0.05459901  0.07969470  0.00034589       0.000
   0.05540194  0.07969469  0.00035095       0.000
   0.05620486  0.07969468  0.00035601       0.000
   0.05700779  0.07969467  0.00036107       0.000
   0.05781072  0.07969466  0.00036613       0.000
   0.05861364  0.07969465  0.00037118       0.000
   0.05941657  0.07969464  0.00037624       0.000
   0.06021950  0.07969463  0.00038130       0.000
   0.06102243  0.07969462  0.00038636       0.000
   0.06182535  0.07969461  0.00039142       0.000
   0.06262828  0.07969460  0.00039647       0.000
   0.06343120  0.07969459  0.00040153       0.000
   0.06423413  0.07969458  0.00040659       0.000
   0.06503706  0.07969457  0.00041165       0.000
   0.06583999  0.07969456  0.00041671       0.000
   0.06664291  0.07969455  0.00042177       0.000
   0.06744584  0.07969454  0.00042682       0.000
   0.06824876  0.07969453  0.00043188       0.000
   0.06905169  0.07969452  0.00043694       0.000
   0.06985462  0.07969451  0.00044200       0.000
   0.07065755  0.07969450  0.00044706       0.000
   0.07146047  0.07969449  0.00045211       0.000
   0.07226340  0.07969448  0.00045717       0.000
   0.07306632  0.07969447  0.00046223       0.000
   0.07386925  0.07969446  0.00046729       0.000
   0.07467218  0.07969445  0.00047235       0.000
   0.07547511  0.07969444  0.00047740       0.000
   0.07627803  0.07969443  0.00048246       0.000
   0.07708096  0.07969442  0.00048752       0.000
   0.07788388  0.07969441  0.00049258       0.000
   0.07868681  0.07969440  0.00049764       0.000
   0.07948974  0.07969439  0.00050269       0.000
   0.07892598  0.07912918  0.00049913       0.000
   0.07836222  0.07856397  0.00049556       0.000
   0.07779847  0.07799876  0.00049200       0.000
   0.07723471  0.07743356  0.00048843       0.000
   0.07667095  0.07686835  0.00048487       0.000
   0.07610720  0.07630314  0.00048130       0.000
   0.07554344  0.07573793  0.00047774       0.000
   0.07497968  0.07517272  0.00047417       0.000
   0.07441593  0.07460751  0.00047061       0.000
   0.07385217  0.07404230  0.00046704       0.000
   0.07328841  0.07347709  0.00046348       0.000
   0.07272465  0.07291189  0.00045991       0.000
   0.07216089  0.07234668  0.00045635       0.000
   0.07159714  0.07178147  0.00045278       0.000
   0.07103338  0.07121626  0.00044922       0.000
   0.07046962  0.07065105  0.00044565       0.000
   0.06990587  0.07008584  0.00044209       0.000
   0.06934211  0.06952064  0.00043852       0.000
   0.06877835  0.06895543  0.00043496       0.000
   0.06821460  0.06839022  0.00043139       0.000
   0.06765084  0.06782501  0.00042782       0.000
   0.06708708  0.06725980  0.00042426       0.000
   0.06652333  0.06669459  0.00042069       0.000
   0.06595957  0.06612939  0.00041713       0.000
   0.06539581  0.06556418  0.00041356       0.000
   0.06483206  0.06499897  0.00041000       0.000
   0.06426830  0.06443376  0.00040643       0.000
   0.06370454  0.06386855  0.00040287       0.000
   0.06314078  0.06330334  0.00039930       0.000
   0.06257703  0.06273814  0.00039574       0.000
   0.06201327  0.06217293  0.00039217       0.000
   0.06144951  0.06160772  0.00038861       0.000
   0.06088576  0.06104251  0.00038504       0.000
   0.06032200  0.06047730  0.00038148       0.000
   0.05975824  0.05991209  0.00037791       0.000
   0.05919449  0.05934689  0.00037435       0.000
   0.05863073  0.05878168  0.00037078       0.000
   0.05806697  0.05821647  0.00036722       0.000
   0.05750322  0.05765126  0.00036365       0.000
   0.05693946  0.05708605  0.00036009       0.000
   0.05637570  0.05652084  0.00035652       0.000
   0.05581195  0.05595564  0.00035296       0.000
   0.05524819  0.05539043  0.00034939       0.000
   0.05468443  0.05482522  0.00034582       0.000
   0.05412068  0.05426001  0.00034226       0.000
   0.05355692  0.05369480  0.00033869       0.000
   0.05299316  0.05312959  0.00033513       0.000
   0.05242940  0.05256438  0.00033156       0.000
   0.05186565  0.05199918  0.00032800       0.000
   0.05130189  0.05143396  0.00032443       0.000
   0.05073813  0.05086876  0.00032087       0.000
   0.05017437  0.05030355  0.00031730       0.000
   0.04961062  0.04973834  0.00031374       0.000
   0.04904686  0.04917313  0.00031017       0.000
   0.04848310  0.04860792  0.00030661       0.000
   0.04791934  0.04804271  0.00030304       0.000
   0.04735559  0.04747751  0.00029948       0.000
   0.04679183  0.04691230  0.00029591       0.000
   0.04622808  0.04634709  0.00029235       0.000
   0.04566432  0.04578188  0.00028878       0.000
   0.04510056  0.04521668  0.00028522       0.000
   0.04453680  0.04465146  0.00028165       0.000
   0.04397305  0.04408626  0.00027809       0.000
   0.04340929  0.04352105  0.00027452       0.000
   0.04284553  0.04295584  0.00027096       0.000
   0.04228177  0.04239063  0.00026739       0.000
   0.04171802  0.04182543  0.00026383       0.000
   0.04115426  0.04126021  0.00026026       0.000
   0.04059050  0.04069501  0.00025669       0.000
   0.04002675  0.04012980  0.00025313       0.000
   0.03946299  0.03956459  0.00024956       0.000
   0.03889923  0.03899938  0.00024600       0.000
   0.03833547  0.03843417  0.00024243       0.000
   0.03777172  0.03786897  0.00023887       0.000
   0.03720796  0.03730376  0.00023530       0.000
   0.03664421  0.03673855  0.00023174       0.000
   0.03608045  0.03617334  0.00022817       0.000
   0.03551669  0.03560813  0.00022461       0.000
   0.03495293  0.03504292  0.00022104       0.000
   0.03438918  0.03447771  0.00021748       0.000
   0.03382542  0.03391251  0.00021391       0.000
   0.03326167  0.03334730  0.00021035       0.000
   0.03269790  0.03278209  0.00020678       0.000
   0.03213415  0.03221688  0.00020322       0.000
   0.03157039  0.03165167  0.00019965       0.000
   0.03100664  0.03108646  0.00019609       0.000
   0.03044288  0.03052126  0.00019252       0.000
   0.02987912  0.02995605  0.00018896       0.000
   0.02931536  0.02939084  0.00018539       0.000
   0.02875161  0.02882563  0.00018183       0.000
   0.02818785  0.02826042  0.00017826       0.000
   0.02762409  0.02769521  0.00017470       0.000
   0.02706034  0.02713001  0.00017113       0.000
   0.02649658  0.02656480  0.00016756       0.000
   0.02593282  0.02599959  0.00016400       0.000
   0.02536906  0.02543438  0.00016043       0.000
   0.02480531  0.02486917  0.00015687       0.000
   0.02424155  0.02430396  0.00015330       0.000
   0.02367780  0.02373876  0.00014974       0.000
   0.02311404  0.02317354  0.00014617       0.000
   0.02255028  0.02260833  0.00014261       0.000
   0.02198653  0.02204313  0.00013904       0.000
   0.02142277  0.02147792  0.00013548       0.000
   0.02085901  0.02091271  0.00013191       0.000
   0.02029525  0.02034750  0.00012835       0.000
   0.01973150  0.01978230  0.00012478       0.000
   0.01916774  0.01921709  0.00012122       0.000
   0.01860398  0.01865188  0.00011765       0.000
   0.01804022  0.01808667  0.00011409       0.000
   0.01747647  0.01752146  0.00011052       0.000
   0.01691271  0.01695626  0.00010696       0.000
   0.01634895  0.01639104  0.00010339       0.000
   0.01578519  0.01582583  0.00009983       0.000
   0.01522144  0.01526063  0.00009626       0.000
   0.01465768  0.01469542  0.00009270       0.000
   0.01409393  0.01413021  0.00008913       0.000
   0.01353017  0.01356500  0.00008556       0.000
   0.01296642  0.01299980  0.00008200       0.000
   0.01240266  0.01243459  0.00007843       0.000
   0.01183890  0.01186938  0.00007487       0.000
   0.01127514  0.01130417  0.00007130       0.000
   0.01071139  0.01073896  0.00006774       0.000
   0.01014763  0.01017376  0.00006417       0.000
   0.00958387  0.00960854  0.00006061       0.000
   0.00902011  0.00904333  0.00005704       0.000
   0.00845636  0.00847813  0.00005348       0.000
   0.00789260  0.00791292  0.00004991       0.000
   0.00732884  0.00734771  0.00004635       0.000
   0.00676508  0.00678250  0.00004278       0.000
   0.00620132  0.00621729  0.00003922       0.000
   0.00563757  0.00565209  0.00003565       0.000
   0.00507381  0.00508688  0.00003209       0.000
   0.00451006  0.00452167  0.00002852       0.000
   0.00394630  0.00395646  0.00002496       0.000
   0.00338255  0.00339125  0.00002139       0.000
   0.00281879  0.00282604  0.00001783       0.000
   0.00225503  0.00226083  0.00001426       0.000
   0.00169127  0.00169563  0.00001070       0.000
   0.00112752  0.00113042  0.00000713       0.000
   0.00056376  0.00056521  0.00000357       0.000
   0.00000000  0.00000000  0.00000000       0.000
   0.00046215  0.00046334  0.00046457       0.000
   0.00092430  0.00092668  0.00092915       0.000
   0.00138645  0.00139002  0.00139372       0.000
   0.00184860  0.00185336  0.00185829       0.000
   0.00231075  0.00231670  0.00232287       0.000
   0.00277290  0.00278004  0.00278744       0.000
   0.00323505  0.00324338  0.00325202       0.000
   0.00369720  0.00370672  0.00371659       0.000
   0.00415935  0.00417006  0.00418116       0.000
   0.00462150  0.00463340  0.00464574       0.000
   0.00508365  0.00509673  0.00511031       0.000
   0.00554580  0.00556007  0.00557488       0.000
   0.00600795  0.00602341  0.00603946       0.000
   0.00647009  0.00648675  0.00650403       0.000
   0.00693224  0.00695009  0.00696860       0.000
   0.00739439  0.00741343  0.00743318       0.000
   0.00785654  0.00787677  0.00789775       0.000
   0.00831869  0.00834011  0.00836232       0.000
   0.00878084  0.00880345  0.00882690       0.000
   0.00924299  0.00926679  0.00929147       0.000
   0.00970514  0.00973013  0.00975604       0.000
   0.01016729  0.01019347  0.01022062       0.000
   0.01062944  0.01065681  0.01068519       0.000
   0.01109159  0.01112015  0.01114977       0.000
   0.01155374  0.01158349  0.01161434       0.000
   0.01201589  0.01204683  0.01207891       0.000
   0.01247804  0.01251017  0.01254349       0.000
   0.01294019  0.01297350  0.01300806       0.000
   0.01340234  0.01343684  0.01347263       0.000
   0.01386449  0.01390018  0.01393721       0.000
   0.01432664  0.01436352  0.01440178       0.000
   0.01478879  0.01482686  0.01486636       0.000
   0.01525094  0.01529020  0.01533093       0.000
   0.01571309  0.01575354  0.01579550       0.000
   0.01617524  0.01621688  0.01626007       0.000
   0.01663739  0.01668022  0.01672465       0.000
   0.01709954  0.01714356  0.01718922       0.000
   0.01756169  0.01760690  0.01765379       0.000
   0.01802384  0.01807024  0.01811837       0.000
   0.01848599  0.01853358  0.01858294       0.000
   0.01894813  0.01899692  0.01904752       0.000
   0.01941028  0.01946026  0.01951209       0.000
   0.01987243  0.01992360  0.01997666       0.000
   0.02033458  0.02038694  0.02044124       0.000
   0.02079673  0.02085028  0.02090581       0.000
   0.02125888  0.02131361  0.02137038       0.000
   0.02172103  0.02177695  0.02183496       0.000
   0.02218318  0.02224029  0.02229953       0.000
   0.02264533  0.02270363  0.02276410       0.000
   0.02310748  0.02316697  0.02322868       0.000
   0.02356963  0.02363031  0.02369325       0.000
   0.02403178  0.02409365  0.02415783       0.000
   0.02449393  0.02455699  0.02462240       0.000
   0.02495608  0.02502033  0.02508697       0.000
   0.02541823  0.02548367  0.02555155       0.000
   0.02588038  0.02594701  0.02601612       0.000
   0.02634253  0.02641035  0.02648069       0.000
   0.02680468  0.02687369  0.02694527       0.000
   0.02726683  0.02733703  0.02740984       0.000
   0.02772898  0.02780037  0.02787441       0.000
   0.02819113  0.02826371  0.02833899       0.000
   0.02865328  0.02872705  0.02880356       0.000
   0.02911542  0.02919038  0.02926813       0.000
   0.02957758  0.02965373  0.02973271       0.000
   0.03003973  0.03011707  0.03019728       0.000
   0.03050187  0.03058040  0.03066185       0.000
   0.03096402  0.03104374  0.03112643       0.000
   0.03142617  0.03150708  0.03159100       0.000
   0.03188832  0.03197042  0.03205558       0.000
   0.03235047  0.03243376  0.03252015       0.000
   0.03281262  0.03289710  0.03298472       0.000
   0.03327477  0.03336044  0.03344930       0.000
   0.03373692  0.03382378  0.03391387       0.000
   0.03419907  0.03428712  0.03437844       0.000
   0.03466122  0.03475046  0.03484302       0.000
   0.03512337  0.03521380  0.03530759       0.000
   0.03558552  0.03567714  0.03577216       0.000
   0.03604767  0.03614048  0.03623674       0.000
   0.03650982  0.03660382  0.03670131       0.000
   0.03697197  0.03706716  0.03716588       0.000
   0.03743412  0.03753049  0.03763046       0.000
   0.03789627  0.03799384  0.03809503       0.000
   0.03835842  0.03845718  0.03855961       0.000
   0.03882057  0.03892051  0.03902418       0.000
   0.03928272  0.03938385  0.03948875       0.000
   0.03974487  0.03984719  0.03995333       0.000
   0.04020702  0.04031053  0.04041790       0.000
   0.04066917  0.04077387  0.04088248       0.000
   0.04113131  0.04123721  0.04134704       0.000
   0.04159347  0.04170055  0.04181162       0.000
   0.04205561  0.04216389  0.04227619       0.000
   0.04251776  0.04262723  0.04274077       0.000
   0.04297991  0.04309057  0.04320534       0.000
   0.04344206  0.04355391  0.04366991       0.000
   0.04390421  0.04401725  0.04413449       0.000
   0.04436636  0.04448059  0.04459906       0.000
   0.04482851  0.04494393  0.04506363       0.000
   0.04529066  0.04540727  0.04552821       0.000
   0.04575281  0.04587061  0.04599278       0.000
   0.04621496  0.04633394  0.04645735       0.000
   0.04667711  0.04679728  0.04692193       0.000
   0.04713926  0.04726062  0.04738650       0.000
   0.04760141  0.04772396  0.04785108       0.000
   0.04806356  0.04818730  0.04831565       0.000
   0.04852571  0.04865064  0.04878022       0.000
   0.04898786  0.04911398  0.04924479       0.000
   0.04945001  0.04957732  0.04970937       0.000
   0.04991216  0.05004066  0.05017395       0.000
   0.05037431  0.05050400  0.05063852       0.000
   0.05083646  0.05096734  0.05110309       0.000
   0.05129861  0.05143068  0.05156766       0.000
   0.05176076  0.05189402  0.05203224       0.000
   0.05222291  0.05235736  0.05249681       0.000
   0.05268506  0.05282070  0.05296139       0.000
   0.05314721  0.05328404  0.05342596       0.000
   0.05360935  0.05374737  0.05389053       0.000
   0.05407150  0.05421071  0.05435511       0.000
   0.05453365  0.05467405  0.05481968       0.000
   0.05499581  0.05513739  0.05528425       0.000
   0.05545796  0.05560073  0.05574883       0.000
   0.05592010  0.05606407  0.05621340       0.000
   0.05638225  0.05652741  0.05667797       0.000
   0.05684440  0.05699075  0.05714255       0.000
   0.05730655  0.05745409  0.05760712       0.000
   0.05776870  0.05791743  0.05807170       0.000
   0.05823085  0.05838077  0.05853627       0.000
   0.05869300  0.05884411  0.05900084       0.000
   0.05915515  0.05930745  0.05946542       0.000
   0.05961730  0.05977079  0.05992999       0.000
   0.06007945  0.06023413  0.06039457       0.000
   0.06054160  0.06069747  0.06085914       0.000
   0.06100375  0.06116080  0.06132371       0.000
   0.06146590  0.06162414  0.06178828       0.000
   0.06192805  0.06208748  0.06225286       0.000
   0.06239020  0.06255083  0.06271743       0.000
   0.06285235  0.06301416  0.06318200       0.000
   0.06331450  0.06347750  0.06364658       0.000
   0.06377665  0.06394084  0.06411115       0.000
   0.06423880  0.06440418  0.06457572       0.000
   0.06470095  0.06486752  0.06504030       0.000
   0.06516309  0.06533086  0.06550487       0.000
   0.06562525  0.06579420  0.06596945       0.000
   0.06608740  0.06625754  0.06643402       0.000
   0.06654955  0.06672088  0.06689859       0.000
   0.06701170  0.06718422  0.06736317       0.000
   0.06747384  0.06764756  0.06782774       0.000
   0.06793599  0.06811090  0.06829231       0.000
   0.06839814  0.06857423  0.06875688       0.000
   0.06886030  0.06903758  0.06922146       0.000
   0.06932245  0.06950092  0.06968604       0.000
   0.06978460  0.06996426  0.07015061       0.000
   0.07024674  0.07042759  0.07061518       0.000
   0.07070889  0.07089093  0.07107975       0.000
   0.07117104  0.07135427  0.07154433       0.000
   0.07163319  0.07181761  0.07200890       0.000
   0.07209534  0.07228096  0.07247348       0.000
   0.07255749  0.07274429  0.07293805       0.000
   0.07301964  0.07320763  0.07340262       0.000
   0.07348179  0.07367097  0.07386720       0.000
   0.07394394  0.07413431  0.07433177       0.000
   0.07440609  0.07459765  0.07479634       0.000
   0.07486823  0.07506099  0.07526091       0.000
   0.07533039  0.07552433  0.07572549       0.000
   0.07579254  0.07598767  0.07619006       0.000
   0.07625469  0.07645101  0.07665464       0.000
   0.07671684  0.07691435  0.07711921       0.000
   0.07717898  0.07737768  0.07758378       0.000
   0.07764113  0.07784102  0.07804836       0.000
   0.07810328  0.07830436  0.07851293       0.000
   0.07856544  0.07876771  0.07897751       0.000
   0.07902759  0.07923105  0.07944208       0.000
   0.07948973  0.07969438  0.07990665       0.000
   0.07892196  0.07969439  0.07933591       0.000
   0.07835417  0.07969440  0.07876516       0.000
   0.07778639  0.07969441  0.07819441       0.000
   0.07721860  0.07969442  0.07762366       0.000
   0.07665082  0.07969442  0.07705292       0.000
   0.07608303  0.07969443  0.07648217       0.000
   0.07551525  0.07969444  0.07591142       0.000
   0.07494747  0.07969444  0.07534067       0.000
   0.07437968  0.07969445  0.07476993       0.000
   0.07381190  0.07969446  0.07419917       0.000
   0.07324411  0.07969447  0.07362843       0.000
   0.07267633  0.07969447  0.07305768       0.000
   0.07210855  0.07969448  0.07248693       0.000
   0.07154076  0.07969449  0.07191618       0.000
   0.07097298  0.07969449  0.07134544       0.000
   0.07040520  0.07969450  0.07077469       0.000
   0.06983742  0.07969451  0.07020394       0.000
   0.06926963  0.07969451  0.06963319       0.000
   0.06870184  0.07969452  0.06906244       0.000
   0.06813406  0.07969453  0.06849170       0.000
   0.06756628  0.07969454  0.06792095       0.000
   0.06699849  0.07969454  0.06735020       0.000
   0.06643071  0.07969455  0.06677945       0.000
   0.06586293  0.07969456  0.06620871       0.000
   0.06529514  0.07969456  0.06563796       0.000
   0.06472736  0.07969457  0.06506721       0.000
   0.06415957  0.07969458  0.06449646       0.000
   0.06359179  0.07969458  0.06392572       0.000
   0.06302401  0.07969459  0.06335497       0.000
   0.06245622  0.07969460  0.06278422       0.000
   0.06188844  0.07969461  0.06221347       0.000
   0.06132066  0.07969461  0.06164272       0.000
   0.06075287  0.07969462  0.06107197       0.000
   0.06018509  0.07969463  0.06050122       0.000
   0.05961730  0.07969463  0.05993048       0.000
   0.05904952  0.07969464  0.05935973       0.000
   0.05848174  0.07969465  0.05878899       0.000
   0.05791395  0.07969465  0.05821823       0.000
   0.05734617  0.07969466  0.05764749       0.000
   0.05677839  0.07969467  0.05707674       0.000
   0.05621060  0.07969468  0.05650599       0.000
   0.05564282  0.07969468  0.05593525       0.000
   0.05507503  0.07969469  0.05536449       0.000
   0.05450725  0.07969470  0.05479375       0.000
   0.05393947  0.07969470  0.05422300       0.000
   0.05337168  0.07969471  0.05365225       0.000
   0.05280390  0.07969472  0.05308150       0.000
   0.05223612  0.07969473  0.05251076       0.000
   0.05166833  0.07969473  0.05194001       0.000
   0.05110055  0.07969474  0.05136926       0.000
   0.05053276  0.07969475  0.05079851       0.000
   0.04996498  0.07969475  0.05022777       0.000
   0.04939720  0.07969476  0.04965702       0.000
   0.04882941  0.07969477  0.04908627       0.000
   0.04826163  0.07969477  0.04851552       0.000
   0.04769384  0.07969478  0.04794477       0.000
   0.04712606  0.07969479  0.04737402       0.000
   0.04655828  0.07969480  0.04680328       0.000
   0.04599049  0.07969480  0.04623253       0.000
   0.04542271  0.07969481  0.04566178       0.000
   0.04485492  0.07969482  0.04509103       0.000
   0.04428714  0.07969482  0.04452028       0.000
   0.04371935  0.07969483  0.04394953       0.000
   0.04315157  0.07969484  0.04337879       0.000
   0.04258379  0.07969484  0.04280804       0.000
   0.04201600  0.07969485  0.04223729       0.000
   0.04144822  0.07969486  0.04166655       0.000
   0.04088043  0.07969487  0.04109579       0.000
   0.04031266  0.07969487  0.04052505       0.000
   0.03974487  0.07969488  0.03995430       0.000
   0.03917709  0.07969489  0.03938355       0.000
   0.03860930  0.07969489  0.03881280       0.000
   0.03804152  0.07969490  0.03824206       0.000
   0.03747373  0.07969491  0.03767131       0.000
   0.03690595  0.07969492  0.03710056       0.000
   0.03633816  0.07969492  0.03652981       0.000
   0.03577038  0.07969493  0.03595906       0.000
   0.03520260  0.07969494  0.03538832       0.000
   0.03463482  0.07969494  0.03481757       0.000
   0.03406703  0.07969495  0.03424682       0.000
   0.03349925  0.07969496  0.03367607       0.000
   0.03293146  0.07969496  0.03310533       0.000
   0.03236368  0.07969497  0.03253458       0.000
   0.03179590  0.07969498  0.03196383       0.000
   0.03122811  0.07969499  0.03139308       0.000
   0.03066033  0.07969499  0.03082234       0.000
   0.03009255  0.07969500  0.03025159       0.000
   0.02952476  0.07969501  0.02968084       0.000
   0.02895697  0.07969501  0.02911009       0.000
   0.02838919  0.07969502  0.02853934       0.000
   0.02782141  0.07969503  0.02796860       0.000
   0.02725363  0.07969503  0.02739785       0.000
   0.02668584  0.07969504  0.02682710       0.000
   0.02611806  0.07969505  0.02625635       0.000
   0.02555027  0.07969506  0.02568560       0.000
   0.02498249  0.07969506  0.02511485       0.000
   0.02441471  0.07969507  0.02454411       0.000
   0.02384692  0.07969508  0.02397336       0.000
   0.02327914  0.07969508  0.02340261       0.000
   0.02271136  0.07969509  0.02283187       0.000
   0.02214357  0.07969510  0.02226111       0.000
   0.02157579  0.07969510  0.02169037       0.000
   0.02100800  0.07969511  0.02111962       0.000
   0.02044022  0.07969512  0.02054888       0.000
   0.01987243  0.07969513  0.01997812       0.000
   0.01930465  0.07969513  0.01940738       0.000
   0.01873686  0.07969514  0.01883663       0.000
   0.01816909  0.07969515  0.01826588       0.000
   0.01760130  0.07969515  0.01769513       0.000
   0.01703352  0.07969516  0.01712439       0.000
   0.01646573  0.07969517  0.01655363       0.000
   0.01589795  0.07969518  0.01598289       0.000
   0.01533016  0.07969518  0.01541214       0.000
   0.01476238  0.07969519  0.01484139       0.000
   0.01419460  0.07969520  0.01427065       0.000
   0.01362682  0.07969520  0.01369990       0.000
   0.01305903  0.07969521  0.01312915       0.000
   0.01249124  0.07969522  0.01255840       0.000
   0.01192346  0.07969522  0.01198766       0.000
   0.01135568  0.07969523  0.01141691       0.000
   0.01078789  0.07969524  0.01084616       0.000
   0.01022011  0.07969525  0.01027541       0.000
   0.00965233  0.07969525  0.00970466       0.000
   0.00908454  0.07969526  0.00913391       0.000
   0.00851676  0.07969527  0.00856317       0.000
   0.00794897  0.07969527  0.00799241       0.000
   0.00738119  0.07969528  0.00742167       0.000
   0.00681341  0.07969529  0.00685092       0.000
   0.00624562  0.07969529  0.00628017       0.000
   0.00567784  0.07969530  0.00570943       0.000
   0.00511006  0.07969531  0.00513868       0.000
   0.00454227  0.07969532  0.00456793       0.000
   0.00397449  0.07969532  0.00399718       0.000
   0.00340671  0.07969533  0.00342644       0.000
   0.00283892  0.07969534  0.00285569       0.000
   0.00227113  0.07969534  0.00228494       0.000
   0.00170335  0.07969535  0.00171419       0.000
   0.00113557  0.07969536  0.00114344       0.000
   0.00056779  0.07969537  0.00057270       0.000
 
 k-points in reciprocal lattice and weights: Automatically generated mesh            
   0.00000000  0.00000000  0.00000000       0.005
   0.16666667  0.00000000  0.00000000       0.009
   0.33333333  0.00000000  0.00000000       0.009
   0.50000000  0.00000000  0.00000000       0.005
   0.00000000  0.16666667  0.00000000       0.009
   0.16666667  0.16666667  0.00000000       0.009
   0.33333333  0.16666667  0.00000000       0.009
   0.50000000  0.16666667  0.00000000       0.009
  -0.33333333  0.16666667  0.00000000       0.009
  -0.16666667  0.16666667  0.00000000       0.009
   0.00000000  0.33333333  0.00000000       0.009
   0.16666667  0.33333333  0.00000000       0.009
   0.33333333  0.33333333  0.00000000       0.009
   0.50000000  0.33333333  0.00000000       0.009
  -0.33333333  0.33333333  0.00000000       0.009
  -0.16666667  0.33333333  0.00000000       0.009
   0.00000000  0.50000000  0.00000000       0.005
   0.16666667  0.50000000  0.00000000       0.009
   0.33333333  0.50000000  0.00000000       0.009
   0.50000000  0.50000000  0.00000000       0.005
   0.00000000  0.00000000  0.16666667       0.009
   0.16666667  0.00000000  0.16666667       0.009
   0.33333333  0.00000000  0.16666667       0.009
   0.50000000  0.00000000  0.16666667       0.009
  -0.33333333  0.00000000  0.16666667       0.009
  -0.16666667  0.00000000  0.16666667       0.009
   0.00000000  0.16666667  0.16666667       0.009
   0.16666667  0.16666667  0.16666667       0.009
   0.33333333  0.16666667  0.16666667       0.009
   0.50000000  0.16666667  0.16666667       0.009
  -0.33333333  0.16666667  0.16666667       0.009
  -0.16666667  0.16666667  0.16666667       0.009
   0.00000000  0.33333333  0.16666667       0.009
   0.16666667  0.33333333  0.16666667       0.009
   0.33333333  0.33333333  0.16666667       0.009
   0.50000000  0.33333333  0.16666667       0.009
  -0.33333333  0.33333333  0.16666667       0.009
  -0.16666667  0.33333333  0.16666667       0.009
   0.00000000  0.50000000  0.16666667       0.009
   0.16666667  0.50000000  0.16666667       0.009
   0.33333333  0.50000000  0.16666667       0.009
   0.50000000  0.50000000  0.16666667       0.009
  -0.33333333  0.50000000  0.16666667       0.009
  -0.16666667  0.50000000  0.16666667       0.009
   0.00000000 -0.33333333  0.16666667       0.009
   0.16666667 -0.33333333  0.16666667       0.009
   0.33333333 -0.33333333  0.16666667       0.009
   0.50000000 -0.33333333  0.16666667       0.009
  -0.33333333 -0.33333333  0.16666667       0.009
  -0.16666667 -0.33333333  0.16666667       0.009
   0.00000000 -0.16666667  0.16666667       0.009
   0.16666667 -0.16666667  0.16666667       0.009
   0.33333333 -0.16666667  0.16666667       0.009
   0.50000000 -0.16666667  0.16666667       0.009
  -0.33333333 -0.16666667  0.16666667       0.009
  -0.16666667 -0.16666667  0.16666667       0.009
   0.00000000  0.00000000  0.33333333       0.009
   0.16666667  0.00000000  0.33333333       0.009
   0.33333333  0.00000000  0.33333333       0.009
   0.50000000  0.00000000  0.33333333       0.009
  -0.33333333  0.00000000  0.33333333       0.009
  -0.16666667  0.00000000  0.33333333       0.009
   0.00000000  0.16666667  0.33333333       0.009
   0.16666667  0.16666667  0.33333333       0.009
   0.33333333  0.16666667  0.33333333       0.009
   0.50000000  0.16666667  0.33333333       0.009
  -0.33333333  0.16666667  0.33333333       0.009
  -0.16666667  0.16666667  0.33333333       0.009
   0.00000000  0.33333333  0.33333333       0.009
   0.16666667  0.33333333  0.33333333       0.009
   0.33333333  0.33333333  0.33333333       0.009
   0.50000000  0.33333333  0.33333333       0.009
  -0.33333333  0.33333333  0.33333333       0.009
  -0.16666667  0.33333333  0.33333333       0.009
   0.00000000  0.50000000  0.33333333       0.009
   0.16666667  0.50000000  0.33333333       0.009
   0.33333333  0.50000000  0.33333333       0.009
   0.50000000  0.50000000  0.33333333       0.009
  -0.33333333  0.50000000  0.33333333       0.009
  -0.16666667  0.50000000  0.33333333       0.009
   0.00000000 -0.33333333  0.33333333       0.009
   0.16666667 -0.33333333  0.33333333       0.009
   0.33333333 -0.33333333  0.33333333       0.009
   0.50000000 -0.33333333  0.33333333       0.009
  -0.33333333 -0.33333333  0.33333333       0.009
  -0.16666667 -0.33333333  0.33333333       0.009
   0.00000000 -0.16666667  0.33333333       0.009
   0.16666667 -0.16666667  0.33333333       0.009
   0.33333333 -0.16666667  0.33333333       0.009
   0.50000000 -0.16666667  0.33333333       0.009
  -0.33333333 -0.16666667  0.33333333       0.009
  -0.16666667 -0.16666667  0.33333333       0.009
   0.00000000  0.00000000  0.50000000       0.005
   0.16666667  0.00000000  0.50000000       0.009
   0.33333333  0.00000000  0.50000000       0.009
   0.50000000  0.00000000  0.50000000       0.005
   0.00000000  0.16666667  0.50000000       0.009
   0.16666667  0.16666667  0.50000000       0.009
   0.33333333  0.16666667  0.50000000       0.009
   0.50000000  0.16666667  0.50000000       0.009
  -0.33333333  0.16666667  0.50000000       0.009
  -0.16666667  0.16666667  0.50000000       0.009
   0.00000000  0.33333333  0.50000000       0.009
   0.16666667  0.33333333  0.50000000       0.009
   0.33333333  0.33333333  0.50000000       0.009
   0.50000000  0.33333333  0.50000000       0.009
  -0.33333333  0.33333333  0.50000000       0.009
  -0.16666667  0.33333333  0.50000000       0.009
   0.00000000  0.50000000  0.50000000       0.005
   0.16666667  0.50000000  0.50000000       0.009
   0.33333333  0.50000000  0.50000000       0.009
   0.50000000  0.50000000  0.50000000       0.005
   0.00000000  0.00000000  0.00000000       0.000
   0.00000000  0.00500000  0.00000000       0.000
   0.00000000  0.01000000  0.00000000       0.000
   0.00000000  0.01500000  0.00000000       0.000
   0.00000000  0.02000000  0.00000000       0.000
   0.00000000  0.02500000  0.00000000       0.000
   0.00000000  0.03000000  0.00000000       0.000
   0.00000000  0.03500000  0.00000000       0.000
   0.00000000  0.04000000  0.00000000       0.000
   0.00000000  0.04500000  0.00000000       0.000
   0.00000000  0.05000000  0.00000000       0.000
   0.00000000  0.05500000  0.00000000       0.000
   0.00000000  0.06000000  0.00000000       0.000
   0.00000000  0.06500000  0.00000000       0.000
   0.00000000  0.07000000  0.00000000       0.000
   0.00000000  0.07500000  0.00000000       0.000
   0.00000000  0.08000000  0.00000000       0.000
   0.00000000  0.08500000  0.00000000       0.000
   0.00000000  0.09000000  0.00000000       0.000
   0.00000000  0.09500000  0.00000000       0.000
   0.00000000  0.09999999  0.00000000       0.000
   0.00000000  0.10500000  0.00000000       0.000
   0.00000000  0.11000000  0.00000000       0.000
   0.00000000  0.11499999  0.00000000       0.000
   0.00000000  0.12000000  0.00000000       0.000
   0.00000000  0.12500000  0.00000000       0.000
   0.00000000  0.13000000  0.00000000       0.000
   0.00000000  0.13499999  0.00000000       0.000
   0.00000000  0.14000000  0.00000000       0.000
   0.00000000  0.14500000  0.00000000       0.000
   0.00000000  0.14999999  0.00000000       0.000
   0.00000000  0.15500000  0.00000000       0.000
   0.00000000  0.16000000  0.00000000       0.000
   0.00000000  0.16499999  0.00000000       0.000
   0.00000000  0.17000000  0.00000000       0.000
   0.00000000  0.17500000  0.00000000       0.000
   0.00000000  0.17999999  0.00000000       0.000
   0.00000000  0.18500000  0.00000000       0.000
   0.00000000  0.19000000  0.00000000       0.000
   0.00000000  0.19499999  0.00000000       0.000
   0.00000000  0.19999999  0.00000000       0.000
   0.00000000  0.20500000  0.00000000       0.000
   0.00000000  0.20999999  0.00000000       0.000
   0.00000000  0.21499999  0.00000000       0.000
   0.00000000  0.22000000  0.00000000       0.000
   0.00000000  0.22499999  0.00000000       0.000
   0.00000000  0.22999999  0.00000000       0.000
   0.00000000  0.23500000  0.00000000       0.000
   0.00000000  0.23999999  0.00000000       0.000
   0.00000000  0.24499999  0.00000000       0.000
   0.00000000  0.25000000  0.00000000       0.000
   0.00000000  0.25500000  0.00000000       0.000
   0.00000000  0.25999999  0.00000000       0.000
   0.00000000  0.26499999  0.00000000       0.000
   0.00000000  0.26999998  0.00000000       0.000
   0.00000000  0.27500001  0.00000000       0.000
   0.00000000  0.28000000  0.00000000       0.000
   0.00000000  0.28500000  0.00000000       0.000
   0.00000000  0.28999999  0.00000000       0.000
   0.00000000  0.29499999  0.00000000       0.000
   0.00000000  0.29999998  0.00000000       0.000
   0.00000000  0.30500001  0.00000000       0.000
   0.00000000  0.31000000  0.00000000       0.000
   0.00000000  0.31500000  0.00000000       0.000
   0.00000000  0.31999999  0.00000000       0.000
   0.00000000  0.32499999  0.00000000       0.000
   0.00000000  0.32999998  0.00000000       0.000
   0.00000000  0.33499998  0.00000000       0.000
   0.00000000  0.34000000  0.00000000       0.000
   0.00000000  0.34500000  0.00000000       0.000
   0.00000000  0.34999999  0.00000000       0.000
   0.00000000  0.35499999  0.00000000       0.000
   0.00000000  0.35999998  0.00000000       0.000
   0.00000000  0.36499998  0.00000000       0.000
   0.00000000  0.37000000  0.00000000       0.000
   0.00000000  0.37500000  0.00000000       0.000
   0.00000000  0.38000000  0.00000000       0.000
   0.00000000  0.38499999  0.00000000       0.000
   0.00000000  0.38999999  0.00000000       0.000
   0.00000000  0.39499998  0.00000000       0.000
   0.00000000  0.39999998  0.00000000       0.000
   0.00000000  0.40500000  0.00000000       0.000
   0.00000000  0.41000000  0.00000000       0.000
   0.00000000  0.41499999  0.00000000       0.000
   0.00000000  0.41999999  0.00000000       0.000
   0.00000000  0.42499998  0.00000000       0.000
   0.00000000  0.42999998  0.00000000       0.000
   0.00000000  0.43500000  0.00000000       0.000
   0.00000000  0.44000000  0.00000000       0.000
   0.00000000  0.44499999  0.00000000       0.000
   0.00000000  0.44999999  0.00000000       0.000
   0.00000000  0.45499998  0.00000000       0.000
   0.00000000  0.45999998  0.00000000       0.000
   0.00000000  0.46500000  0.00000000       0.000
   0.00000000  0.47000000  0.00000000       0.000
   0.00000000  0.47499999  0.00000000       0.000
   0.00000000  0.47999999  0.00000000       0.000
   0.00000000  0.48499998  0.00000000       0.000
   0.00000000  0.48999998  0.00000000       0.000
   0.00000000  0.49499997  0.00000000       0.000
   0.00000000  0.50000000  0.00000000       0.000
   0.00505051  0.50000000  0.00000000       0.000
   0.01010101  0.50000000  0.00000000       0.000
   0.01515152  0.50000000  0.00000000       0.000
   0.02020202  0.50000000  0.00000000       0.000
   0.02525252  0.50000000  0.00000000       0.000
   0.03030303  0.50000000  0.00000000       0.000
   0.03535353  0.50000000  0.00000000       0.000
[...]
     29       6.2431      0.00000
     30       6.6445      0.00000
     31       6.7267      0.00000
     32       7.2970      0.00000

 k-point   757 :       0.0286    0.5000    0.0286
  band No.  band energies     occupation 
      1     -18.1533      2.00000
      2     -15.1927      2.00000
      3     -15.1710      2.00000
      4     -15.1292      2.00000
      5     -15.1112      2.00000
      6     -15.1078      2.00000
      7     -11.2437      2.00000
      8     -10.7684      2.00000
      9     -10.4711      2.00000
     10     -10.0386      2.00000
     11      -7.7374      2.00000
     12      -7.6761      2.00000
     13      -6.0729      2.00000
     14      -5.8800      2.00000
     15      -3.5832      2.00000
     16      -3.5272      2.00000
     17      -2.1105      2.00000
     18      -1.9237      2.00000
     19      -0.6857      2.00000
     20      -0.3807      2.00000
     21      -0.2373      2.00000
     22       0.1160      2.00000
     23       0.1405      2.00000
     24       0.3824      2.00000
     25       0.5256      2.00000
     26       3.6189      0.00000
     27       5.8339      0.00000
     28       6.0383      0.00000
     29       6.2431      0.00000
     30       6.6529      0.00000
     31       6.7296      0.00000
     32       7.2837      0.00000

 k-point   758 :       0.0250    0.5000    0.0250
  band No.  band energies     occupation 
      1     -18.1533      2.00000
      2     -15.1928      2.00000
      3     -15.1710      2.00000
      4     -15.1292      2.00000
      5     -15.1112      2.00000
      6     -15.1078      2.00000
      7     -11.2436      2.00000
      8     -10.7689      2.00000
      9     -10.4712      2.00000
     10     -10.0382      2.00000
     11      -7.7374      2.00000
     12      -7.6762      2.00000
     13      -6.0703      2.00000
     14      -5.8800      2.00000
     15      -3.5834      2.00000
     16      -3.5269      2.00000
     17      -2.1137      2.00000
     18      -1.9269      2.00000
     19      -0.6839      2.00000
     20      -0.3828      2.00000
     21      -0.2355      2.00000
     22       0.1129      2.00000
     23       0.1416      2.00000
     24       0.3829      2.00000
     25       0.5251      2.00000
     26       3.6202      0.00000
     27       5.8385      0.00000
     28       6.0333      0.00000
     29       6.2430      0.00000
     30       6.6600      0.00000
     31       6.7322      0.00000
     32       7.2844      0.00000

 k-point   759 :       0.0214    0.5000    0.0214
  band No.  band energies     occupation 
      1     -18.1533      2.00000
      2     -15.1928      2.00000
      3     -15.1710      2.00000
      4     -15.1292      2.00000
      5     -15.1112      2.00000
      6     -15.1078      2.00000
      7     -11.2435      2.00000
      8     -10.7693      2.00000
      9     -10.4712      2.00000
     10     -10.0378      2.00000
     11      -7.7373      2.00000
     12      -7.6764      2.00000
     13      -6.0681      2.00000
     14      -5.8799      2.00000
     15      -3.5835      2.00000
     16      -3.5266      2.00000
     17      -2.1165      2.00000
     18      -1.9297      2.00000
     19      -0.6823      2.00000
     20      -0.3846      2.00000
     21      -0.2339      2.00000
     22       0.1103      2.00000
     23       0.1426      2.00000
     24       0.3833      2.00000
     25       0.5247      2.00000
     26       3.6213      0.00000
     27       5.8426      0.00000
     28       6.0288      0.00000
     29       6.2430      0.00000
     30       6.6663      0.00000
     31       6.7345      0.00000
     32       7.2854      0.00000

 k-point   760 :       0.0179    0.5000    0.0179
  band No.  band energies     occupation 
      1     -18.1533      2.00000
      2     -15.1928      2.00000
      3     -15.1710      2.00000
      4     -15.1292      2.00000
      5     -15.1112      2.00000
      6     -15.1078      2.00000
      7     -11.2434      2.00000
      8     -10.7696      2.00000
      9     -10.4713      2.00000
     10     -10.0375      2.00000
     11      -7.7373      2.00000
     12      -7.6765      2.00000
     13      -6.0662      2.00000
     14      -5.8799      2.00000
     15      -3.5837      2.00000
     16      -3.5263      2.00000
     17      -2.1188      2.00000
     18      -1.9320      2.00000
     19      -0.6810      2.00000
     20      -0.3863      2.00000
     21      -0.2325      2.00000
     22       0.1080      2.00000
     23       0.1435      2.00000
     24       0.3837      2.00000
     25       0.5244      2.00000
     26       3.6222      0.00000
     27       5.8461      0.00000
     28       6.0249      0.00000
     29       6.2430      0.00000
     30       6.6715      0.00000
     31       6.7364      0.00000
     32       7.3077      0.00000

 k-point   761 :       0.0143    0.5000    0.0143
  band No.  band energies     occupation 
      1     -18.1533      2.00000
      2     -15.1928      2.00000
      3     -15.1710      2.00000
      4     -15.1292      2.00000
      5     -15.1112      2.00000
      6     -15.1078      2.00000
      7     -11.2433      2.00000
      8     -10.7699      2.00000
      9     -10.4714      2.00000
     10     -10.0372      2.00000
     11      -7.7373      2.00000
     12      -7.6766      2.00000
     13      -6.0646      2.00000
     14      -5.8799      2.00000
     15      -3.5838      2.00000
     16      -3.5261      2.00000
     17      -2.1207      2.00000
     18      -1.9339      2.00000
     19      -0.6798      2.00000
     20      -0.3876      2.00000
     21      -0.2313      2.00000
     22       0.1061      2.00000
     23       0.1441      2.00000
     24       0.3840      2.00000
     25       0.5241      2.00000
     26       3.6230      0.00000
     27       5.8491      0.00000
     28       6.0216      0.00000
     29       6.2430      0.00000
     30       6.6759      0.00000
     31       6.7379      0.00000
     32       7.2977      0.00000

 k-point   762 :       0.0107    0.5000    0.0107
  band No.  band energies     occupation 
      1     -18.1533      2.00000
      2     -15.1928      2.00000
      3     -15.1711      2.00000
      4     -15.1292      2.00000
      5     -15.1112      2.00000
      6     -15.1078      2.00000
      7     -11.2433      2.00000
      8     -10.7701      2.00000
      9     -10.4714      2.00000
     10     -10.0370      2.00000
     11      -7.7373      2.00000
     12      -7.6766      2.00000
     13      -6.0634      2.00000
     14      -5.8799      2.00000
     15      -3.5838      2.00000
     16      -3.5259      2.00000
     17      -2.1222      2.00000
     18      -1.9354      2.00000
     19      -0.6789      2.00000
     20      -0.3887      2.00000
     21      -0.2303      2.00000
     22       0.1046      2.00000
     23       0.1447      2.00000
     24       0.3843      2.00000
     25       0.5239      2.00000
     26       3.6236      0.00000
     27       5.8514      0.00000
     28       6.0190      0.00000
     29       6.2430      0.00000
     30       6.6793      0.00000
     31       6.7391      0.00000
     32       7.2931      0.00000

 k-point   763 :       0.0071    0.5000    0.0071
  band No.  band energies     occupation 
      1     -18.1533      2.00000
      2     -15.1929      2.00000
      3     -15.1711      2.00000
      4     -15.1292      2.00000
      5     -15.1112      2.00000
      6     -15.1078      2.00000
      7     -11.2433      2.00000
      8     -10.7703      2.00000
      9     -10.4714      2.00000
     10     -10.0369      2.00000
     11      -7.7373      2.00000
     12      -7.6767      2.00000
     13      -6.0626      2.00000
     14      -5.8799      2.00000
     15      -3.5839      2.00000
     16      -3.5258      2.00000
     17      -2.1233      2.00000
     18      -1.9365      2.00000
     19      -0.6783      2.00000
     20      -0.3895      2.00000
     21      -0.2296      2.00000
     22       0.1035      2.00000
     23       0.1450      2.00000
     24       0.3844      2.00000
     25       0.5237      2.00000
     26       3.6240      0.00000
     27       5.8532      0.00000
     28       6.0170      0.00000
     29       6.2430      0.00000
     30       6.6818      0.00000
     31       6.7400      0.00000
     32       7.2920      0.00000

 k-point   764 :       0.0036    0.5000    0.0036
  band No.  band energies     occupation 
      1     -18.1533      2.00000
      2     -15.1929      2.00000
      3     -15.1711      2.00000
      4     -15.1292      2.00000
      5     -15.1112      2.00000
      6     -15.1078      2.00000
      7     -11.2432      2.00000
      8     -10.7704      2.00000
      9     -10.4714      2.00000
     10     -10.0368      2.00000
     11      -7.7372      2.00000
     12      -7.6767      2.00000
     13      -6.0621      2.00000
     14      -5.8798      2.00000
     15      -3.5839      2.00000
     16      -3.5257      2.00000
     17      -2.1240      2.00000
     18      -1.9371      2.00000
     19      -0.6779      2.00000
     20      -0.3900      2.00000
     21      -0.2292      2.00000
     22       0.1029      2.00000
     23       0.1453      2.00000
     24       0.3846      2.00000
     25       0.5236      2.00000
     26       3.6243      0.00000
     27       5.8542      0.00000
     28       6.0159      0.00000
     29       6.2430      0.00000
     30       6.6832      0.00000
     31       6.7404      0.00000
     32       7.2876      0.00000


--------------------------------------------------------------------------------------------------------


 soft charge-density along one line, spin component           1
         0         1         2         3         4         5         6         7         8         9
 total charge-density along one line
 
 pseudopotential strength for first ion, spin component:           1
 10.443   0.008  -0.000   0.001   0.006   0.000  -0.001  -0.006
  0.008  -0.001   0.000  -0.000  -0.000   0.000  -0.000  -0.000
 -0.000   0.000  -3.984   0.000   0.000  -0.005   0.000  -0.000
  0.001  -0.000   0.000  -3.984  -0.002   0.000  -0.005   0.000
  0.006  -0.000   0.000  -0.002  -3.999  -0.000   0.000  -0.004
  0.000   0.000  -0.005   0.000  -0.000  -1.087   0.000   0.000
 -0.001  -0.000   0.000  -0.005   0.000   0.000  -1.087  -0.000
 -0.006  -0.000  -0.000   0.000  -0.004   0.000  -0.000  -1.088
 total augmentation occupancy for first ion, spin component:           1
  2.000   0.000   0.000   0.000   0.000   0.000   0.000   0.000
  0.000   0.000   0.000   0.000   0.000   0.000   0.000   0.000
  0.000   0.000   0.667   0.000   0.000   0.000   0.000   0.000
  0.000   0.000   0.000   0.667   0.000   0.000   0.000   0.000
  0.000   0.000   0.000   0.000   0.667   0.000   0.000   0.000
  0.000   0.000   0.000   0.000   0.000   0.000   0.000   0.000
  0.000   0.000   0.000   0.000   0.000   0.000   0.000   0.000
  0.000   0.000   0.000   0.000   0.000   0.000   0.000   0.000


------------------------ aborting loop because EDIFF is reached ----------------------------------------


 


 total charge     
 
# of ion     s       p       d       tot
----------------------------------------
  1        0.832   1.782   0.000   2.614
  2        1.212   2.768   0.000   3.979
  3        0.619   0.046   0.000   0.665
  4        0.618   0.046   0.000   0.665
  5        0.618   0.046   0.000   0.665
  6        0.587   0.079   0.000   0.666
  7        0.587   0.079   0.000   0.666
  8        0.583   0.079   0.000   0.662
  9        1.477   0.536   9.836  11.849
 10        1.512   2.792   0.009   4.313
 11        1.512   2.792   0.009   4.314
 12        1.513   2.781   0.008   4.302
------------------------------------------------
tot       11.670  13.828   9.862  35.360
 
    CHARGE:  cpu time    0.12: real time    0.12
    FORLOC:  cpu time    0.03: real time    0.03
    FORNL :  cpu time    1.82: real time    1.82
    STRESS:  cpu time   43.27: real time   43.32
    FORCOR:  cpu time    0.04: real time    0.04
    FORHAR:  cpu time    0.06: real time    0.07
    OFIELD:  cpu time    0.00: real time    0.00

  FORCE on cell =-STRESS in cart. coord.  units (eV):
  Direction    XX          YY          ZZ          XY          YZ          ZX
  --------------------------------------------------------------------------------------
  Alpha Z    42.82368    42.82368    42.82368
  Ewald    -631.85511  -642.25523  -667.21442    -0.07437    -0.09326    21.50540
  Hartree   353.50485   355.88545   340.41831    -0.04948    -0.05747    12.74346
  E(xc)    -197.10645  -197.11385  -197.10903     0.00002    -0.00002    -0.00606
  Local    -625.84624  -614.48485  -575.38158     0.12583     0.14503   -33.84312
  n-local   462.12455   459.13263   459.04306    -0.00169     0.00004     0.35299
  augment    11.57427    11.62253    11.51647    -0.00011     0.00006     0.01723
  Kinetic   583.16943   583.16296   584.93825     0.00099     0.00427    -0.84392
  Fock        0.00000     0.00000     0.00000     0.00000     0.00000     0.00000
  -------------------------------------------------------------------------------------
  Total      -1.61103    -1.22668    -0.96526     0.00121    -0.00135    -0.07402
  in kB     -10.38703    -7.90895    -6.22347     0.00777    -0.00872    -0.47726
  external pressure =       -8.17 kB  Pullay stress =        0.00 kB


 VOLUME and BASIS-vectors are now :
 -----------------------------------------------------------------------------
  energy-cutoff  :      500.00
  volume of cell :      248.50
      direct lattice vectors                 reciprocal lattice vectors
     6.290120125  0.000000000  0.000000000     0.158979476 -0.000001969  0.001001495
     0.000077694  6.273890018  0.000000000     0.000000000  0.159390744  0.000003893
    -0.039667571 -0.000153793  6.296915042     0.000000000  0.000000000  0.158807923

  length of vectors
     6.290120125  6.273890018  6.297039986     0.158982630  0.159390744  0.158807923


 FORCES acting on ions
    electron-ion (+dipol)            ewald-force                    non-local-force                 convergence-correction
 -----------------------------------------------------------------------------------------------
   0.889E+02 -.818E-01 0.171E+02   -.969E+02 0.863E-01 -.179E+02   0.826E+01 -.370E-02 0.927E+00   -.179E-02 0.177E-04 -.222E-03
   -.424E+02 -.776E-02 0.333E+01   0.412E+02 0.321E-02 -.333E+01   0.826E+00 0.178E-02 -.289E-01   0.162E-03 0.105E-03 -.108E-03
   0.171E+02 0.538E-01 0.495E+02   -.184E+02 -.616E-01 -.550E+02   0.133E+01 0.769E-02 0.541E+01   -.181E-03 0.357E-05 -.928E-05
   0.252E+02 -.389E+02 -.176E+02   -.275E+02 0.435E+02 0.200E+02   0.220E+01 -.453E+01 -.238E+01   -.180E-03 -.182E-04 -.365E-04
   0.253E+02 0.388E+02 -.177E+02   -.275E+02 -.434E+02 0.202E+02   0.221E+01 0.451E+01 -.239E+01   -.182E-03 0.241E-04 -.387E-04
   -.270E+02 -.490E+02 0.270E+02   0.300E+02 0.546E+02 -.298E+02   -.291E+01 -.544E+01 0.271E+01   0.249E-03 0.387E-03 -.211E-03
   -.269E+02 0.491E+02 0.269E+02   0.299E+02 -.546E+02 -.296E+02   -.290E+01 0.545E+01 0.269E+01   0.252E-03 -.380E-03 -.216E-03
   -.144E+02 -.751E-01 -.583E+02   0.162E+02 0.820E-01 0.648E+02   -.177E+01 -.670E-02 -.636E+01   0.157E-03 0.117E-04 0.450E-03
   -.315E+02 0.635E-01 -.104E+02   0.304E+02 -.626E-01 0.101E+02   0.104E+01 -.735E-03 0.275E+00   -.454E-03 -.198E-03 0.489E-03
   -.110E+02 0.718E-01 0.415E+01   0.110E+02 -.738E-01 -.408E+01   0.405E-01 0.212E-02 -.637E-01   0.368E-03 -.425E-04 -.204E-03
   -.129E+02 -.220E-01 -.174E+02   0.128E+02 0.215E-01 0.179E+02   0.315E-01 0.398E-03 -.488E+00   0.379E-03 0.456E-04 0.182E-03
   0.163E+01 0.306E-01 -.696E+01   -.112E+01 -.291E-01 0.679E+01   -.532E+00 -.137E-02 0.138E+00   0.236E-04 -.514E-04 0.162E-03
 -----------------------------------------------------------------------------------------------
   -.782E+01 0.194E-02 -.451E+00   -.124E-13 0.122E-14 -.444E-14   0.782E+01 -.187E-02 0.450E+00   -.120E-02 -.946E-04 0.237E-03
 
 
 POSITION                                       TOTAL-FORCE (eV/Angst)
 -----------------------------------------------------------------------------------
      5.63915      6.27350      6.27384         0.314916      0.000802      0.034462
      0.85821      6.27280      0.15665        -0.332222     -0.002660     -0.026644
      5.40518      6.27196      5.19958        -0.019011     -0.000070     -0.051176
      5.26698      0.90190      0.45292        -0.029305      0.044516      0.020055
      5.26573      5.37368      0.45579        -0.029510     -0.045047      0.020478
      1.26776      0.84227      6.03329         0.057713      0.104610     -0.040959
      1.26657      5.42716      6.03557         0.056801     -0.102510     -0.039681
      1.13753     -0.00001      1.16715         0.030622      0.000234      0.117338
      2.97634      3.13707      2.99511         0.002202      0.000003      0.001394
      2.64610      3.13606      6.12444        -0.018240      0.000075      0.000597
      2.72152      0.00020      3.18965        -0.016462     -0.000010     -0.006414
      6.03902      3.13830      2.81942        -0.017502      0.000059     -0.029450
 -----------------------------------------------------------------------------------
    total drift:                               -0.000564     -0.000031     -0.000501


--------------------------------------------------------------------------------------------------------



  FREE ENERGIE OF THE ION-ELECTRON SYSTEM (eV)
  ---------------------------------------------------
  free  energy   TOTEN  =       -54.83381537 eV

  energy  without entropy=      -54.83381537  energy(sigma->0) =      -54.83381537
 


--------------------------------------------------------------------------------------------------------


    POTLOK:  cpu time    0.09: real time    0.09


--------------------------------------------------------------------------------------------------------




--------------------------------------------------------------------------------------------------------


 writing wavefunctions
     LOOP+:  cpu time  163.05: real time  169.89
    4ORBIT:  cpu time    0.00: real time    0.00
 


 total charge     
 
# of ion     s       p       d       tot
----------------------------------------
  1        0.832   1.782   0.000   2.614
  2        1.212   2.768   0.000   3.979
  3        0.619   0.046   0.000   0.665
  4        0.618   0.046   0.000   0.665
  5        0.618   0.046   0.000   0.665
  6        0.587   0.079   0.000   0.666
  7        0.587   0.079   0.000   0.666
  8        0.583   0.079   0.000   0.662
  9        1.477   0.536   9.836  11.849
 10        1.512   2.792   0.009   4.313
 11        1.512   2.792   0.009   4.314
 12        1.513   2.781   0.008   4.302
------------------------------------------------
tot       11.670  13.828   9.862  35.360
 

 total amount of memory used by VASP on root node  4197706. kBytes
========================================================================

   base      :      30000. kBytes
   nonl-proj :    3504132. kBytes
   fftplans  :       8029. kBytes
   grid      :      22450. kBytes
   one-center:        186. kBytes
   wavefun   :     632909. kBytes
 
  
  
 General timing and accounting informations for this job:
 ========================================================
  
                  Total CPU time used (sec):      186.752
                            User time (sec):      179.211
                          System time (sec):        7.541
                         Elapsed time (sec):      195.740
  
                   Maximum memory used (kb):     3895816.
                   Average memory used (kb):           0.
  
                          Minor page faults:      1022673
                          Major page faults:           42
                 Voluntary context switches:         6904
