 vasp.5.4.1 24Jun15 (build Nov 25 2015 16:39:35) complex                        
  
 executed on         CrayXC-Intel date 2016.06.22  00:47:58
 running on  192 total cores
 distrk:  each k-point on  192 cores,    1 groups
 distr:  one band on NCORES_PER_BAND=  24 cores,    8 groups


--------------------------------------------------------------------------------------------------------


 INCAR:
 POTCAR:    PAW_PBE C 08Apr2002                   
 POTCAR:    PAW_PBE N 08Apr2002                   
 POTCAR:    PAW_PBE H 15Jun2001                   
 POTCAR:    PAW_PBE Pb_d 06Sep2000                
 POTCAR:    PAW_PBE I 08Apr2002                   
 POTCAR:    PAW_PBE C 08Apr2002                   
   VRHFIN =C: s2p2                                                              
   LEXCH  = PE                                                                  
   EATOM  =   147.1560 eV,   10.8157 Ry                                         
                                                                                
   TITEL  = PAW_PBE C 08Apr2002                                                 
   LULTRA =        F    use ultrasoft PP ?                                      
   IUNSCR =        1    unscreen: 0-lin 1-nonlin 2-no                           
   RPACOR =    1.200    partial core radius                                     
   POMASS =   12.011; ZVAL   =    4.000    mass and valenz                      
   RCORE  =    1.500    outmost cutoff radius                                   
   RWIGS  =    1.630; RWIGS  =    0.863    wigner-seitz radius (au A)           
   ENMAX  =  400.000; ENMIN  =  300.000 eV                                      
   ICORE  =        2    local potential                                         
   LCOR   =        T    correct aug charges                                     
   LPAW   =        T    paw PP                                                  
   EAUG   =  644.873                                                            
   DEXC   =    0.000                                                            
   RMAX   =    1.529    core radius for proj-oper                               
   RAUG   =    1.300    factor for augmentation sphere                          
   RDEP   =    1.501    radius for radial grids                                 
   RDEPT  =    1.300    core radius for aug-charge                              
                                                                                
   Atomic configuration                                                         
    4 entries                                                                   
     n  l   j            E        occ.                                          
     1  0  0.50      -273.3789   2.0000                                         
     2  0  0.50       -13.7508   2.0000                                         
     2  1  0.50        -5.2854   2.0000                                         
     3  2  1.50        -5.4423   0.0000                                         
   Description                                                                  
     l       E           TYP  RCUT    TYP  RCUT                                 
     0    -13.7508458     23  1.200                                             
     0     -8.2022199     23  1.200                                             
     1     -5.2854383     23  1.500                                             
     1     34.0145650     23  1.500                                             
     2     -5.4423304      7  1.500                                             
  local pseudopotential read in
  partial core-charges read in
  partial kinetic energy density read in
  atomic valenz-charges read in
  non local Contribution for L=           0  read in
    real space projection operators read in
  non local Contribution for L=           0  read in
    real space projection operators read in
  non local Contribution for L=           1  read in
    real space projection operators read in
  non local Contribution for L=           1  read in
    real space projection operators read in
    PAW grid and wavefunctions read in
 
   number of l-projection  operators is LMAX  =           4
   number of lm-projection operators is LMMAX =           8
 
 POTCAR:    PAW_PBE N 08Apr2002                   
   VRHFIN =N: s2p3                                                              
   LEXCH  = PE                                                                  
   EATOM  =   264.5486 eV,   19.4438 Ry                                         
                                                                                
   TITEL  = PAW_PBE N 08Apr2002                                                 
   LULTRA =        F    use ultrasoft PP ?                                      
   IUNSCR =        1    unscreen: 0-lin 1-nonlin 2-no                           
   RPACOR =    1.200    partial core radius                                     
   POMASS =   14.001; ZVAL   =    5.000    mass and valenz                      
   RCORE  =    1.500    outmost cutoff radius                                   
   RWIGS  =    1.400; RWIGS  =    0.741    wigner-seitz radius (au A)           
   ENMAX  =  400.000; ENMIN  =  300.000 eV                                      
   ICORE  =        2    local potential                                         
   LCOR   =        T    correct aug charges                                     
   LPAW   =        T    paw PP                                                  
   EAUG   =  627.112                                                            
   DEXC   =    0.000                                                            
   RMAX   =    1.529    core radius for proj-oper                               
   RAUG   =    1.300    factor for augmentation sphere                          
   RDEP   =    1.514    radius for radial grids                                 
   RDEPT  =    1.338    core radius for aug-charge                              
                                                                                
   Atomic configuration                                                         
    4 entries                                                                   
     n  l   j            E        occ.                                          
     1  0  0.50      -384.7179   2.0000                                         
     2  0  0.50       -18.5828   2.0000                                         
     2  1  0.50        -7.0898   3.0000                                         
     3  2  1.50        -6.8029   0.0000                                         
   Description                                                                  
     l       E           TYP  RCUT    TYP  RCUT                                 
     0    -18.5828119     23  1.200                                             
     0    -13.5018863     23  1.200                                             
     1     -7.0897853     23  1.500                                             
     1      9.5240782     23  1.500                                             
     2     -6.8029130      7  1.500                                             
  local pseudopotential read in
  partial core-charges read in
  partial kinetic energy density read in
  atomic valenz-charges read in
  non local Contribution for L=           0  read in
    real space projection operators read in
  non local Contribution for L=           0  read in
    real space projection operators read in
  non local Contribution for L=           1  read in
    real space projection operators read in
  non local Contribution for L=           1  read in
    real space projection operators read in
    PAW grid and wavefunctions read in
 
   number of l-projection  operators is LMAX  =           4
   number of lm-projection operators is LMMAX =           8
 
 POTCAR:    PAW_PBE H 15Jun2001                   
   VRHFIN =H: ultrasoft test                                                    
   LEXCH  = PE                                                                  
   EATOM  =    12.4884 eV,    0.9179 Ry                                         
                                                                                
   TITEL  = PAW_PBE H 15Jun2001                                                 
   LULTRA =        F    use ultrasoft PP ?                                      
   IUNSCR =        0    unscreen: 0-lin 1-nonlin 2-no                           
   RPACOR =    0.000    partial core radius                                     
   POMASS =    1.000; ZVAL   =    1.000    mass and valenz                      
   RCORE  =    1.100    outmost cutoff radius                                   
   RWIGS  =    0.700; RWIGS  =    0.370    wigner-seitz radius (au A)           
   ENMAX  =  250.000; ENMIN  =  200.000 eV                                      
   RCLOC  =    0.701    cutoff for local pot                                    
   LCOR   =        T    correct aug charges                                     
   LPAW   =        T    paw PP                                                  
   EAUG   =  400.000                                                            
   RMAX   =    1.123    core radius for proj-oper                               
   RAUG   =    1.200    factor for augmentation sphere                          
   RDEP   =    1.112    radius for radial grids                                 
   RDEPT  =    0.926    core radius for aug-charge                              
                                                                                
   Atomic configuration                                                         
    2 entries                                                                   
     n  l   j            E        occ.                                          
     1  0  0.50        -6.4927   1.0000                                         
     2  1  0.50        -3.4015   0.0000                                         
   Description                                                                  
     l       E           TYP  RCUT    TYP  RCUT                                 
     0     -6.4927494     23  1.100                                             
     0      6.8029130     23  1.100                                             
     1     -4.0817478     23  1.100                                             
  local pseudopotential read in
  atomic valenz-charges read in
  non local Contribution for L=           0  read in
    real space projection operators read in
  non local Contribution for L=           0  read in
    real space projection operators read in
  non local Contribution for L=           1  read in
    real space projection operators read in
    PAW grid and wavefunctions read in
 
   number of l-projection  operators is LMAX  =           3
   number of lm-projection operators is LMMAX =           5
 
 POTCAR:    PAW_PBE Pb_d 06Sep2000                
   VRHFIN =Pb:                                                                  
   LEXCH  = PE                                                                  
   EATOM  =  1661.6185 eV,  122.1255 Ry                                         
                                                                                
   TITEL  = PAW_PBE Pb_d 06Sep2000                                              
   LULTRA =        F    use ultrasoft PP ?                                      
   IUNSCR =        1    unscreen: 0-lin 1-nonlin 2-no                           
   RPACOR =    2.200    partial core radius                                     
   POMASS =  207.200; ZVAL   =   14.000    mass and valenz                      
   RCORE  =    2.500    outmost cutoff radius                                   
   RWIGS  =    3.260; RWIGS  =    1.725    wigner-seitz radius (au A)           
   ENMAX  =  237.835; ENMIN  =  178.376 eV                                      
   ICORE  =        3    local potential                                         
   LCOR   =        T    correct aug charges                                     
   LPAW   =        T    paw PP                                                  
   EAUG   =  391.914                                                            
   DEXC   =    0.000                                                            
   RMAX   =    2.565    core radius for proj-oper                               
   RAUG   =    1.300    factor for augmentation sphere                          
   RDEP   =    2.643    radius for radial grids                                 
   RDEPT  =    2.092    core radius for aug-charge                              
                                                                                
   Atomic configuration                                                         
   16 entries                                                                   
     n  l   j            E        occ.                                          
     1  0  0.50    -88091.8466   2.0000                                         
     2  0  0.50    -15753.4197   2.0000                                         
     2  1  1.50    -13508.1797   6.0000                                         
     3  0  0.50     -3781.7194   2.0000                                         
     3  1  1.50     -3138.2529   6.0000                                         
     3  2  2.50     -2483.2977  10.0000                                         
     4  0  0.50      -856.2895   2.0000                                         
     4  1  1.50      -645.4942   6.0000                                         
     4  2  2.50      -401.8768  10.0000                                         
     4  3  3.50      -132.9059  14.0000                                         
     5  0  0.50      -144.0950   2.0000                                         
     5  1  1.50       -85.7879   6.0000                                         
     5  2  2.50       -21.1769  10.0000                                         
     6  0  0.50       -12.0372   2.0000                                         
     6  1  1.50        -3.4971   2.0000                                         
     5  3  2.50        -2.7212   0.0000                                         
   Description                                                                  
     l       E           TYP  RCUT    TYP  RCUT                                 
     2    -21.1768523     23  2.500                                             
     2      1.3605826     23  2.500                                             
     0    -12.0371562     23  2.500                                             
     0     13.6058260     23  2.500                                             
     1     -3.4971339     23  2.500                                             
     1     13.6058260     23  2.500                                             
     3     -1.3605826      7  2.500                                             
  local pseudopotential read in
  partial core-charges read in
  partial kinetic energy density read in
  atomic valenz-charges read in
  non local Contribution for L=           2  read in
    real space projection operators read in
  non local Contribution for L=           2  read in
    real space projection operators read in
  non local Contribution for L=           0  read in
    real space projection operators read in
  non local Contribution for L=           0  read in
    real space projection operators read in
  non local Contribution for L=           1  read in
    real space projection operators read in
  non local Contribution for L=           1  read in
    real space projection operators read in
    PAW grid and wavefunctions read in
 
   number of l-projection  operators is LMAX  =           6
   number of lm-projection operators is LMMAX =          18
 
 POTCAR:    PAW_PBE I 08Apr2002                   
   VRHFIN =I : s2p5                                                             
   LEXCH  = PE                                                                  
   EATOM  =   315.8678 eV,   23.2156 Ry                                         
                                                                                
   TITEL  = PAW_PBE I 08Apr2002                                                 
   LULTRA =        F    use ultrasoft PP ?                                      
   IUNSCR =        1    unscreen: 0-lin 1-nonlin 2-no                           
   RPACOR =    2.200    partial core radius                                     
   POMASS =  126.904; ZVAL   =    7.000    mass and valenz                      
   RCORE  =    2.300    outmost cutoff radius                                   
   RWIGS  =    2.810; RWIGS  =    1.487    wigner-seitz radius (au A)           
   ENMAX  =  175.647; ENMIN  =  131.735 eV                                      
   ICORE  =        3    local potential                                         
   LCOR   =        T    correct aug charges                                     
   LPAW   =        T    paw PP                                                  
   EAUG   =  370.139                                                            
   DEXC   =    0.000                                                            
   RMAX   =    2.359    core radius for proj-oper                               
   RAUG   =    1.300    factor for augmentation sphere                          
   RDEP   =    2.392    radius for radial grids                                 
   RDEPT  =    2.170    core radius for aug-charge                              
                                                                                
   Atomic configuration                                                         
   13 entries                                                                   
     n  l   j            E        occ.                                          
     1  0  0.50    -32976.3739   2.0000                                         
     2  0  0.50     -5094.5933   2.0000                                         
     2  1  1.50     -4572.0131   6.0000                                         
     3  0  0.50     -1028.2813   2.0000                                         
     3  1  1.50      -859.0250   6.0000                                         
     3  2  2.50      -605.7620  10.0000                                         
     4  0  0.50      -180.5540   2.0000                                         
     4  1  1.50      -127.5306   6.0000                                         
     4  2  2.50       -50.2720  10.0000                                         
     5  0  0.50       -17.4058   2.0000                                         
     5  1  0.50        -7.0851   5.0000                                         
     5  2  1.50        -7.0750   0.0000                                         
     4  3  2.50        -7.0750   0.0000                                         
   Description                                                                  
     l       E           TYP  RCUT    TYP  RCUT                                 
     0    -17.4058016     23  2.300                                             
     0    -18.7663842     23  2.300                                             
     1     -7.0850686     23  2.300                                             
     1     -4.2150896     23  2.300                                             
     2     -7.0750295     23  2.300                                             
     3     -1.3605826     23  2.300                                             
  local pseudopotential read in
  partial core-charges read in
  partial kinetic energy density read in
  atomic valenz-charges read in
  non local Contribution for L=           0  read in
    real space projection operators read in
  non local Contribution for L=           0  read in
    real space projection operators read in
  non local Contribution for L=           1  read in
    real space projection operators read in
  non local Contribution for L=           1  read in
    real space projection operators read in
  non local Contribution for L=           2  read in
    real space projection operators read in
    PAW grid and wavefunctions read in
 
   number of l-projection  operators is LMAX  =           5
   number of lm-projection operators is LMMAX =          13
 

 ----------------------------------------------------------------------------- 
|                                                                             |
|  ADVICE TO THIS USER RUNNING 'VASP/VAMP'   (HEAR YOUR MASTER'S VOICE ...):  |
|                                                                             |
|      You have a (more or less) 'large supercell' and for larger cells       |
|      it might be more efficient to use real space projection opertators     |
|      So try LREAL= Auto  in the INCAR   file.                               |
|      Mind: At the moment your POTCAR file does not contain real space       |
|       projectors, and has to be modified,  BUT if you                       |
|      want to do an extremely  accurate calculation you might also keep the  |
|      reciprocal projection scheme          (i.e. LREAL=.FALSE.)             |
|                                                                             |
 ----------------------------------------------------------------------------- 


 ----------------------------------------------------------------------------- 
|                                                                             |
|  ADVICE TO THIS USER RUNNING 'VASP/VAMP'   (HEAR YOUR MASTER'S VOICE ...):  |
|                                                                             |
|      You enforced a specific xc-type in the INCAR file,                     |
|      a different type was found on the POTCAR file                          |
|          I HOPE YOU KNOW, WHAT YOU ARE  DOING                               |
|                                                                             |
 ----------------------------------------------------------------------------- 

  PAW_PBE C 08Apr2002                   :
 energy of atom  1       EATOM= -147.1560
 kinetic energy error for atom=    0.0032 (will be added to EATOM!!)
  PAW_PBE N 08Apr2002                   :
 energy of atom  2       EATOM= -264.5486
 kinetic energy error for atom=    0.0061 (will be added to EATOM!!)
  PAW_PBE H 15Jun2001                   :
 energy of atom  3       EATOM=  -12.4884
 kinetic energy error for atom=    0.0002 (will be added to EATOM!!)
  PAW_PBE Pb_d 06Sep2000                :
 energy of atom  4       EATOM=-1661.6185
 kinetic energy error for atom=    0.0012 (will be added to EATOM!!)
  PAW_PBE I 08Apr2002                   :
 energy of atom  5       EATOM= -315.8678
 kinetic energy error for atom=    0.0003 (will be added to EATOM!!)
 
 
 POSCAR: C N H Pb I                              
  positions in direct lattice
  No initial velocities read in
 exchange correlation table for  LEXCH =       14
   RHO(1)=    0.500       N(1)  =     2000
   RHO(2)=  100.500       N(2)  =     4000
 


--------------------------------------------------------------------------------------------------------


 ion  position               nearest neighbor table
   1  0.203  0.250  0.219-  33 1.10  25 1.10  17 1.10   9 1.49
   2  0.691  0.250  0.239-  34 1.10  26 1.10  18 1.10  10 1.49
   3  0.191  0.750  0.239-  35 1.10  27 1.10  19 1.10  11 1.49
   4  0.703  0.750  0.219-  36 1.10  28 1.10  20 1.10  12 1.49
   5  0.203  0.250  0.719-  37 1.10  29 1.10  21 1.10  13 1.49
   6  0.691  0.250  0.739-  38 1.10  30 1.10  22 1.10  14 1.49
   7  0.191  0.750  0.739-  39 1.10  31 1.10  23 1.10  15 1.49
   8  0.703  0.750  0.719-  40 1.10  32 1.10  24 1.10  16 1.49
   9  0.306  0.250  0.274-  57 1.04  41 1.05  49 1.05   1 1.49
  10  0.803  0.250  0.273-  42 1.05  50 1.05  58 1.05   2 1.49
  11  0.303  0.750  0.273-  43 1.05  51 1.05  59 1.05   3 1.49
  12  0.806  0.750  0.274-  60 1.04  44 1.05  52 1.05   4 1.49
  13  0.306  0.250  0.774-  61 1.04  45 1.05  53 1.05   5 1.49
  14  0.803  0.250  0.773-  46 1.05  54 1.05  62 1.05   6 1.49
  15  0.303  0.750  0.773-  47 1.05  55 1.05  63 1.05   7 1.49
  16  0.806  0.750  0.774-  64 1.04  48 1.05  56 1.05   8 1.49
  17  0.220  0.250  0.134-   1 1.10
  18  0.690  0.250  0.152-   2 1.10
  19  0.190  0.750  0.152-   3 1.10
  20  0.720  0.750  0.134-   4 1.10
  21  0.220  0.250  0.634-   5 1.10
  22  0.690  0.250  0.652-   6 1.10
  23  0.190  0.750  0.652-   7 1.10
  24  0.720  0.750  0.634-   8 1.10
  25  0.158  0.322  0.242-   1 1.10
  26  0.650  0.322  0.269-   2 1.10
  27  0.150  0.822  0.269-   3 1.10
  28  0.658  0.822  0.242-   4 1.10
  29  0.158  0.322  0.742-   5 1.10
  30  0.650  0.322  0.769-   6 1.10
  31  0.150  0.822  0.769-   7 1.10
  32  0.658  0.822  0.742-   8 1.10
  33  0.158  0.177  0.242-   1 1.10
  34  0.651  0.177  0.270-   2 1.10
  35  0.151  0.677  0.270-   3 1.10
  36  0.658  0.677  0.242-   4 1.10
  37  0.158  0.177  0.742-   5 1.10
  38  0.651  0.177  0.770-   6 1.10
  39  0.151  0.677  0.770-   7 1.10
  40  0.658  0.677  0.742-   8 1.10
  41  0.352  0.318  0.255-   9 1.05
  42  0.844  0.318  0.246-  10 1.05
  43  0.344  0.818  0.246-  11 1.05
  44  0.852  0.818  0.255-  12 1.05
  45  0.352  0.318  0.755-  13 1.05
  46  0.844  0.318  0.746-  14 1.05
  47  0.344  0.818  0.746-  15 1.05
  48  0.852  0.818  0.755-  16 1.05
  49  0.352  0.182  0.256-   9 1.05
  50  0.844  0.182  0.246-  10 1.05
  51  0.344  0.682  0.246-  11 1.05
  52  0.852  0.682  0.256-  12 1.05
  53  0.352  0.182  0.756-  13 1.05
  54  0.844  0.182  0.746-  14 1.05
  55  0.344  0.682  0.746-  15 1.05
  56  0.852  0.682  0.756-  16 1.05
  57  0.296  0.250  0.356-   9 1.04
  58  0.810  0.250  0.355-  10 1.05
  59  0.310  0.750  0.355-  11 1.05
  60  0.796  0.750  0.356-  12 1.04
  61  0.296  0.250  0.856-  13 1.04
  62  0.810  0.250  0.855-  14 1.05
  63  0.310  0.750  0.855-  15 1.05
  64  0.796  0.750  0.856-  16 1.04
  65  0.472  0.501  0.489-  90 3.09  85 3.14  87 3.16  77 3.17  73 3.22  89 3.26
  66  0.972  0.499  0.489-  89 3.09  88 3.14  86 3.17  78 3.17  74 3.22  90 3.26
  67  0.472  0.999  0.489-  92 3.09  85 3.14  87 3.17  79 3.17  75 3.22  91 3.26
  68  0.972  0.001  0.489-  91 3.09  88 3.14  86 3.16  80 3.17  76 3.22  92 3.26
  69  0.472  0.501  0.989-  94 3.09  81 3.14  83 3.16  73 3.17  77 3.22  93 3.26
  70  0.972  0.499  0.989-  93 3.09  84 3.14  82 3.17  74 3.17  78 3.22  94 3.26
  71  0.472  0.999  0.989-  96 3.09  81 3.14  83 3.17  75 3.17  79 3.22  95 3.26
  72  0.972  0.001  0.989-  95 3.09  84 3.14  82 3.16  76 3.17  80 3.22  96 3.26
  73  0.455  0.501  0.238-  69 3.17  65 3.22
  74  0.955  0.499  0.238-  70 3.17  66 3.22
  75  0.455  0.999  0.238-  71 3.17  67 3.22
  76  0.955  0.001  0.238-  72 3.17  68 3.22
  77  0.455  0.501  0.738-  65 3.17  69 3.22
  78  0.955  0.499  0.738-  66 3.17  70 3.22
  79  0.455  0.999  0.738-  67 3.17  71 3.22
  80  0.955  0.001  0.738-  68 3.17  72 3.22
  81  0.470  0.250  0.008-  71 3.14  69 3.14
  82  0.930  0.250  0.016-  72 3.16  70 3.17
  83  0.430  0.750  0.016-  69 3.16  71 3.17
  84  0.970  0.750  0.008-  70 3.14  72 3.14
  85  0.470  0.250  0.508-  67 3.14  65 3.14
  86  0.930  0.250  0.516-  68 3.16  66 3.17
  87  0.430  0.750  0.516-  65 3.16  67 3.17
  88  0.970  0.750  0.508-  66 3.14  68 3.14
  89  0.216  0.476  0.461-  66 3.09  65 3.26
  90  0.716  0.524  0.461-  65 3.09  66 3.26
  91  0.216  0.024  0.461-  68 3.09  67 3.26
  92  0.716  0.976  0.461-  67 3.09  68 3.26
  93  0.216  0.476  0.961-  70 3.09  69 3.26
  94  0.716  0.524  0.961-  69 3.09  70 3.26
  95  0.216  0.024  0.961-  72 3.09  71 3.26
  96  0.716  0.976  0.961-  71 3.09  72 3.26
 
  LATTYP: Found a triclinic cell.
 ALAT       =    17.8238589327
 B/A-ratio  =     0.6989248630
 C/A-ratio  =     1.0156975818
 COS(alpha) =     0.0001355172
 COS(beta)  =     0.5146378593
 COS(gamma) =     0.6988877578
  
  Lattice vectors:
  
 A1 = (  -0.1406063366, -12.4576271275, -12.7466742118)
 A2 = (  -0.0011956322, -12.4575380825,   0.0007464135)
 A3 = ( -12.7162481321,  -0.0020049566, -12.8856194186)


Analysis of symmetry for initial positions (statically):
=====================================================================
 Subroutine PRICEL returns following result:
 
  LATTYP: Found a triclinic cell.
 ALAT       =     8.8502626515
 B/A-ratio  =     1.4075896561
 C/A-ratio  =     0.7202149489
 COS(alpha) =     0.0000518785
 COS(beta)  =     0.0156138721
 COS(gamma) =     0.7036188608
  
  Lattice vectors:
  
 A1 = (  -6.2878208978,   6.2278110854,  -0.0694726034)
 A2 = (   0.0011956322,  12.4575380825,  -0.0007464135)
 A3 = (  -0.0697053522,  -0.0000445225,  -6.3737103126)
 
   4 primitive cells build up your supercell.
 

 Routine SETGRP: Setting up the symmetry group for a 
 triclinic supercell.


 Subroutine GETGRP returns: Found  1 space group operations
 (whereof  1 operations were pure point group operations)
 out of a pool of  2 trial point group operations.


The static configuration has the point symmetry C_1 .


Analysis of symmetry for dynamics (positions and initial velocities):
=====================================================================
 Subroutine PRICEL returns following result:
 
  LATTYP: Found a triclinic cell.
 ALAT       =     8.8502626515
 B/A-ratio  =     1.4075896561
 C/A-ratio  =     0.7202149489
 COS(alpha) =     0.0000518785
 COS(beta)  =     0.0156138721
 COS(gamma) =     0.7036188608
  
  Lattice vectors:
  
 A1 = (  -6.2878208978,   6.2278110854,  -0.0694726034)
 A2 = (   0.0011956322,  12.4575380825,  -0.0007464135)
 A3 = (  -0.0697053522,  -0.0000445225,  -6.3737103126)
 
   4 primitive cells build up your supercell.
 

 Routine SETGRP: Setting up the symmetry group for a 
 triclinic supercell.


 Subroutine GETGRP returns: Found  1 space group operations
 (whereof  1 operations were pure point group operations)
 out of a pool of  2 trial point group operations.


The dynamic configuration has the point symmetry C_1 .


Analysis of structural, dynamic, and magnetic symmetry:
=====================================================================
 Subroutine PRICEL returns following result:
 
  LATTYP: Found a triclinic cell.
 ALAT       =     8.8502626515
 B/A-ratio  =     1.4075896561
 C/A-ratio  =     0.7202149489
 COS(alpha) =     0.0000518785
 COS(beta)  =     0.0156138721
 COS(gamma) =     0.7036188608
  
  Lattice vectors:
  
 A1 = (  -6.2878208978,   6.2278110854,  -0.0694726034)
 A2 = (   0.0011956322,  12.4575380825,  -0.0007464135)
 A3 = (  -0.0697053522,  -0.0000445225,  -6.3737103126)
 
   4 primitive cells build up your supercell.
 

 Routine SETGRP: Setting up the symmetry group for a 
 triclinic supercell.


 Subroutine GETGRP returns: Found  1 space group operations
 (whereof  1 operations were pure point group operations)
 out of a pool of  2 trial point group operations.


The (compounded) configuration has the point symmetry C_1 .


 Subroutine INISYM returns: Found  1 space group operations
 (whereof  1 operations are pure point group operations),
 and found     4 'primitive' translations

 
 
 KPOINTS: Automatic 3x3x3                         

Automatic generation of k-mesh.
Space group operators:
 irot       det(A)        alpha          n_x          n_y          n_z        tau_x        tau_y        tau_z
    1     1.000000     0.000000     1.000000     0.000000     0.000000     0.000000     0.000000     0.000000
 
 Subroutine IBZKPT returns following result:
 ===========================================
 
 Found     27 irreducible k-points:
 
 Following reciprocal coordinates:
            Coordinates               Weight
  0.000000  0.000000  0.000000      1.000000
  0.333333 -0.000000 -0.000000      1.000000
 -0.333333  0.000000  0.000000      1.000000
  0.000000  0.333333 -0.000000      1.000000
  0.333333  0.333333  0.000000      1.000000
 -0.333333  0.333333  0.000000      1.000000
 -0.000000 -0.333333  0.000000      1.000000
  0.333333 -0.333333 -0.000000      1.000000
 -0.333333 -0.333333 -0.000000      1.000000
  0.000000  0.000000  0.333333      1.000000
  0.333333  0.000000  0.333333      1.000000
 -0.333333  0.000000  0.333333      1.000000
  0.000000  0.333333  0.333333      1.000000
  0.333333  0.333333  0.333333      1.000000
 -0.333333  0.333333  0.333333      1.000000
  0.000000 -0.333333  0.333333      1.000000
  0.333333 -0.333333  0.333333      1.000000
 -0.333333 -0.333333  0.333333      1.000000
  0.000000  0.000000 -0.333333      1.000000
  0.333333 -0.000000 -0.333333      1.000000
 -0.333333 -0.000000 -0.333333      1.000000
 -0.000000  0.333333 -0.333333      1.000000
  0.333333  0.333333 -0.333333      1.000000
 -0.333333  0.333333 -0.333333      1.000000
 -0.000000 -0.333333 -0.333333      1.000000
  0.333333 -0.333333 -0.333333      1.000000
 -0.333333 -0.333333 -0.333333      1.000000
 
 Following cartesian coordinates:
            Coordinates               Weight
  0.000000  0.000000  0.000000      1.000000
  0.026507 -0.000003 -0.000290      1.000000
 -0.026507  0.000003  0.000290      1.000000
 -0.000004  0.026758 -0.000000      1.000000
  0.026503  0.026755 -0.000290      1.000000
 -0.026511  0.026760  0.000290      1.000000
  0.000004 -0.026758  0.000000      1.000000
  0.026511 -0.026760 -0.000290      1.000000
 -0.026503 -0.026755  0.000290      1.000000
 -0.000287  0.000002  0.026152      1.000000
  0.026220 -0.000001  0.025862      1.000000
 -0.026794  0.000004  0.026442      1.000000
 -0.000291  0.026759  0.026152      1.000000
  0.026215  0.026757  0.025862      1.000000
 -0.026798  0.026762  0.026442      1.000000
 -0.000283 -0.026756  0.026152      1.000000
  0.026224 -0.026759  0.025862      1.000000
 -0.026790 -0.026753  0.026442      1.000000
  0.000287 -0.000002 -0.026152      1.000000
  0.026794 -0.000004 -0.026442      1.000000
 -0.026220  0.000001 -0.025862      1.000000
  0.000283  0.026756 -0.026152      1.000000
  0.026790  0.026753 -0.026442      1.000000
 -0.026224  0.026759 -0.025862      1.000000
  0.000291 -0.026759 -0.026152      1.000000
  0.026798 -0.026762 -0.026442      1.000000
 -0.026215 -0.026757 -0.025862      1.000000
 


--------------------------------------------------------------------------------------------------------




 Dimension of arrays:
   k-points           NKPTS =     27   k-points in BZ     NKDIM =     27   number of bands    NBANDS=    600
   number of dos      NEDOS =    301   number of ions     NIONS =     96
   non local maximal  LDIM  =      6   non local SUM 2l+1 LMDIM =     18
   total plane-waves  NPLWV = ******
   max r-space proj   IRMAX =      1   max aug-charges    IRDMAX= 314103
   dimension x,y,z NGX =   112 NGY =  108 NGZ =  112
   dimension x,y,z NGXF=   224 NGYF=  216 NGZF=  224
   support grid    NGXF=   448 NGYF=  432 NGZF=  448
   ions per type =               8   8  48   8  24
 NGX,Y,Z   is equivalent  to a cutoff of  14.80, 14.41, 14.61 a.u.
 NGXF,Y,Z  is equivalent  to a cutoff of  29.61, 28.83, 29.21 a.u.


 I would recommend the setting:
   dimension x,y,z NGX =   109 NGY =  107 NGZ =  110
 SYSTEM =  MAPbI3-Cubic                            
 POSCAR =  C N H Pb I                              

 Startparameter for this run:
   NWRITE =      2    write-flag & timer
   PREC   = accura    normal or accurate (medium, high low for compatibility)
   ISTART =      0    job   : 0-new  1-cont  2-samecut
   ICHARG =      2    charge: 1-file 2-atom 10-const
   ISPIN  =      1    spin polarized calculation?
   LNONCOLLINEAR =      T non collinear calculations
   LSORBIT =      T    spin-orbit coupling
   INIWAV =      1    electr: 0-lowe 1-rand  2-diag
   LASPH  =      F    aspherical Exc in radial PAW
   METAGGA=      F    non-selfconsistent MetaGGA calc.

 Electronic Relaxation 1
   ENCUT  =  700.0 eV  51.45 Ry    7.17 a.u.  27.13 26.87 27.50*2*pi/ulx,y,z
   ENINI  =  700.0     initial cutoff
   ENAUG  =  644.9 eV  augmentation charge cutoff
   NELM   =     60;   NELMIN=  2; NELMDL= -5     # of ELM steps 
   EDIFF  = 0.1E-07   stopping-criterion for ELM
   LREAL  =      F    real-space projection
   NLSPLINE    = F    spline interpolate recip. space projectors
   LCOMPAT=      F    compatible to vasp.4.4
   GGA_COMPAT  = T    GGA compatible to vasp.4.4-vasp.4.6
   LMAXPAW     = -100 max onsite density
   LMAXMIX     =    2 max onsite mixed and CHGCAR
   VOSKOWN=      0    Vosko Wilk Nusair interpolation
   ROPT   =    0.00000   0.00000   0.00000   0.00000
   ROPT   =    0.00000
 Ionic relaxation
   EDIFFG = 0.1E-06   stopping-criterion for IOM
   NSW    =      0    number of steps for IOM
   NBLOCK =      1;   KBLOCK =      1    inner block; outer block 
   IBRION =     -1    ionic relax: 0-MD 1-quasi-New 2-CG
   NFREE  =      0    steps in history (QN), initial steepest desc. (CG)
   ISIF   =      2    stress and relaxation
   IWAVPR =     10    prediction:  0-non 1-charg 2-wave 3-comb
   ISYM   =      2    0-nonsym 1-usesym 2-fastsym
   LCORR  =      T    Harris-Foulkes like correction to forces

   POTIM  = 0.5000    time-step for ionic-motion
   TEIN   =    0.0    initial temperature
   TEBEG  =    0.0;   TEEND  =   0.0 temperature during run
   SMASS  =  -3.00    Nose mass-parameter (am)
   estimated Nose-frequenzy (Omega)   =  0.10E-29 period in steps =****** mass=  -0.362E-26a.u.
   SCALEE = 1.0000    scale energy and forces
   NPACO  =    256;   APACO  = 16.0  distance and # of slots for P.C.
   PSTRESS=    0.0 pullay stress

  Mass of Ions in am
   POMASS =  12.01 14.00  1.00207.20126.90
  Ionic Valenz
   ZVAL   =   4.00  5.00  1.00 14.00  7.00
  Atomic Wigner-Seitz radii
   RWIGS  =  -1.00 -1.00 -1.00 -1.00 -1.00
  virtual crystal weights 
   VCA    =   1.00  1.00  1.00  1.00  1.00
   NELECT =     400.0000    total number of electrons
   NUPDOWN=      -1.0000    fix difference up-down

 DOS related values:
   EMIN   =  10.00;   EMAX   =-10.00  energy-range for DOS
   EFERMI =   0.00
   ISMEAR =     0;   SIGMA  =   0.00  broadening in eV -4-tet -1-fermi 0-gaus

 Electronic relaxation 2 (details)
   IALGO  =     38    algorithm
   LDIAG  =      T    sub-space diagonalisation (order eigenvalues)
   LSUBROT=      F    optimize rotation matrix (better conditioning)
   TURBO    =      0    0=normal 1=particle mesh
   IRESTART =      0    0=no restart 2=restart with 2 vectors
   NREBOOT  =      0    no. of reboots
   NMIN     =      0    reboot dimension
   EREF     =   0.00    reference energy to select bands
   IMIX   =      4    mixing-type and parameters
     AMIX     =   0.40;   BMIX     =  1.00
     AMIX_MAG =   1.60;   BMIX_MAG =  1.00
     AMIN     =   0.10
     WC   =   100.;   INIMIX=   1;  MIXPRE=   1;  MAXMIX= -45

 Intra band minimization:
   WEIMIN = 0.0000     energy-eigenvalue tresh-hold
   EBREAK =  0.42E-11  absolut break condition
   DEPER  =   0.30     relativ break condition  

   TIME   =   0.40     timestep for ELM

  volume/ion in A,a.u.               =      20.80       140.38
  Fermi-wavevector in a.u.,A,eV,Ry     =   0.957863  1.810099 12.483376  0.917502
  Thomas-Fermi vector in A             =   2.086919
 
 Write flags
   LWAVE  =      F    write WAVECAR
   LCHARG =      F    write CHGCAR
   LVTOT  =      F    write LOCPOT, total local potential
   LVHAR  =      F    write LOCPOT, Hartree potential only
   LELF   =      F    write electronic localiz. function (ELF)
   LORBIT =      0    0 simple, 1 ext, 2 COOP (PROOUT)


 Dipole corrections
   LMONO  =      F    monopole corrections only (constant potential shift)
   LDIPOL =      F    correct potential (dipole corrections)
   IDIPOL =      0    1-x, 2-y, 3-z, 4-all directions 
   EPSILON=  1.0000000 bulk dielectric constant

 Core level calculations are selected ICORELEVEL =  1
 Exchange correlation treatment:
   GGA     =    PS    GGA type
   LEXCH   =    14    internal setting for exchange type
   VOSKOWN=      0    Vosko Wilk Nusair interpolation
   LHFCALC =     F    Hartree Fock is set to
   LHFONE  =     F    Hartree Fock one center treatment
   AEXX    =    0.0000 exact exchange contribution

 Linear response parameters
   LEPSILON=     F    determine dielectric tensor
   LRPA    =     F    only Hartree local field effects (RPA)
   LNABLA  =     F    use nabla operator in PAW spheres
   LVEL    =     F    velocity operator in full k-point grid
   LINTERFAST=   F  fast interpolation
   KINTER  =     0    interpolate to denser k-point grid
   CSHIFT  =0.1000    complex shift for real part using Kramers Kronig
   OMEGAMAX=  -1.0    maximum frequency
   DEG_THRESHOLD= 0.2000000E-02 threshold for treating states as degnerate
   RTIME   =    0.100 relaxation time in fs

 Orbital magnetization related:
   ORBITALMAG=     F  switch on orbital magnetization
   LCHIMAG   =     F  perturbation theory with respect to B field
   DQ        =  0.001000  dq finite difference perturbation B field



--------------------------------------------------------------------------------------------------------


 Static calculation
 charge density and potential will be updated during run
 non collinear spin polarized calculation
 Variant of blocked Davidson
 Davidson routine will perform the subspace rotation
 perform sub-space diagonalisation
    after iterative eigenvector-optimisation
 modified Broyden-mixing scheme, WC =      100.0
 initial mixing is a Kerker type mixing with AMIX =  0.4000 and BMIX =      1.0000
 Hartree-type preconditioning will be used
 using additional bands          400
 reciprocal scheme for non local part
 use partial core corrections
 calculate Harris-corrections to forces 
   (improved forces if not selfconsistent)
 use gradient corrections 
 use of overlap-Matrix (Vanderbilt PP)
 Gauss-broadening in eV      SIGMA  =   0.00


--------------------------------------------------------------------------------------------------------


  energy-cutoff  :      700.00
  volume of cell :     1996.98
      direct lattice vectors                 reciprocal lattice vectors
    12.576837428  0.001915912  0.138198793     0.079520802 -0.000007684 -0.000869670
     0.001195632 12.457538083 -0.000746413    -0.000012224  0.080272684 -0.000000427
     0.139410704  0.000089045 12.747420625    -0.000862111  0.000004784  0.078456671

  length of vectors
    12.577596840 12.457538162 12.748182927     0.079525558  0.080272685  0.078461408


 
 k-points in units of 2pi/SCALE and weight: Automatic 3x3x3                         
   0.00000000  0.00000000  0.00000000       0.037
   0.02650693 -0.00000256 -0.00028989       0.037
  -0.02650693  0.00000256  0.00028989       0.037
  -0.00000407  0.02675756 -0.00000014       0.037
   0.02650286  0.02675500 -0.00029003       0.037
  -0.02651101  0.02676012  0.00028975       0.037
   0.00000407 -0.02675756  0.00000014       0.037
   0.02651101 -0.02676012 -0.00028975       0.037
  -0.02650286 -0.02675500  0.00029003       0.037
  -0.00028737  0.00000159  0.02615222       0.037
   0.02621956 -0.00000097  0.02586233       0.037
  -0.02679430  0.00000416  0.02644211       0.037
  -0.00029144  0.02675916  0.02615208       0.037
   0.02621549  0.02675659  0.02586219       0.037
  -0.02679838  0.02676172  0.02644197       0.037
  -0.00028330 -0.02675597  0.02615237       0.037
   0.02622364 -0.02675853  0.02586248       0.037
  -0.02679023 -0.02675341  0.02644226       0.037
   0.00028737 -0.00000159 -0.02615222       0.037
   0.02679430 -0.00000416 -0.02644211       0.037
  -0.02621956  0.00000097 -0.02586233       0.037
   0.00028330  0.02675597 -0.02615237       0.037
   0.02679023  0.02675341 -0.02644226       0.037
  -0.02622364  0.02675853 -0.02586248       0.037
   0.00029144 -0.02675916 -0.02615208       0.037
   0.02679838 -0.02676172 -0.02644197       0.037
  -0.02621549 -0.02675659 -0.02586219       0.037
 
 k-points in reciprocal lattice and weights: Automatic 3x3x3                         
   0.00000000  0.00000000  0.00000000       0.037
   0.33333333 -0.00000000 -0.00000000       0.037
  -0.33333333  0.00000000  0.00000000       0.037
   0.00000000  0.33333333 -0.00000000       0.037
   0.33333333  0.33333333  0.00000000       0.037
  -0.33333333  0.33333333  0.00000000       0.037
  -0.00000000 -0.33333333  0.00000000       0.037
   0.33333333 -0.33333333 -0.00000000       0.037
  -0.33333333 -0.33333333 -0.00000000       0.037
   0.00000000  0.00000000  0.33333333       0.037
   0.33333333  0.00000000  0.33333333       0.037
  -0.33333333  0.00000000  0.33333333       0.037
   0.00000000  0.33333333  0.33333333       0.037
   0.33333333  0.33333333  0.33333333       0.037
  -0.33333333  0.33333333  0.33333333       0.037
   0.00000000 -0.33333333  0.33333333       0.037
   0.33333333 -0.33333333  0.33333333       0.037
  -0.33333333 -0.33333333  0.33333333       0.037
   0.00000000  0.00000000 -0.33333333       0.037
   0.33333333 -0.00000000 -0.33333333       0.037
  -0.33333333 -0.00000000 -0.33333333       0.037
  -0.00000000  0.33333333 -0.33333333       0.037
   0.33333333  0.33333333 -0.33333333       0.037
  -0.33333333  0.33333333 -0.33333333       0.037
  -0.00000000 -0.33333333 -0.33333333       0.037
   0.33333333 -0.33333333 -0.33333333       0.037
  -0.33333333 -0.33333333 -0.33333333       0.037
 
 position of ions in fractional coordinates (direct lattice) 
   0.20336226  0.24993483  0.21899715
   0.69062601  0.24988172  0.23883356
   0.19062601  0.74988172  0.23883356
   0.70336226  0.74993483  0.21899715
   0.20336226  0.24993483  0.71899715
   0.69062601  0.24988172  0.73883356
   0.19062601  0.74988172  0.73883356
   0.70336226  0.74993483  0.71899715
   0.30628967  0.25002379  0.27444530
   0.80278477  0.24998349  0.27332329
   0.30278477  0.74998349  0.27332329
   0.80628967  0.75002379  0.27444530
   0.30628967  0.25002379  0.77444530
   0.80278477  0.24998349  0.77332329
   0.30278477  0.74998349  0.77332329
   0.80628967  0.75002379  0.77444530
   0.22005935  0.24982025  0.13357298
   0.69009098  0.24982194  0.15220427
   0.19009098  0.74982194  0.15220427
   0.72005935  0.74982025  0.13357298
   0.22005935  0.24982025  0.63357298
   0.69009098  0.24982194  0.65220427
   0.19009098  0.74982194  0.65220427
   0.72005935  0.74982025  0.63357298
   0.15831810  0.32245125  0.24161882
   0.65035751  0.32225312  0.26941181
   0.15035751  0.82225312  0.26941181
   0.65831810  0.82245125  0.24161882
   0.15831810  0.32245125  0.74161882
   0.65035751  0.32225312  0.76941181
   0.15035751  0.82225312  0.76941181
   0.65831810  0.82245125  0.74161882
   0.15838270  0.17746086  0.24180116
   0.65050296  0.17749128  0.26950025
   0.15050296  0.67749128  0.26950025
   0.65838270  0.67746086  0.24180116
   0.15838270  0.17746086  0.74180116
   0.65050296  0.17749128  0.76950025
   0.15050296  0.67749128  0.76950025
   0.65838270  0.67746086  0.74180116
   0.35190339  0.31808666  0.25549137
   0.84436577  0.31766190  0.24602162
   0.34436577  0.81766190  0.24602162
   0.85190339  0.81808666  0.25549137
   0.35190339  0.31808666  0.75549137
   0.84436577  0.31766190  0.74602162
   0.34436577  0.81766190  0.74602162
   0.85190339  0.81808666  0.75549137
   0.35193485  0.18190164  0.25567475
   0.84447575  0.18230814  0.24610705
   0.34447575  0.68230814  0.24610705
   0.85193485  0.68190164  0.25567475
   0.35193485  0.18190164  0.75567475
   0.84447575  0.18230814  0.74610705
   0.34447575  0.68230814  0.74610705
   0.85193485  0.68190164  0.75567475
   0.29601872  0.25014857  0.35589296
   0.81032143  0.25003847  0.35532553
   0.31032143  0.75003847  0.35532553
   0.79601872  0.75014857  0.35589296
   0.29601872  0.25014857  0.85589296
   0.81032143  0.25003847  0.85532553
   0.31032143  0.75003847  0.85532553
   0.79601872  0.75014857  0.85589296
   0.47244736  0.50102822  0.48881006
   0.97243619  0.49895136  0.48881283
   0.47243619  0.99895136  0.48881283
   0.97244736  0.00102822  0.48881006
   0.47244736  0.50102822  0.98881006
   0.97243619  0.49895136  0.98881283
   0.47243619  0.99895136  0.98881283
   0.97244736  0.00102822  0.98881006
   0.45475915  0.50054398  0.23756945
   0.95472820  0.49943812  0.23757603
   0.45472820  0.99943812  0.23757603
   0.95475915  0.00054398  0.23756945
   0.45475915  0.50054398  0.73756945
   0.95472820  0.49943812  0.73757603
   0.45472820  0.99943812  0.73757603
   0.95475915  0.00054398  0.73756945
   0.46963892  0.24997506  0.00807310
   0.92963196  0.24998296  0.01559134
   0.42963196  0.74998296  0.01559134
   0.96963892  0.74997506  0.00807310
   0.46963892  0.24997506  0.50807310
   0.92963196  0.24998296  0.51559134
   0.42963196  0.74998296  0.51559134
   0.96963892  0.74997506  0.50807310
   0.21617627  0.47612194  0.46123970
   0.71616661  0.52387293  0.46123971
   0.21616661  0.02387293  0.46123971
   0.71617627  0.97612194  0.46123970
   0.21617627  0.47612194  0.96123970
   0.71616661  0.52387293  0.96123971
   0.21616661  0.02387293  0.96123971
   0.71617627  0.97612194  0.96123970
 
 position of ions in cartesian coordinates  (Angst):
   2.58848345  3.11398178  2.81956665
   8.71948572  3.11425550  3.13976899
   2.43166482  9.34206659  3.07029639
   8.87749998  9.34370877  2.88829284
   2.65818880  3.11402630  9.19327697
   8.78919107  3.11430002  9.51347931
   2.50137017  9.34211111  9.44400670
   8.94720533  9.34375330  9.26200316
   3.89071492  3.11529210  3.54061196
  10.13489661  3.11574131  3.59492424
   3.84707572  9.34355240  3.52545163
  10.17973145  9.34501910  3.60933815
   3.96042027  3.11533662  9.91432227
  10.20460197  3.11578583  9.96863455
   3.91678107  9.34359692  9.89916195
  10.24943680  9.34506362  9.98304846
   2.78657090  3.11257881  1.73293644
   8.70067969  3.11350204  2.03539513
   2.41285879  9.34131313  1.96592253
   9.07558743  9.34230581  1.80166263
   2.85627625  3.11262334  8.10664676
   8.77038504  3.11354657  8.40910544
   2.48256415  9.34135765  8.33963284
   9.14529278  9.34235033  8.17537295
   2.02521083  4.01727360  3.10165547
   8.21738486  4.01575054  3.52394381
   1.92956397 10.24356163  3.45447121
   8.31422736 10.24700060  3.17038166
   2.09491618  4.01731812  9.47536578
   8.28709022  4.01579506  9.89765413
   1.99926932 10.24360615  9.82818152
   8.38393271 10.24704512  9.54409197
   2.02587535  2.21105045  3.10409700
   8.21905347  2.21237472  3.52519927
   1.93123257  8.44018581  3.45572666
   8.31489188  8.44077745  3.17282319
   2.09558070  2.21109497  9.47780731
   8.28875882  2.21241924  9.89890958
   2.00093792  8.44023033  9.82943698
   8.38459723  8.44082197  9.54653350
   4.46183027  3.96327369  3.30525111
  10.65412881  3.95892489  3.25259425
   4.36630792 10.18673597  3.18312164
  10.75084680 10.19300068  3.37397730
   4.53153562  3.96331821  9.67896142
  10.72383417  3.95896941  9.62630456
   4.43601327 10.18678050  9.55683196
  10.82055215 10.19304520  9.74768761
   4.46208866  2.26674363  3.30769475
  10.65536217  2.27275041  3.25379956
   4.36754128  8.50056149  3.18432696
  10.75110519  8.49647063  3.37642094
   4.53179401  2.26678816  9.68140506
  10.72506753  2.27279493  9.62750988
   4.43724663  8.50060601  9.55803727
  10.82081054  8.49651515  9.75013125
   3.77289363  3.11683419  4.57743999
  10.24111603  3.11644793  4.64128278
   3.95329514  9.34425902  4.57181018
  10.06191016  9.34656119  4.64616618
   3.84259898  3.11687871 10.95115030
  10.31082139  3.11649246 11.01499309
   4.02300049  9.34430354 10.94552049
  10.13161551  9.34660571 11.01987649
   6.01063802  6.24252688  6.29598516
  12.29891422  6.21761226  6.36511985
   6.01109332 12.44542334  6.29564725
  12.29845892  0.01471580  6.36545776
   6.08034337  6.24257141 12.66969547
  12.36861957  6.21765678 12.73883016
   6.08079867 12.44546787 12.66935756
  12.36816427  0.01476032 12.73916807
   5.75315007  6.23643807  3.09087127
  12.04117915  6.22361977  3.16005112
   5.75335825 12.45143085  3.09057852
  12.04097097  0.00862699  3.16034388
   5.82285542  6.23648260  9.46458159
  12.11088450  6.22366429  9.53376143
   5.82306360 12.45147538  9.46428883
  12.11067632  0.00867151  9.53405419
   5.90799672  3.11497432  0.16762815
  11.69430248  3.11595475  0.32703673
   5.40648159  9.34376584  0.25756413
  12.19701325  9.34470132  0.23635434
   5.97770207  3.11501885  6.54133847
  11.76400784  3.11599927  6.70074704
   5.47618694  9.34381036  6.63127444
  12.26671860  9.34474584  6.61006466
   2.78368478  5.93176250  5.90913636
   9.07203913  6.52758014  5.97819887
   2.78302260  0.29785314  5.90947268
   9.07270131 12.16148950  5.97786255
   2.85339014  5.93180702 12.28284667
   9.14174449  6.52762466 12.35190918
   2.85272796  0.29789766 12.28318299
   9.14240667 12.16153402 12.35157286
 
 Euler angles ALPHA=     0.0000000  BETA=     0.0000000

 transformation matrix from SAXIS to cartesian coordinates
 ---------------------------------------------------------
     1.0000000 m_x     0.0000000 m_y     0.0000000 m_z
     0.0000000 m_x     1.0000000 m_y     0.0000000 m_z
     0.0000000 m_x     0.0000000 m_y     1.0000000 m_z

 transformation matrix from cartesian coordinates to SAXIS
 ---------------------------------------------------------
     1.0000000 m_x     0.0000000 m_y     0.0000000 m_z
     0.0000000 m_x     1.0000000 m_y     0.0000000 m_z
     0.0000000 m_x     0.0000000 m_y     1.0000000 m_z




--------------------------------------------------------------------------------------------------------


 k-point  1 :   0.0000 0.0000 0.0000  plane waves:  168014
 k-point  2 :   0.3333-0.0000-0.0000  plane waves:  168006
 k-point  3 :  -0.3333 0.0000 0.0000  plane waves:  168006
 k-point  4 :   0.0000 0.3333-0.0000  plane waves:  167990
 k-point  5 :   0.3333 0.3333 0.0000  plane waves:  168036
 k-point  6 :  -0.3333 0.3333 0.0000  plane waves:  168038
 k-point  7 :  -0.0000-0.3333 0.0000  plane waves:  167990
 k-point  8 :   0.3333-0.3333-0.0000  plane waves:  168038
 k-point  9 :  -0.3333-0.3333-0.0000  plane waves:  168036
 k-point 10 :   0.0000 0.0000 0.3333  plane waves:  167920
 k-point 11 :   0.3333 0.0000 0.3333  plane waves:  167874
 k-point 12 :  -0.3333 0.0000 0.3333  plane waves:  167964
 k-point 13 :   0.0000 0.3333 0.3333  plane waves:  167968
 k-point 14 :   0.3333 0.3333 0.3333  plane waves:  168024
 k-point 15 :  -0.3333 0.3333 0.3333  plane waves:  167940
 k-point 16 :   0.0000-0.3333 0.3333  plane waves:  167954
 k-point 17 :   0.3333-0.3333 0.3333  plane waves:  168026
 k-point 18 :  -0.3333-0.3333 0.3333  plane waves:  167946
 k-point 19 :   0.0000 0.0000-0.3333  plane waves:  167920
 k-point 20 :   0.3333-0.0000-0.3333  plane waves:  167964
 k-point 21 :  -0.3333-0.0000-0.3333  plane waves:  167874
 k-point 22 :  -0.0000 0.3333-0.3333  plane waves:  167954
 k-point 23 :   0.3333 0.3333-0.3333  plane waves:  167946
 k-point 24 :  -0.3333 0.3333-0.3333  plane waves:  168026
 k-point 25 :  -0.0000-0.3333-0.3333  plane waves:  167968
 k-point 26 :   0.3333-0.3333-0.3333  plane waves:  167940
 k-point 27 :  -0.3333-0.3333-0.3333  plane waves:  168024

 maximum and minimum number of plane-waves per node :      7122     6820

 maximum number of plane-waves:    168038
 maximum index in each direction: 
   IXMAX=   27   IYMAX=   27   IZMAX=   27
   IXMIN=  -27   IYMIN=  -27   IZMIN=  -27

 NGX is ok and might be reduce to 110
 WARNING: aliasing errors must be expected set NGY to 110 to avoid them
 NGZ is ok and might be reduce to 110
 aliasing errors are usually negligible using standard VASP settings
 and one can safely disregard these warnings

 parallel 3D FFT for wavefunctions:
    minimum data exchange during FFTs selected (reduces bandwidth)
 parallel 3D FFT for charge:
    minimum data exchange during FFTs selected (reduces bandwidth)


 total amount of memory used by VASP on root node   392927. kBytes
========================================================================

   base      :      30000. kBytes
   nonl-proj :      73667. kBytes
   fftplans  :      22714. kBytes
   grid      :      35610. kBytes
   one-center:        248. kBytes
   wavefun   :     230688. kBytes
 
     INWAV:  cpu time    0.0000: real time    0.0000
 Broyden mixing: mesh for mixing (old mesh)
   NGX = 55   NGY = 53   NGZ = 55
  (NGX  =224   NGY  =216   NGZ  =224)
  gives a total of 160325 points

 initial charge density was supplied:
 charge density of overlapping atoms calculated
 number of electron     400.0000000 magnetization      96.0000000     96.0000000     96.0000000
 keeping initial charge density in first step


--------------------------------------------------------------------------------------------------------


 Maximum index for augmentation-charges         5398 (set IRDMAX)


--------------------------------------------------------------------------------------------------------


 First call to EWALD:  gamma=   0.141
 Maximum number of real-space cells 3x 3x 3
 Maximum number of reciprocal cells 3x 3x 3

 FEWALD executed in parallel
    FEWALD:  cpu time    0.0040: real time    0.0045


----------------------------------------- Iteration    1(   1)  ---------------------------------------


    POTLOK:  cpu time    0.6200: real time    0.6221
    SETDIJ:  cpu time    2.1201: real time    2.1201
     EDDAV:  cpu time  236.4188: real time  236.5809
       DOS:  cpu time    0.0080: real time    0.0061
    --------------------------------------------
      LOOP:  cpu time  239.1709: real time  239.3512

 eigenvalue-minimisations  : 32544
 total energy-change (2. order) : 0.4226338E+04  (-0.1929596E+05)
 number of electron     400.0000000 magnetization      96.0000000     96.0000000     96.0000000
 augmentation part      400.0000000 magnetization      96.0000000     96.0000000     96.0000000

 Free energy of the ion-electron system (eV)
  ---------------------------------------------------
  alpha Z        PSCENC =       370.05370877
  Ewald energy   TEWEN  =    -15539.70310868
  -Hartree energ DENC   =     -8112.53046546
  -exchange      EXHF   =         0.00000000
  -V(xc)+E(xc)   XCENC  =       673.03157768
  PAW double counting   =     20172.90621935   -19413.33347658
  entropy T*S    EENTRO =        -0.00003332
  eigenvalues    EBANDS =      1326.90696267
  atomic energy  EATOM  =     24749.00668030
  Solvation  Ediel_sol  =         0.00000000
  ---------------------------------------------------
  free energy    TOTEN  =      4226.33806471 eV

  energy without entropy =     4226.33809803  energy(sigma->0) =     4226.33808137


--------------------------------------------------------------------------------------------------------




----------------------------------------- Iteration    1(   2)  ---------------------------------------


     EDDAV:  cpu time  252.9038: real time  253.0700
       DOS:  cpu time    0.0080: real time    0.0066
    --------------------------------------------
      LOOP:  cpu time  252.9118: real time  253.1048

 eigenvalue-minimisations  : 35656
 total energy-change (2. order) :-0.3383554E+04  (-0.3133019E+04)
 number of electron     400.0000000 magnetization      96.0000000     96.0000000     96.0000000
 augmentation part      400.0000000 magnetization      96.0000000     96.0000000     96.0000000

 Free energy of the ion-electron system (eV)
  ---------------------------------------------------
  alpha Z        PSCENC =       370.05370877
  Ewald energy   TEWEN  =    -15539.70310868
  -Hartree energ DENC   =     -8112.53046546
  -exchange      EXHF   =         0.00000000
  -V(xc)+E(xc)   XCENC  =       673.03157768
  PAW double counting   =     20172.90621935   -19413.33347658
  entropy T*S    EENTRO =        -0.00002199
  eigenvalues    EBANDS =     -2056.64711600
  atomic energy  EATOM  =     24749.00668030
  Solvation  Ediel_sol  =         0.00000000
  ---------------------------------------------------
  free energy    TOTEN  =       842.78399738 eV

  energy without entropy =      842.78401937  energy(sigma->0) =      842.78400837


--------------------------------------------------------------------------------------------------------




----------------------------------------- Iteration    1(   3)  ---------------------------------------


     EDDAV:  cpu time  297.3066: real time  297.5046
       DOS:  cpu time    0.0080: real time    0.0069
    --------------------------------------------
      LOOP:  cpu time  297.3146: real time  297.5673

 eigenvalue-minimisations  : 43912
 total energy-change (2. order) :-0.6087303E+03  (-0.5886061E+03)
 number of electron     400.0000000 magnetization      96.0000000     96.0000000     96.0000000
 augmentation part      400.0000000 magnetization      96.0000000     96.0000000     96.0000000

 Free energy of the ion-electron system (eV)
  ---------------------------------------------------
  alpha Z        PSCENC =       370.05370877
  Ewald energy   TEWEN  =    -15539.70310868
  -Hartree energ DENC   =     -8112.53046546
  -exchange      EXHF   =         0.00000000
  -V(xc)+E(xc)   XCENC  =       673.03157768
  PAW double counting   =     20172.90621935   -19413.33347658
  entropy T*S    EENTRO =        -0.00003691
  eigenvalues    EBANDS =     -2665.37739757
  atomic energy  EATOM  =     24749.00668030
  Solvation  Ediel_sol  =         0.00000000
  ---------------------------------------------------
  free energy    TOTEN  =       234.05370088 eV

  energy without entropy =      234.05373780  energy(sigma->0) =      234.05371934


--------------------------------------------------------------------------------------------------------




----------------------------------------- Iteration    1(   4)  ---------------------------------------


     EDDAV:  cpu time  298.8547: real time  299.0561
       DOS:  cpu time    0.0080: real time    0.0072
    --------------------------------------------
      LOOP:  cpu time  298.8667: real time  299.0992

 eigenvalue-minimisations  : 44192
 total energy-change (2. order) :-0.4570772E+02  (-0.4466851E+02)
 number of electron     400.0000000 magnetization      96.0000000     96.0000000     96.0000000
 augmentation part      400.0000000 magnetization      96.0000000     96.0000000     96.0000000

 Free energy of the ion-electron system (eV)
  ---------------------------------------------------
  alpha Z        PSCENC =       370.05370877
  Ewald energy   TEWEN  =    -15539.70310868
  -Hartree energ DENC   =     -8112.53046546
  -exchange      EXHF   =         0.00000000
  -V(xc)+E(xc)   XCENC  =       673.03157768
  PAW double counting   =     20172.90621935   -19413.33347658
  entropy T*S    EENTRO =        -0.00023195
  eigenvalues    EBANDS =     -2711.08492424
  atomic energy  EATOM  =     24749.00668030
  Solvation  Ediel_sol  =         0.00000000
  ---------------------------------------------------
  free energy    TOTEN  =       188.34597917 eV

  energy without entropy =      188.34621113  energy(sigma->0) =      188.34609515


--------------------------------------------------------------------------------------------------------




----------------------------------------- Iteration    1(   5)  ---------------------------------------


     EDDAV:  cpu time  331.0847: real time  331.3064
       DOS:  cpu time    0.0080: real time    0.0073
    CHARGE:  cpu time   11.6927: real time   11.7012
    MIXING:  cpu time    0.0160: real time    0.0163
    --------------------------------------------
      LOOP:  cpu time  342.8054: real time  343.0607

 eigenvalue-minimisations  : 50240
 total energy-change (2. order) :-0.2225561E+01  (-0.2213737E+01)
 number of electron     400.0000000 magnetization      67.1100970     67.1118643     67.1116835
 augmentation part        6.9864069 magnetization      63.4419411     63.4369056     63.4373753

 Broyden mixing:
  rms(total) = 0.97827E+01    rms(broyden)= 0.97825E+01
  rms(prec ) = 0.10277E+02
  weight for this iteration     100.00

 Free energy of the ion-electron system (eV)
  ---------------------------------------------------
  alpha Z        PSCENC =       370.05370877
  Ewald energy   TEWEN  =    -15539.70310868
  -Hartree energ DENC   =     -8112.53046546
  -exchange      EXHF   =         0.00000000
  -V(xc)+E(xc)   XCENC  =       673.03157768
  PAW double counting   =     20172.90621935   -19413.33347658
  entropy T*S    EENTRO =        -0.00026108
  eigenvalues    EBANDS =     -2713.31045617
  atomic energy  EATOM  =     24749.00668030
  Solvation  Ediel_sol  =         0.00000000
  ---------------------------------------------------
  free energy    TOTEN  =       186.12041812 eV

  energy without entropy =      186.12067920  energy(sigma->0) =      186.12054866


--------------------------------------------------------------------------------------------------------




----------------------------------------- Iteration    1(   6)  ---------------------------------------


    POTLOK:  cpu time    0.5760: real time    0.5772
    SETDIJ:  cpu time    2.1281: real time    2.1284
     EDDAV:  cpu time  260.9403: real time  261.1166
       DOS:  cpu time    0.0080: real time    0.0056
    CHARGE:  cpu time   11.8127: real time   11.8210
    MIXING:  cpu time    0.0160: real time    0.0157
    --------------------------------------------
      LOOP:  cpu time  275.4852: real time  275.6766

 eigenvalue-minimisations  : 37128
 total energy-change (2. order) :-0.1307323E+03  (-0.1534895E+03)
 number of electron     400.0000000 magnetization      50.1960027     50.1950366     50.1973218
 augmentation part        5.9669691 magnetization      51.0147555     51.0228871     51.0148508

 Broyden mixing:
  rms(total) = 0.48253E+01    rms(broyden)= 0.48252E+01
  rms(prec ) = 0.50070E+01
  weight for this iteration     100.00

 eigenvalues of (default mixing * dielectric matrix)
  average eigenvalue GAMMA=   0.7621
  0.7621

 Free energy of the ion-electron system (eV)
  ---------------------------------------------------
  alpha Z        PSCENC =       370.05370877
  Ewald energy   TEWEN  =    -15539.70310868
  -Hartree energ DENC   =     -8469.15395012
  -exchange      EXHF   =         0.00000000
  -V(xc)+E(xc)   XCENC  =       690.66466640
  PAW double counting   =     24182.01311316   -23445.00614150
  entropy T*S    EENTRO =        -0.00000000
  eigenvalues    EBANDS =     -2482.48681438
  atomic energy  EATOM  =     24749.00668030
  Solvation  Ediel_sol  =         0.00000000
  ---------------------------------------------------
  free energy    TOTEN  =        55.38815395 eV

  energy without entropy =       55.38815395  energy(sigma->0) =       55.38815395


--------------------------------------------------------------------------------------------------------




----------------------------------------- Iteration    1(   7)  ---------------------------------------


    POTLOK:  cpu time    0.5800: real time    0.5797
    SETDIJ:  cpu time    2.1641: real time    2.1658
     EDDAV:  cpu time  272.6290: real time  272.8113
       DOS:  cpu time    0.0080: real time    0.0080
    CHARGE:  cpu time   11.7567: real time   11.7639
    MIXING:  cpu time    0.0160: real time    0.0169
    --------------------------------------------
      LOOP:  cpu time  287.1539: real time  287.3859

 eigenvalue-minimisations  : 39264
 total energy-change (2. order) :-0.1498518E+03  (-0.1598379E+02)
 number of electron     400.0000000 magnetization      34.1765609     34.1729108     34.1804003
 augmentation part        5.6100529 magnetization      35.1821434     35.1892775     35.1736825

 Broyden mixing:
  rms(total) = 0.28213E+01    rms(broyden)= 0.28212E+01
  rms(prec ) = 0.29729E+01
  weight for this iteration     100.00

 eigenvalues of (default mixing * dielectric matrix)
  average eigenvalue GAMMA=   0.8425
  0.8425  0.8425

 Free energy of the ion-electron system (eV)
  ---------------------------------------------------
  alpha Z        PSCENC =       370.05370877
  Ewald energy   TEWEN  =    -15539.70310868
  -Hartree energ DENC   =     -8518.08467723
  -exchange      EXHF   =         0.00000000
  -V(xc)+E(xc)   XCENC  =       591.73476345
  PAW double counting   =     26637.77416338   -25900.85620609
  entropy T*S    EENTRO =        -0.00001021
  eigenvalues    EBANDS =     -2484.38891965
  atomic energy  EATOM  =     24749.00668030
  Solvation  Ediel_sol  =         0.00000000
  ---------------------------------------------------
  free energy    TOTEN  =       -94.46360596 eV

  energy without entropy =      -94.46359576  energy(sigma->0) =      -94.46360086


--------------------------------------------------------------------------------------------------------




----------------------------------------- Iteration    1(   8)  ---------------------------------------


    POTLOK:  cpu time    0.5840: real time    0.5841
    SETDIJ:  cpu time    2.1361: real time    2.1386
     EDDAV:  cpu time  262.1924: real time  262.3694
       DOS:  cpu time    0.0040: real time    0.0038
    CHARGE:  cpu time   11.7727: real time   11.7802
    MIXING:  cpu time    0.0160: real time    0.0163
    --------------------------------------------
      LOOP:  cpu time  276.7093: real time  277.0108

 eigenvalue-minimisations  : 37256
 total energy-change (2. order) :-0.1087329E+03  (-0.6479596E+01)
 number of electron     400.0000000 magnetization      15.7145133     15.7049975     15.7163698
 augmentation part        6.6705162 magnetization      16.8836038     16.8910016     16.8884248

 Broyden mixing:
  rms(total) = 0.18260E+01    rms(broyden)= 0.18260E+01
  rms(prec ) = 0.18804E+01
  weight for this iteration     100.00

 eigenvalues of (default mixing * dielectric matrix)
  average eigenvalue GAMMA=   1.0119
  1.4336  0.9713  0.6308

 Free energy of the ion-electron system (eV)
  ---------------------------------------------------
  alpha Z        PSCENC =       370.05370877
  Ewald energy   TEWEN  =    -15539.70310868
  -Hartree energ DENC   =     -8551.77884769
  -exchange      EXHF   =         0.00000000
  -V(xc)+E(xc)   XCENC  =       528.51226203
  PAW double counting   =     28635.64393093   -27900.80018565
  entropy T*S    EENTRO =        -0.00000000
  eigenvalues    EBANDS =     -2494.13098590
  atomic energy  EATOM  =     24749.00668030
  Solvation  Ediel_sol  =         0.00000000
  ---------------------------------------------------
  free energy    TOTEN  =      -203.19654589 eV

  energy without entropy =     -203.19654589  energy(sigma->0) =     -203.19654589


--------------------------------------------------------------------------------------------------------




----------------------------------------- Iteration    1(   9)  ---------------------------------------


    POTLOK:  cpu time    0.5880: real time    0.5851
    SETDIJ:  cpu time    2.2161: real time    2.2191
     EDDAV:  cpu time  257.7161: real time  257.8938
       DOS:  cpu time    0.0040: real time    0.0044
    CHARGE:  cpu time   11.7727: real time   11.7828
    MIXING:  cpu time    0.0200: real time    0.0168
    --------------------------------------------
      LOOP:  cpu time  272.3210: real time  272.5575

 eigenvalue-minimisations  : 36496
 total energy-change (2. order) :-0.1311819E+03  (-0.1216918E+02)
 number of electron     400.0000000 magnetization      10.2323904     10.2209465     10.2307244
 augmentation part        7.9253529 magnetization      11.0457906     11.0543303     11.0585427

 Broyden mixing:
  rms(total) = 0.90699E+00    rms(broyden)= 0.90698E+00
  rms(prec ) = 0.95850E+00
  weight for this iteration     100.00

 eigenvalues of (default mixing * dielectric matrix)
  average eigenvalue GAMMA=   1.0834
  1.8354  1.1046  0.6969  0.6969

 Free energy of the ion-electron system (eV)
  ---------------------------------------------------
  alpha Z        PSCENC =       370.05370877
  Ewald energy   TEWEN  =    -15539.70310868
  -Hartree energ DENC   =     -8582.50526013
  -exchange      EXHF   =         0.00000000
  -V(xc)+E(xc)   XCENC  =       463.14412437
  PAW double counting   =     30688.21455087   -29954.41369771
  entropy T*S    EENTRO =         0.00000000
  eigenvalues    EBANDS =     -2528.17547991
  atomic energy  EATOM  =     24749.00668030
  Solvation  Ediel_sol  =         0.00000000
  ---------------------------------------------------
  free energy    TOTEN  =      -334.37848213 eV

  energy without entropy =     -334.37848213  energy(sigma->0) =     -334.37848213


--------------------------------------------------------------------------------------------------------




----------------------------------------- Iteration    1(  10)  ---------------------------------------


    POTLOK:  cpu time    0.5840: real time    0.5835
    SETDIJ:  cpu time    2.1401: real time    2.1416
     EDDAV:  cpu time  263.4525: real time  263.6314
       DOS:  cpu time    0.0080: real time    0.0056
    CHARGE:  cpu time   11.7807: real time   11.7901
    MIXING:  cpu time    0.0200: real time    0.0172
    --------------------------------------------
      LOOP:  cpu time  277.9854: real time  278.3058

 eigenvalue-minimisations  : 37464
 total energy-change (2. order) :-0.4836670E+02  (-0.5021923E+01)
 number of electron     400.0000000 magnetization       6.3611139      6.3522713      6.3580882
 augmentation part        8.2355492 magnetization       6.8824310      6.8812640      6.8853281

 Broyden mixing:
  rms(total) = 0.66470E+00    rms(broyden)= 0.66469E+00
  rms(prec ) = 0.74070E+00
  weight for this iteration     100.00

 eigenvalues of (default mixing * dielectric matrix)
  average eigenvalue GAMMA=   1.1367
  1.7040  1.7040  0.8308  0.8308  0.6136

 Free energy of the ion-electron system (eV)
  ---------------------------------------------------
  alpha Z        PSCENC =       370.05370877
  Ewald energy   TEWEN  =    -15539.70310868
  -Hartree energ DENC   =     -8568.86373259
  -exchange      EXHF   =         0.00000000
  -V(xc)+E(xc)   XCENC  =       442.43885118
  PAW double counting   =     31029.34685557   -30293.97919862
  entropy T*S    EENTRO =         0.00000000
  eigenvalues    EBANDS =     -2571.04524008
  atomic energy  EATOM  =     24749.00668030
  Solvation  Ediel_sol  =         0.00000000
  ---------------------------------------------------
  free energy    TOTEN  =      -382.74518414 eV

  energy without entropy =     -382.74518414  energy(sigma->0) =     -382.74518414


--------------------------------------------------------------------------------------------------------




----------------------------------------- Iteration    1(  11)  ---------------------------------------


    POTLOK:  cpu time    0.5840: real time    0.5826
    SETDIJ:  cpu time    2.2481: real time    2.2491
     EDDAV:  cpu time  266.5487: real time  266.7317
       DOS:  cpu time    0.0040: real time    0.0039
    CHARGE:  cpu time   11.8567: real time   11.8654
    MIXING:  cpu time    0.0200: real time    0.0168
    --------------------------------------------
      LOOP:  cpu time  281.2616: real time  281.4622

 eigenvalue-minimisations  : 38112
 total energy-change (2. order) :-0.2736656E+02  (-0.3726392E+01)
 number of electron     400.0000000 magnetization       3.1763063      3.1706580      3.1738204
 augmentation part        8.0980945 magnetization       3.3997108      3.3960724      3.3985268

 Broyden mixing:
  rms(total) = 0.38475E+00    rms(broyden)= 0.38475E+00
  rms(prec ) = 0.43973E+00
  weight for this iteration     100.00

 eigenvalues of (default mixing * dielectric matrix)
  average eigenvalue GAMMA=   1.2110
  2.0660  2.0660  0.9483  0.9483  0.6603  0.5774

 Free energy of the ion-electron system (eV)
  ---------------------------------------------------
  alpha Z        PSCENC =       370.05370877
  Ewald energy   TEWEN  =    -15539.70310868
  -Hartree energ DENC   =     -8516.43050410
  -exchange      EXHF   =         0.00000000
  -V(xc)+E(xc)   XCENC  =       428.61816597
  PAW double counting   =     30960.39992958   -30221.68112812
  entropy T*S    EENTRO =         0.00000000
  eigenvalues    EBANDS =     -2640.37548636
  atomic energy  EATOM  =     24749.00668030
  Solvation  Ediel_sol  =         0.00000000
  ---------------------------------------------------
  free energy    TOTEN  =      -410.11174265 eV

  energy without entropy =     -410.11174265  energy(sigma->0) =     -410.11174265


--------------------------------------------------------------------------------------------------------




----------------------------------------- Iteration    1(  12)  ---------------------------------------


    POTLOK:  cpu time    0.5800: real time    0.5787
    SETDIJ:  cpu time    2.1401: real time    2.1419
     EDDAV:  cpu time  277.2533: real time  277.4449
       DOS:  cpu time    0.0040: real time    0.0044
    CHARGE:  cpu time   11.8647: real time   11.8720
    MIXING:  cpu time    0.0200: real time    0.0174
    --------------------------------------------
      LOOP:  cpu time  291.8622: real time  292.1857

 eigenvalue-minimisations  : 40064
 total energy-change (2. order) :-0.1085613E+02  (-0.1630299E+01)
 number of electron     400.0000000 magnetization       2.4814140      2.4768428      2.4795794
 augmentation part        7.8920868 magnetization       2.5470058      2.5425379      2.5443663

 Broyden mixing:
  rms(total) = 0.25094E+00    rms(broyden)= 0.25094E+00
  rms(prec ) = 0.28864E+00
  weight for this iteration     100.00

 eigenvalues of (default mixing * dielectric matrix)
  average eigenvalue GAMMA=   1.1590
  2.0717  2.0717  0.9989  0.9989  0.6867  0.6867  0.5981

 Free energy of the ion-electron system (eV)
  ---------------------------------------------------
  alpha Z        PSCENC =       370.05370877
  Ewald energy   TEWEN  =    -15539.70310868
  -Hartree energ DENC   =     -8468.48225514
  -exchange      EXHF   =         0.00000000
  -V(xc)+E(xc)   XCENC  =       422.07922448
  PAW double counting   =     30798.78542683   -30057.31797189
  entropy T*S    EENTRO =        -0.00000000
  eigenvalues    EBANDS =     -2695.38957632
  atomic energy  EATOM  =     24749.00668030
  Solvation  Ediel_sol  =         0.00000000
  ---------------------------------------------------
  free energy    TOTEN  =      -420.96787166 eV

  energy without entropy =     -420.96787166  energy(sigma->0) =     -420.96787166


--------------------------------------------------------------------------------------------------------




----------------------------------------- Iteration    1(  13)  ---------------------------------------


    POTLOK:  cpu time    0.5800: real time    0.5781
    SETDIJ:  cpu time    2.1401: real time    2.1430
     EDDAV:  cpu time  278.2934: real time  278.4821
       DOS:  cpu time    0.0040: real time    0.0044
    CHARGE:  cpu time   11.8567: real time   11.8654
    MIXING:  cpu time    0.0200: real time    0.0177
    --------------------------------------------
      LOOP:  cpu time  292.8943: real time  293.1278

 eigenvalue-minimisations  : 40264
 total energy-change (2. order) :-0.1874264E+01  (-0.2759918E+00)
 number of electron     400.0000000 magnetization       1.7468124      1.7441129      1.7458449
 augmentation part        7.9055529 magnetization       1.7970139      1.7951485      1.7965025

 Broyden mixing:
  rms(total) = 0.20722E+00    rms(broyden)= 0.20722E+00
  rms(prec ) = 0.24430E+00
  weight for this iteration     100.00

 eigenvalues of (default mixing * dielectric matrix)
  average eigenvalue GAMMA=   1.1807
  2.1995  2.1995  1.0640  1.0640  0.8633  0.8633  0.6216  0.5701

 Free energy of the ion-electron system (eV)
  ---------------------------------------------------
  alpha Z        PSCENC =       370.05370877
  Ewald energy   TEWEN  =    -15539.70310868
  -Hartree energ DENC   =     -8457.38109674
[...]
     0.0000000     0.0000000     0.0000000     0.0000000     0.0000000     0.0000000     0.0000000
     0.0000000     0.0000000     0.0000000     0.0000000     0.0000000     0.0000000     0.0000000
     0.0000000     0.0000000     0.0000000     0.0000000     0.0000000     0.0000000     0.0000000
     0.0000000     0.0000000     0.0000000     0.0000000     0.0000000     0.0000000     0.0000000

 Ion:   82  E_soc:     -0.2780142
 l=   1
     0.0000000    -0.0477274    -0.0482512
    -0.0477274     0.0000000    -0.0430463
    -0.0482512    -0.0430463     0.0000000
 l=   2
     0.0000000    -0.0000089     0.0000000    -0.0000029     0.0000217
    -0.0000089     0.0000000     0.0000044    -0.0000026     0.0000113
     0.0000000     0.0000044     0.0000000    -0.0000035     0.0000000
    -0.0000029    -0.0000026    -0.0000035     0.0000000    -0.0000016
     0.0000217     0.0000113     0.0000000    -0.0000016     0.0000000
 l=   3
     0.0000000     0.0000000     0.0000000     0.0000000     0.0000000     0.0000000     0.0000000
     0.0000000     0.0000000     0.0000000     0.0000000     0.0000000     0.0000000     0.0000000
     0.0000000     0.0000000     0.0000000     0.0000000     0.0000000     0.0000000     0.0000000
     0.0000000     0.0000000     0.0000000     0.0000000     0.0000000     0.0000000     0.0000000
     0.0000000     0.0000000     0.0000000     0.0000000     0.0000000     0.0000000     0.0000000
     0.0000000     0.0000000     0.0000000     0.0000000     0.0000000     0.0000000     0.0000000
     0.0000000     0.0000000     0.0000000     0.0000000     0.0000000     0.0000000     0.0000000

 Ion:   83  E_soc:     -0.2780142
 l=   1
     0.0000000    -0.0477274    -0.0482512
    -0.0477274     0.0000000    -0.0430463
    -0.0482512    -0.0430463     0.0000000
 l=   2
     0.0000000    -0.0000089     0.0000000    -0.0000029     0.0000217
    -0.0000089     0.0000000     0.0000044    -0.0000026     0.0000113
     0.0000000     0.0000044     0.0000000    -0.0000035     0.0000000
    -0.0000029    -0.0000026    -0.0000035     0.0000000    -0.0000016
     0.0000217     0.0000113     0.0000000    -0.0000016     0.0000000
 l=   3
     0.0000000     0.0000000     0.0000000     0.0000000     0.0000000     0.0000000     0.0000000
     0.0000000     0.0000000     0.0000000     0.0000000     0.0000000     0.0000000     0.0000000
     0.0000000     0.0000000     0.0000000     0.0000000     0.0000000     0.0000000     0.0000000
     0.0000000     0.0000000     0.0000000     0.0000000     0.0000000     0.0000000     0.0000000
     0.0000000     0.0000000     0.0000000     0.0000000     0.0000000     0.0000000     0.0000000
     0.0000000     0.0000000     0.0000000     0.0000000     0.0000000     0.0000000     0.0000000
     0.0000000     0.0000000     0.0000000     0.0000000     0.0000000     0.0000000     0.0000000

 Ion:   84  E_soc:     -0.2813826
 l=   1
     0.0000000    -0.0489042    -0.0488813
    -0.0489042     0.0000000    -0.0429309
    -0.0488813    -0.0429309     0.0000000
 l=   2
     0.0000000    -0.0000108     0.0000000    -0.0000030     0.0000247
    -0.0000108     0.0000000     0.0000062    -0.0000023     0.0000144
     0.0000000     0.0000062     0.0000000    -0.0000031     0.0000000
    -0.0000030    -0.0000023    -0.0000031     0.0000000    -0.0000010
     0.0000247     0.0000144     0.0000000    -0.0000010     0.0000000
 l=   3
     0.0000000     0.0000000     0.0000000     0.0000000     0.0000000     0.0000000     0.0000000
     0.0000000     0.0000000     0.0000000     0.0000000     0.0000000     0.0000000     0.0000000
     0.0000000     0.0000000     0.0000000     0.0000000     0.0000000     0.0000000     0.0000000
     0.0000000     0.0000000     0.0000000     0.0000000     0.0000000     0.0000000     0.0000000
     0.0000000     0.0000000     0.0000000     0.0000000     0.0000000     0.0000000     0.0000000
     0.0000000     0.0000000     0.0000000     0.0000000     0.0000000     0.0000000     0.0000000
     0.0000000     0.0000000     0.0000000     0.0000000     0.0000000     0.0000000     0.0000000

 Ion:   85  E_soc:     -0.2813826
 l=   1
     0.0000000    -0.0489042    -0.0488813
    -0.0489042     0.0000000    -0.0429309
    -0.0488813    -0.0429309     0.0000000
 l=   2
     0.0000000    -0.0000108     0.0000000    -0.0000030     0.0000247
    -0.0000108     0.0000000     0.0000062    -0.0000023     0.0000144
     0.0000000     0.0000062     0.0000000    -0.0000031     0.0000000
    -0.0000030    -0.0000023    -0.0000031     0.0000000    -0.0000010
     0.0000247     0.0000144     0.0000000    -0.0000010     0.0000000
 l=   3
     0.0000000     0.0000000     0.0000000     0.0000000     0.0000000     0.0000000     0.0000000
     0.0000000     0.0000000     0.0000000     0.0000000     0.0000000     0.0000000     0.0000000
     0.0000000     0.0000000     0.0000000     0.0000000     0.0000000     0.0000000     0.0000000
     0.0000000     0.0000000     0.0000000     0.0000000     0.0000000     0.0000000     0.0000000
     0.0000000     0.0000000     0.0000000     0.0000000     0.0000000     0.0000000     0.0000000
     0.0000000     0.0000000     0.0000000     0.0000000     0.0000000     0.0000000     0.0000000
     0.0000000     0.0000000     0.0000000     0.0000000     0.0000000     0.0000000     0.0000000

 Ion:   86  E_soc:     -0.2780142
 l=   1
     0.0000000    -0.0477274    -0.0482512
    -0.0477274     0.0000000    -0.0430463
    -0.0482512    -0.0430463     0.0000000
 l=   2
     0.0000000    -0.0000089     0.0000000    -0.0000029     0.0000217
    -0.0000089     0.0000000     0.0000044    -0.0000026     0.0000113
     0.0000000     0.0000044     0.0000000    -0.0000035     0.0000000
    -0.0000029    -0.0000026    -0.0000035     0.0000000    -0.0000016
     0.0000217     0.0000113     0.0000000    -0.0000016     0.0000000
 l=   3
     0.0000000     0.0000000     0.0000000     0.0000000     0.0000000     0.0000000     0.0000000
     0.0000000     0.0000000     0.0000000     0.0000000     0.0000000     0.0000000     0.0000000
     0.0000000     0.0000000     0.0000000     0.0000000     0.0000000     0.0000000     0.0000000
     0.0000000     0.0000000     0.0000000     0.0000000     0.0000000     0.0000000     0.0000000
     0.0000000     0.0000000     0.0000000     0.0000000     0.0000000     0.0000000     0.0000000
     0.0000000     0.0000000     0.0000000     0.0000000     0.0000000     0.0000000     0.0000000
     0.0000000     0.0000000     0.0000000     0.0000000     0.0000000     0.0000000     0.0000000

 Ion:   87  E_soc:     -0.2780142
 l=   1
     0.0000000    -0.0477274    -0.0482512
    -0.0477274     0.0000000    -0.0430463
    -0.0482512    -0.0430463     0.0000000
 l=   2
     0.0000000    -0.0000089     0.0000000    -0.0000029     0.0000217
    -0.0000089     0.0000000     0.0000044    -0.0000026     0.0000113
     0.0000000     0.0000044     0.0000000    -0.0000035     0.0000000
    -0.0000029    -0.0000026    -0.0000035     0.0000000    -0.0000016
     0.0000217     0.0000113     0.0000000    -0.0000016     0.0000000
 l=   3
     0.0000000     0.0000000     0.0000000     0.0000000     0.0000000     0.0000000     0.0000000
     0.0000000     0.0000000     0.0000000     0.0000000     0.0000000     0.0000000     0.0000000
     0.0000000     0.0000000     0.0000000     0.0000000     0.0000000     0.0000000     0.0000000
     0.0000000     0.0000000     0.0000000     0.0000000     0.0000000     0.0000000     0.0000000
     0.0000000     0.0000000     0.0000000     0.0000000     0.0000000     0.0000000     0.0000000
     0.0000000     0.0000000     0.0000000     0.0000000     0.0000000     0.0000000     0.0000000
     0.0000000     0.0000000     0.0000000     0.0000000     0.0000000     0.0000000     0.0000000

 Ion:   88  E_soc:     -0.2813826
 l=   1
     0.0000000    -0.0489042    -0.0488813
    -0.0489042     0.0000000    -0.0429309
    -0.0488813    -0.0429309     0.0000000
 l=   2
     0.0000000    -0.0000108     0.0000000    -0.0000030     0.0000247
    -0.0000108     0.0000000     0.0000062    -0.0000023     0.0000144
     0.0000000     0.0000062     0.0000000    -0.0000031     0.0000000
    -0.0000030    -0.0000023    -0.0000031     0.0000000    -0.0000010
     0.0000247     0.0000144     0.0000000    -0.0000010     0.0000000
 l=   3
     0.0000000     0.0000000     0.0000000     0.0000000     0.0000000     0.0000000     0.0000000
     0.0000000     0.0000000     0.0000000     0.0000000     0.0000000     0.0000000     0.0000000
     0.0000000     0.0000000     0.0000000     0.0000000     0.0000000     0.0000000     0.0000000
     0.0000000     0.0000000     0.0000000     0.0000000     0.0000000     0.0000000     0.0000000
     0.0000000     0.0000000     0.0000000     0.0000000     0.0000000     0.0000000     0.0000000
     0.0000000     0.0000000     0.0000000     0.0000000     0.0000000     0.0000000     0.0000000
     0.0000000     0.0000000     0.0000000     0.0000000     0.0000000     0.0000000     0.0000000

 Ion:   89  E_soc:     -0.2858410
 l=   1
     0.0000000    -0.0430302    -0.0495084
    -0.0430302     0.0000000    -0.0504027
    -0.0495084    -0.0504027     0.0000000
 l=   2
     0.0000000    -0.0000021     0.0000000    -0.0000079     0.0000193
    -0.0000021     0.0000000    -0.0000023    -0.0000024    -0.0000015
     0.0000000    -0.0000023     0.0000000     0.0000050     0.0000000
    -0.0000079    -0.0000024     0.0000050     0.0000000     0.0000126
     0.0000193    -0.0000015     0.0000000     0.0000126     0.0000000
 l=   3
     0.0000000     0.0000000     0.0000000     0.0000000     0.0000000     0.0000000     0.0000000
     0.0000000     0.0000000     0.0000000     0.0000000     0.0000000     0.0000000     0.0000000
     0.0000000     0.0000000     0.0000000     0.0000000     0.0000000     0.0000000     0.0000000
     0.0000000     0.0000000     0.0000000     0.0000000     0.0000000     0.0000000     0.0000000
     0.0000000     0.0000000     0.0000000     0.0000000     0.0000000     0.0000000     0.0000000
     0.0000000     0.0000000     0.0000000     0.0000000     0.0000000     0.0000000     0.0000000
     0.0000000     0.0000000     0.0000000     0.0000000     0.0000000     0.0000000     0.0000000

 Ion:   90  E_soc:     -0.2858519
 l=   1
     0.0000000    -0.0430303    -0.0495119
    -0.0430303     0.0000000    -0.0504045
    -0.0495119    -0.0504045     0.0000000
 l=   2
     0.0000000    -0.0000021     0.0000000    -0.0000079     0.0000193
    -0.0000021     0.0000000    -0.0000023    -0.0000024    -0.0000015
     0.0000000    -0.0000023     0.0000000     0.0000050     0.0000000
    -0.0000079    -0.0000024     0.0000050     0.0000000     0.0000126
     0.0000193    -0.0000015     0.0000000     0.0000126     0.0000000
 l=   3
     0.0000000     0.0000000     0.0000000     0.0000000     0.0000000     0.0000000     0.0000000
     0.0000000     0.0000000     0.0000000     0.0000000     0.0000000     0.0000000     0.0000000
     0.0000000     0.0000000     0.0000000     0.0000000     0.0000000     0.0000000     0.0000000
     0.0000000     0.0000000     0.0000000     0.0000000     0.0000000     0.0000000     0.0000000
     0.0000000     0.0000000     0.0000000     0.0000000     0.0000000     0.0000000     0.0000000
     0.0000000     0.0000000     0.0000000     0.0000000     0.0000000     0.0000000     0.0000000
     0.0000000     0.0000000     0.0000000     0.0000000     0.0000000     0.0000000     0.0000000

 Ion:   91  E_soc:     -0.2858519
 l=   1
     0.0000000    -0.0430303    -0.0495119
    -0.0430303     0.0000000    -0.0504045
    -0.0495119    -0.0504045     0.0000000
 l=   2
     0.0000000    -0.0000021     0.0000000    -0.0000079     0.0000193
    -0.0000021     0.0000000    -0.0000023    -0.0000024    -0.0000015
     0.0000000    -0.0000023     0.0000000     0.0000050     0.0000000
    -0.0000079    -0.0000024     0.0000050     0.0000000     0.0000126
     0.0000193    -0.0000015     0.0000000     0.0000126     0.0000000
 l=   3
     0.0000000     0.0000000     0.0000000     0.0000000     0.0000000     0.0000000     0.0000000
     0.0000000     0.0000000     0.0000000     0.0000000     0.0000000     0.0000000     0.0000000
     0.0000000     0.0000000     0.0000000     0.0000000     0.0000000     0.0000000     0.0000000
     0.0000000     0.0000000     0.0000000     0.0000000     0.0000000     0.0000000     0.0000000
     0.0000000     0.0000000     0.0000000     0.0000000     0.0000000     0.0000000     0.0000000
     0.0000000     0.0000000     0.0000000     0.0000000     0.0000000     0.0000000     0.0000000
     0.0000000     0.0000000     0.0000000     0.0000000     0.0000000     0.0000000     0.0000000

 Ion:   92  E_soc:     -0.2858410
 l=   1
     0.0000000    -0.0430302    -0.0495084
    -0.0430302     0.0000000    -0.0504027
    -0.0495084    -0.0504027     0.0000000
 l=   2
     0.0000000    -0.0000021     0.0000000    -0.0000079     0.0000193
    -0.0000021     0.0000000    -0.0000023    -0.0000024    -0.0000015
     0.0000000    -0.0000023     0.0000000     0.0000050     0.0000000
    -0.0000079    -0.0000024     0.0000050     0.0000000     0.0000126
     0.0000193    -0.0000015     0.0000000     0.0000126     0.0000000
 l=   3
     0.0000000     0.0000000     0.0000000     0.0000000     0.0000000     0.0000000     0.0000000
     0.0000000     0.0000000     0.0000000     0.0000000     0.0000000     0.0000000     0.0000000
     0.0000000     0.0000000     0.0000000     0.0000000     0.0000000     0.0000000     0.0000000
     0.0000000     0.0000000     0.0000000     0.0000000     0.0000000     0.0000000     0.0000000
     0.0000000     0.0000000     0.0000000     0.0000000     0.0000000     0.0000000     0.0000000
     0.0000000     0.0000000     0.0000000     0.0000000     0.0000000     0.0000000     0.0000000
     0.0000000     0.0000000     0.0000000     0.0000000     0.0000000     0.0000000     0.0000000

 Ion:   93  E_soc:     -0.2858410
 l=   1
     0.0000000    -0.0430302    -0.0495084
    -0.0430302     0.0000000    -0.0504027
    -0.0495084    -0.0504027     0.0000000
 l=   2
     0.0000000    -0.0000021     0.0000000    -0.0000079     0.0000193
    -0.0000021     0.0000000    -0.0000023    -0.0000024    -0.0000015
     0.0000000    -0.0000023     0.0000000     0.0000050     0.0000000
    -0.0000079    -0.0000024     0.0000050     0.0000000     0.0000126
     0.0000193    -0.0000015     0.0000000     0.0000126     0.0000000
 l=   3
     0.0000000     0.0000000     0.0000000     0.0000000     0.0000000     0.0000000     0.0000000
     0.0000000     0.0000000     0.0000000     0.0000000     0.0000000     0.0000000     0.0000000
     0.0000000     0.0000000     0.0000000     0.0000000     0.0000000     0.0000000     0.0000000
     0.0000000     0.0000000     0.0000000     0.0000000     0.0000000     0.0000000     0.0000000
     0.0000000     0.0000000     0.0000000     0.0000000     0.0000000     0.0000000     0.0000000
     0.0000000     0.0000000     0.0000000     0.0000000     0.0000000     0.0000000     0.0000000
     0.0000000     0.0000000     0.0000000     0.0000000     0.0000000     0.0000000     0.0000000

 Ion:   94  E_soc:     -0.2858519
 l=   1
     0.0000000    -0.0430303    -0.0495119
    -0.0430303     0.0000000    -0.0504045
    -0.0495119    -0.0504045     0.0000000
 l=   2
     0.0000000    -0.0000021     0.0000000    -0.0000079     0.0000193
    -0.0000021     0.0000000    -0.0000023    -0.0000024    -0.0000015
     0.0000000    -0.0000023     0.0000000     0.0000050     0.0000000
    -0.0000079    -0.0000024     0.0000050     0.0000000     0.0000126
     0.0000193    -0.0000015     0.0000000     0.0000126     0.0000000
 l=   3
     0.0000000     0.0000000     0.0000000     0.0000000     0.0000000     0.0000000     0.0000000
     0.0000000     0.0000000     0.0000000     0.0000000     0.0000000     0.0000000     0.0000000
     0.0000000     0.0000000     0.0000000     0.0000000     0.0000000     0.0000000     0.0000000
     0.0000000     0.0000000     0.0000000     0.0000000     0.0000000     0.0000000     0.0000000
     0.0000000     0.0000000     0.0000000     0.0000000     0.0000000     0.0000000     0.0000000
     0.0000000     0.0000000     0.0000000     0.0000000     0.0000000     0.0000000     0.0000000
     0.0000000     0.0000000     0.0000000     0.0000000     0.0000000     0.0000000     0.0000000

 Ion:   95  E_soc:     -0.2858519
 l=   1
     0.0000000    -0.0430303    -0.0495119
    -0.0430303     0.0000000    -0.0504045
    -0.0495119    -0.0504045     0.0000000
 l=   2
     0.0000000    -0.0000021     0.0000000    -0.0000079     0.0000193
    -0.0000021     0.0000000    -0.0000023    -0.0000024    -0.0000015
     0.0000000    -0.0000023     0.0000000     0.0000050     0.0000000
    -0.0000079    -0.0000024     0.0000050     0.0000000     0.0000126
     0.0000193    -0.0000015     0.0000000     0.0000126     0.0000000
 l=   3
     0.0000000     0.0000000     0.0000000     0.0000000     0.0000000     0.0000000     0.0000000
     0.0000000     0.0000000     0.0000000     0.0000000     0.0000000     0.0000000     0.0000000
     0.0000000     0.0000000     0.0000000     0.0000000     0.0000000     0.0000000     0.0000000
     0.0000000     0.0000000     0.0000000     0.0000000     0.0000000     0.0000000     0.0000000
     0.0000000     0.0000000     0.0000000     0.0000000     0.0000000     0.0000000     0.0000000
     0.0000000     0.0000000     0.0000000     0.0000000     0.0000000     0.0000000     0.0000000
     0.0000000     0.0000000     0.0000000     0.0000000     0.0000000     0.0000000     0.0000000

 Ion:   96  E_soc:     -0.2858410
 l=   1
     0.0000000    -0.0430302    -0.0495084
    -0.0430302     0.0000000    -0.0504027
    -0.0495084    -0.0504027     0.0000000
 l=   2
     0.0000000    -0.0000021     0.0000000    -0.0000079     0.0000193
    -0.0000021     0.0000000    -0.0000023    -0.0000024    -0.0000015
     0.0000000    -0.0000023     0.0000000     0.0000050     0.0000000
    -0.0000079    -0.0000024     0.0000050     0.0000000     0.0000126
     0.0000193    -0.0000015     0.0000000     0.0000126     0.0000000
 l=   3
     0.0000000     0.0000000     0.0000000     0.0000000     0.0000000     0.0000000     0.0000000
     0.0000000     0.0000000     0.0000000     0.0000000     0.0000000     0.0000000     0.0000000
     0.0000000     0.0000000     0.0000000     0.0000000     0.0000000     0.0000000     0.0000000
     0.0000000     0.0000000     0.0000000     0.0000000     0.0000000     0.0000000     0.0000000
     0.0000000     0.0000000     0.0000000     0.0000000     0.0000000     0.0000000     0.0000000
     0.0000000     0.0000000     0.0000000     0.0000000     0.0000000     0.0000000     0.0000000
     0.0000000     0.0000000     0.0000000     0.0000000     0.0000000     0.0000000     0.0000000

 total amount of memory used by VASP on root node   392927. kBytes
========================================================================

   base      :      30000. kBytes
   nonl-proj :      73667. kBytes
   fftplans  :      22714. kBytes
   grid      :      35610. kBytes
   one-center:        248. kBytes
   wavefun   :     230688. kBytes
 
  
  
 General timing and accounting informations for this job:
 ========================================================
  
                  Total CPU time used (sec):     9100.541
                            User time (sec):     9085.828
                          System time (sec):       14.713
                         Elapsed time (sec):     9114.145
  
                   Maximum memory used (kb):      412960.
                   Average memory used (kb):           0.
  
                          Minor page faults:       622410
                          Major page faults:            0
                 Voluntary context switches:        19026
