 running on  192 total cores
 distrk:  each k-point on  192 cores,    1 groups
 distr:  one band on   24 cores,    8 groups
 using from now: INCAR     
 vasp.5.4.1 24Jun15 (build Nov 25 2015 16:39:35) complex                        
  
 POSCAR found type information on POSCAR  C  N  H  Pb I 
 POSCAR found :  5 types and      96 ions
 scaLAPACK will be used

 ----------------------------------------------------------------------------- 
|                                                                             |
|  ADVICE TO THIS USER RUNNING 'VASP/VAMP'   (HEAR YOUR MASTER'S VOICE ...):  |
|                                                                             |
|      You have a (more or less) 'large supercell' and for larger cells       |
|      it might be more efficient to use real space projection opertators     |
|      So try LREAL= Auto  in the INCAR   file.                               |
|      Mind: At the moment your POTCAR file does not contain real space       |
|       projectors, and has to be modified,  BUT if you                       |
|      want to do an extremely  accurate calculation you might also keep the  |
|      reciprocal projection scheme          (i.e. LREAL=.FALSE.)             |
|                                                                             |
 ----------------------------------------------------------------------------- 


 ----------------------------------------------------------------------------- 
|                                                                             |
|  ADVICE TO THIS USER RUNNING 'VASP/VAMP'   (HEAR YOUR MASTER'S VOICE ...):  |
|                                                                             |
|      You enforced a specific xc-type in the INCAR file,                     |
|      a different type was found on the POTCAR file                          |
|          I HOPE YOU KNOW, WHAT YOU ARE  DOING                               |
|                                                                             |
 ----------------------------------------------------------------------------- 

 LDA part: xc-table for Pade appr. of Perdew
 POSCAR, INCAR and KPOINTS ok, starting setup
 WARNING: small aliasing (wrap around) errors must be expected
 FFT: planning ...
 WAVECAR not read
 entering main loop
       N       E                     dE             d eps       ncg     rms          rms(c)
DAV:   1     0.422633806471E+04    0.42263E+04   -0.19296E+05 32544   0.146E+03
DAV:   2     0.842783997378E+03   -0.33836E+04   -0.31330E+04 35656   0.322E+02
DAV:   3     0.234053700885E+03   -0.60873E+03   -0.58861E+03 43912   0.157E+02
DAV:   4     0.188345979174E+03   -0.45708E+02   -0.44669E+02 44192   0.438E+01
DAV:   5     0.186120418125E+03   -0.22256E+01   -0.22137E+01 50240   0.991E+00    0.978E+01
DAV:   6     0.553881539477E+02   -0.13073E+03   -0.15349E+03 37128   0.503E+01    0.483E+01
DAV:   7    -0.944636059650E+02   -0.14985E+03   -0.15984E+02 39264   0.216E+01    0.282E+01
DAV:   8    -0.203196545889E+03   -0.10873E+03   -0.64796E+01 37256   0.130E+01    0.183E+01
DAV:   9    -0.334378482125E+03   -0.13118E+03   -0.12169E+02 36496   0.162E+01    0.907E+00
DAV:  10    -0.382745184145E+03   -0.48367E+02   -0.50219E+01 37464   0.104E+01    0.665E+00
DAV:  11    -0.410111742648E+03   -0.27367E+02   -0.37264E+01 38112   0.809E+00    0.385E+00
DAV:  12    -0.420967871661E+03   -0.10856E+02   -0.16303E+01 40064   0.545E+00    0.251E+00
DAV:  13    -0.422842136126E+03   -0.18743E+01   -0.27599E+00 40264   0.262E+00    0.207E+00
DAV:  14    -0.423440061130E+03   -0.59793E+00   -0.82224E-01 39104   0.132E+00    0.118E+00
DAV:  15    -0.423525069156E+03   -0.85008E-01   -0.21323E-01 41064   0.739E-01    0.653E-01
DAV:  16    -0.423534174334E+03   -0.91052E-02   -0.33708E-02 42024   0.341E-01    0.416E-01
DAV:  17    -0.423537483508E+03   -0.33092E-02   -0.99865E-03 38912   0.169E-01    0.234E-01
DAV:  18    -0.423539315368E+03   -0.18319E-02   -0.27117E-03 39960   0.922E-02    0.815E-02
DAV:  19    -0.423539812729E+03   -0.49736E-03   -0.70784E-04 40136   0.532E-02    0.462E-02
DAV:  20    -0.423540063841E+03   -0.25111E-03   -0.22403E-04 38136   0.278E-02    0.255E-02
DAV:  21    -0.423540221443E+03   -0.15760E-03   -0.15040E-04 36928   0.199E-02    0.158E-02
DAV:  22    -0.423540235552E+03   -0.14109E-04   -0.19409E-05 43232   0.845E-03    0.995E-03
DAV:  23    -0.423540237792E+03   -0.22398E-05   -0.79058E-06 37576   0.415E-03    0.418E-03
DAV:  24    -0.423540241187E+03   -0.33959E-05   -0.33324E-06 37312   0.320E-03    0.200E-03
DAV:  25    -0.423540241354E+03   -0.16683E-06   -0.72810E-07 39560   0.145E-03    0.114E-03
DAV:  26    -0.423540241342E+03    0.12446E-07   -0.12187E-07 41920   0.673E-04    0.911E-04
DAV:  27    -0.423540241286E+03    0.55577E-07   -0.26894E-08 35592   0.331E-04    0.352E-04
DAV:  28    -0.423540241206E+03    0.80167E-07   -0.22738E-08 31128   0.278E-04    0.230E-04
DAV:  29    -0.423540241192E+03    0.13766E-07   -0.39601E-09 28840   0.153E-04    0.155E-04
DAV:  30    -0.423540241204E+03   -0.11707E-07   -0.16032E-09 26512   0.153E-04    0.608E-05
DAV:  31    -0.423540241210E+03   -0.56934E-08   -0.66482E-10 23120   0.998E-05
   1 F= -.42354024E+03 E0= -.42354024E+03  d E =0.000000E+00  mag=     0.0000     0.0000     0.0000
Application 22254242 resources: utime ~1745135s, stime ~2737s, Rss ~417080, inblocks ~2739465, outblocks ~4025672
