    2    2    1    1
  0.3405476E+02  0.4583961E-09  0.4583961E-09  0.4583961E-09  0.5000000E-15
  1.000000000000000E-004
  CAR 
 Name                                    
     18     16     16
 
  0.0000000E+00  0.0000000E+00  0.0000000E+00  0.4629630E-02
    1       -9.084484   1.000000
    2       -6.140585   1.000000
    3       -6.140585   1.000000
    4       -6.140585   1.000000
    5       -5.877470   1.000000
    6       -5.877470   1.000000
    7        2.150919   1.000000
    8        2.150919   1.000000
    9        2.150919   1.000000
   10        2.698325   0.000000
   11        6.650039   0.000000
   12        6.650039   0.000000
   13        6.650039   0.000000
   14        9.363638   0.000000
   15       11.483305   0.000000
   16       11.483305   0.000000
 
  0.1666667E+00  0.0000000E+00  0.0000000E+00  0.3703704E-01
    1       -8.983292   1.000000
    2       -6.121770   1.000000
    3       -6.121769   1.000000
    4       -6.059144   1.000000
    5       -5.878763   1.000000
    6       -5.878763   1.000000
    7        0.345078   1.000000
    8        1.918926   1.000000
    9        1.918926   1.000000
   10        3.848877   0.000000
   11        6.739326   0.000000
   12        6.989444   0.000000
   13        6.989444   0.000000
   14       10.373588   0.000000
   15       10.552857   0.000000
   16       10.552857   0.000000
 
  0.3333333E+00  0.0000000E+00  0.0000000E+00  0.3703704E-01
    1       -8.780332   1.000000
    2       -6.089423   1.000000
    3       -6.089423   1.000000
    4       -5.874913   1.000000
    5       -5.874913   1.000000
    6       -5.782660   1.000000
    7       -1.499176   1.000000
    8        1.532712   1.000000
    9        1.532712   1.000000
   10        3.915759   0.000000
   11        7.276695   0.000000
   12        7.276695   0.000000
   13        8.236295   0.000000
   14       10.009429   0.000000
   15       10.951766   0.000000
   16       10.951766   0.000000
 
  0.5000000E+00  0.0000000E+00  0.0000000E+00  0.1851852E-01
    1       -8.680568   1.000000
    2       -6.076878   1.000000
    3       -6.076878   1.000000
    4       -5.868727   1.000000
    5       -5.868727   1.000000
    6       -5.532848   1.000000
    7       -2.344885   1.000000
    8        1.365504   1.000000
    9        1.365504   1.000000
   10        3.805653   0.000000
   11        7.243177   0.000000
   12        7.243177   0.000000
   13        9.007847   0.000000
   14       10.588714   0.000000
   15       12.361824   0.000000
   16       12.361824   0.000000
 
  0.1666667E+00  0.1666667E+00  0.0000000E+00  0.2777778E-01
    1       -8.949900   1.000000
    2       -6.102721   1.000000
    3       -6.102721   1.000000
    4       -6.060452   1.000000
    5       -5.886051   1.000000
    6       -5.869817   1.000000
    7        0.333612   1.000000
    8        1.534852   1.000000
    9        1.534852   1.000000
   10        4.512050   0.000000
   11        5.721625   0.000000
   12        7.600739   0.000000
   13        7.600739   0.000000
   14        9.213667   0.000000
   15       11.141469   0.000000
   16       11.721098   0.000000
 
  0.3333333E+00  0.1666667E+00  0.0000000E+00  0.1111111E+00
    1       -8.781916   1.000000
    2       -6.077671   1.000000
    3       -6.066072   1.000000
    4       -5.930483   1.000000
    5       -5.864068   1.000000
    6       -5.807027   1.000000
    7       -1.044938   1.000000
    8        0.999711   1.000000
    9        1.121911   1.000000
   10        4.887753   0.000000
   11        6.061125   0.000000
   12        7.742011   0.000000
   13        8.167890   0.000000
   14        9.911964   0.000000
   15       11.752841   0.000000
   16       11.843927   0.000000
 
  0.5000000E+00  0.1666667E+00  0.0000000E+00  0.1111111E+00
    1       -8.650477   1.000000
    2       -6.062966   1.000000
    3       -6.050443   1.000000
    4       -5.894484   1.000000
    5       -5.865763   1.000000
    6       -5.508744   1.000000
    7       -2.132832   1.000000
    8        0.464408   1.000000
    9        1.039744   1.000000
   10        4.794333   0.000000
   11        6.728856   0.000000
   12        7.992794   0.000000
   13        8.585605   0.000000
   14       10.795031   0.000000
   15       12.002708   0.000000
   16       12.453780   0.000000
 
 -0.3333333E+00  0.1666667E+00  0.0000000E+00  0.1111111E+00
    1       -8.682850   1.000000
    2       -6.064503   1.000000
    3       -6.064071   1.000000
    4       -5.881375   1.000000
    5       -5.880497   1.000000
    6       -5.592488   1.000000
    7       -1.867593   1.000000
    8        0.328996   1.000000
    9        1.340965   1.000000
   10        4.847357   0.000000
   11        6.972919   0.000000
   12        7.687082   0.000000
   13        8.348658   0.000000
   14       10.545180   0.000000
   15       11.154926   0.000000
   16       12.357952   0.000000
 
 -0.1666667E+00  0.1666667E+00  0.0000000E+00  0.5555556E-01
    1       -8.848478   1.000000
    2       -6.100225   1.000000
    3       -6.086096   1.000000
    4       -5.932428   1.000000
    5       -5.887531   1.000000
    6       -5.855127   1.000000
    7       -0.637331   1.000000
    8        0.872978   1.000000
    9        1.797017   1.000000
   10        4.679294   0.000000
   11        6.711461   0.000000
   12        7.218912   0.000000
   13        7.525553   0.000000
   14        9.800307   0.000000
   15       10.992504   0.000000
   16       11.740366   0.000000
 
  0.3333333E+00  0.3333333E+00  0.0000000E+00  0.2777778E-01
    1       -8.684116   1.000000
    2       -6.020441   1.000000
    3       -6.020441   1.000000
    4       -5.971130   1.000000
    5       -5.854509   1.000000
    6       -5.693575   1.000000
    7       -1.396837   1.000000
    8        0.632274   1.000000
    9        0.632274   1.000000
   10        4.748543   0.000000
   11        5.160382   0.000000
   12        9.338413   0.000000
   13        9.538011   0.000000
   14        9.538011   0.000000
   15       12.377811   0.000000
   16       13.928102   0.000000
 
  0.5000000E+00  0.3333333E+00  0.0000000E+00  0.1111111E+00
    1       -8.588824   1.000000
    2       -6.019670   1.000000
    3       -5.999019   1.000000
    4       -5.945054   1.000000
    5       -5.855630   1.000000
    6       -5.443699   1.000000
    7       -2.020406   1.000000
    8       -0.041697   1.000000
    9        0.498100   1.000000
   10        4.837724   0.000000
   11        5.734412   0.000000
   12        8.987481   0.000000
   13        9.737398   0.000000
   14       11.068716   0.000000
   15       12.755767   0.000000
   16       13.491585   0.000000
 
 -0.3333333E+00  0.3333333E+00  0.0000000E+00  0.5555556E-01
    1       -8.589205   1.000000
    2       -6.039436   1.000000
    3       -6.018376   1.000000
    4       -5.906011   1.000000
    5       -5.873104   1.000000
    6       -5.381518   1.000000
    7       -2.056976   1.000000
    8       -0.505296   1.000000
    9        0.810574   1.000000
   10        5.064219   0.000000
   11        7.148736   0.000000
   12        8.892495   0.000000
   13        8.995902   0.000000
   14        9.483278   0.000000
   15       11.071815   0.000000
   16       14.179625   0.000000
 
  0.5000000E+00  0.5000000E+00  0.0000000E+00  0.1388889E-01
    1       -8.557323   1.000000
    2       -5.985120   1.000000
    3       -5.975520   1.000000
    4       -5.975520   1.000000
    5       -5.846822   1.000000
    6       -5.397179   1.000000
    7       -2.226364   1.000000
    8        0.262700   1.000000
    9        0.262700   1.000000
   10        4.591548   0.000000
   11        4.701185   0.000000
   12       10.782241   0.000000
   13       11.127568   0.000000
   14       11.127568   0.000000
   15       12.928144   0.000000
   16       13.596182   0.000000
 
  0.5000000E+00  0.3333333E+00  0.1666667E+00  0.1111111E+00
    1       -8.651897   1.000000
    2       -6.044613   1.000000
    3       -6.036899   1.000000
    4       -5.920203   1.000000
    5       -5.865111   1.000000
    6       -5.568996   1.000000
    7       -1.703572   1.000000
    8        0.042039   1.000000
    9        0.811394   1.000000
   10        5.607416   0.000000
   11        6.152978   0.000000
   12        7.324189   0.000000
   13        9.432910   0.000000
   14       10.225235   0.000000
   15       12.294092   0.000000
   16       13.458639   0.000000
 
 -0.3333333E+00  0.3333333E+00  0.1666667E+00  0.1111111E+00
    1       -8.589200   1.000000
    2       -6.037200   1.000000
    3       -6.022001   1.000000
    4       -5.902929   1.000000
    5       -5.874908   1.000000
    6       -5.380728   1.000000
    7       -2.093589   1.000000
    8       -0.277898   1.000000
    9        0.525014   1.000000
   10        5.740941   0.000000
   11        6.645095   0.000000
   12        7.777507   0.000000
   13        9.299039   0.000000
   14        9.979900   0.000000
   15       12.496389   0.000000
   16       13.254242   0.000000
 
 -0.3333333E+00  0.5000000E+00  0.1666667E+00  0.5555556E-01
    1       -8.558597   1.000000
    2       -6.008655   1.000000
    3       -6.007731   1.000000
    4       -5.926474   1.000000
    5       -5.864979   1.000000
    6       -5.333362   1.000000
    7       -2.138552   1.000000
    8       -0.095704   1.000000
    9       -0.006995   1.000000
   10        5.757382   0.000000
   11        5.793363   0.000000
   12        8.699323   0.000000
   13        8.980745   0.000000
   14       11.572878   0.000000
   15       13.115713   0.000000
   16       13.368429   0.000000
