       N       E                     dE             d eps       ncg     rms          rms(c)
DAV:   1     0.100059486187E+03    0.10006E+03   -0.81295E+03   520   0.945E+02
DAV:   2    -0.249203706513E+01   -0.10255E+03   -0.97260E+02   616   0.235E+02
DAV:   3    -0.622981558767E+01   -0.37378E+01   -0.37327E+01   632   0.466E+01
DAV:   4    -0.626346718641E+01   -0.33652E-01   -0.33650E-01   768   0.397E+00
DAV:   5    -0.626354297626E+01   -0.75790E-04   -0.75790E-04   672   0.178E-01    0.192E+00
DAV:   6    -0.604360470033E+01    0.21994E+00   -0.36792E-01   648   0.758E+00    0.960E-01
DAV:   7    -0.602232191154E+01    0.21283E-01   -0.80317E-02   600   0.190E+00    0.433E-01
DAV:   8    -0.601971061574E+01    0.26113E-02   -0.91796E-03   592   0.111E+00    0.119E-01
DAV:   9    -0.601946967797E+01    0.24094E-03   -0.11238E-03   648   0.402E-01    0.252E-02
DAV:  10    -0.601944129323E+01    0.28385E-04   -0.11292E-04   608   0.140E-01    0.120E-02
DAV:  11    -0.601944226695E+01   -0.97372E-06   -0.34504E-05   600   0.537E-02    0.445E-03
DAV:  12    -0.601944173259E+01    0.53435E-06   -0.36500E-06   584   0.196E-02
   1 F= -.60194417E+01 E0= -.60194417E+01  d E =-.601944E+01
