PROCAR new format
# of k-points:   16         # of bands:  16         # of ions:   2

 k-point    1 :    0.00000000 0.00000000 0.00000000     weight = 0.00462963

band   1 # energy   -9.08448363 # occ.  2.00000000
 
ion      s      p      d    tot
  1  0.063  0.000  0.000  0.063
  2  0.571  0.000  0.000  0.571
tot  0.635  0.000  0.000  0.635
 
band   2 # energy   -6.14058528 # occ.  2.00000000
 
ion      s      p      d    tot
  1  0.000  0.000  0.903  0.904
  2  0.000  0.021  0.001  0.021
tot  0.000  0.021  0.904  0.925
 
band   3 # energy   -6.14058525 # occ.  2.00000000
 
ion      s      p      d    tot
  1  0.000  0.000  0.903  0.904
  2  0.000  0.021  0.001  0.021
tot  0.000  0.021  0.904  0.925
 
band   4 # energy   -6.14058525 # occ.  2.00000000
 
ion      s      p      d    tot
  1  0.000  0.000  0.903  0.904
  2  0.000  0.021  0.001  0.021
tot  0.000  0.021  0.904  0.925
 
band   5 # energy   -5.87746973 # occ.  2.00000000
 
ion      s      p      d    tot
  1  0.000  0.000  0.945  0.945
  2  0.000  0.000  0.001  0.001
tot  0.000  0.000  0.946  0.946
 
band   6 # energy   -5.87746973 # occ.  2.00000000
 
ion      s      p      d    tot
  1  0.000  0.000  0.945  0.945
  2  0.000  0.000  0.001  0.001
tot  0.000  0.000  0.946  0.946
 
band   7 # energy    2.15091921 # occ.  2.00000000
 
ion      s      p      d    tot
  1  0.000  0.028  0.078  0.106
  2  0.000  0.498  0.001  0.499
tot  0.000  0.526  0.079  0.605
 
band   8 # energy    2.15091921 # occ.  2.00000000
 
ion      s      p      d    tot
  1  0.000  0.028  0.078  0.106
  2  0.000  0.498  0.001  0.499
tot  0.000  0.526  0.079  0.605
 
band   9 # energy    2.15091926 # occ.  2.00000000
 
ion      s      p      d    tot
  1  0.000  0.028  0.078  0.106
  2  0.000  0.498  0.001  0.499
tot  0.000  0.526  0.079  0.605
 
band  10 # energy    2.69832507 # occ.  0.00000000
 
ion      s      p      d    tot
  1  0.311  0.000  0.000  0.311
  2  0.239  0.000  0.000  0.239
tot  0.550  0.000  0.000  0.550
 
band  11 # energy    6.65003865 # occ.  0.00000000
 
ion      s      p      d    tot
  1  0.000  0.246  0.001  0.247
  2  0.000  0.009  0.097  0.106
tot  0.000  0.254  0.099  0.353
 
band  12 # energy    6.65003866 # occ.  0.00000000
 
ion      s      p      d    tot
  1  0.000  0.246  0.001  0.247
  2  0.000  0.009  0.097  0.106
tot  0.000  0.254  0.099  0.353
 
band  13 # energy    6.65003866 # occ.  0.00000000
 
ion      s      p      d    tot
  1  0.000  0.246  0.001  0.247
  2  0.000  0.009  0.097  0.106
tot  0.000  0.254  0.099  0.353
 
band  14 # energy    9.36363785 # occ.  0.00000000
 
ion      s      p      d    tot
  1  0.236  0.000  0.000  0.236
  2  0.006  0.000  0.000  0.006
tot  0.242  0.000  0.000  0.242
 
band  15 # energy   11.48330495 # occ.  0.00000000
 
ion      s      p      d    tot
  1  0.000  0.000  0.100  0.100
  2  0.000  0.000  0.264  0.264
tot  0.000  0.000  0.364  0.364
 
band  16 # energy   11.48330496 # occ.  0.00000000
 
ion      s      p      d    tot
  1  0.000  0.000  0.100  0.100
  2  0.000  0.000  0.264  0.264
tot  0.000  0.000  0.364  0.364
 

 k-point    2 :    0.16666667 0.00000000 0.00000000     weight = 0.03703704

band   1 # energy   -8.98329158 # occ.  2.00000000
 
ion      s      p      d    tot
  1  0.053  0.003  0.017  0.073
  2  0.576  0.000  0.000  0.577
tot  0.630  0.003  0.017  0.650
 
band   2 # energy   -6.12176951 # occ.  2.00000000
 
ion      s      p      d    tot
  1  0.000  0.000  0.906  0.907
  2  0.000  0.020  0.001  0.020
tot  0.000  0.020  0.907  0.927
 
band   3 # energy   -6.12176948 # occ.  2.00000000
 
ion      s      p      d    tot
  1  0.000  0.000  0.906  0.907
  2  0.000  0.020  0.001  0.020
tot  0.000  0.020  0.907  0.927
 
band   4 # energy   -6.05914382 # occ.  2.00000000
 
ion      s      p      d    tot
  1  0.005  0.000  0.885  0.890
  2  0.006  0.020  0.001  0.026
tot  0.011  0.020  0.886  0.916
 
band   5 # energy   -5.87876340 # occ.  2.00000000
 
ion      s      p      d    tot
  1  0.000  0.000  0.945  0.945
  2  0.000  0.000  0.001  0.001
tot  0.000  0.000  0.946  0.946
 
band   6 # energy   -5.87876339 # occ.  2.00000000
 
ion      s      p      d    tot
  1  0.000  0.000  0.945  0.945
  2  0.000  0.000  0.001  0.001
tot  0.000  0.000  0.946  0.946
 
band   7 # energy    0.34507812 # occ.  2.00000000
 
ion      s      p      d    tot
  1  0.125  0.026  0.057  0.208
  2  0.077  0.264  0.002  0.342
tot  0.202  0.289  0.059  0.550
 
band   8 # energy    1.91892551 # occ.  2.00000000
 
ion      s      p      d    tot
  1  0.000  0.040  0.069  0.109
  2  0.000  0.475  0.001  0.476
tot  0.000  0.515  0.070  0.586
 
band   9 # energy    1.91892556 # occ.  2.00000000
 
ion      s      p      d    tot
  1  0.000  0.040  0.069  0.109
  2  0.000  0.475  0.001  0.476
tot  0.000  0.515  0.070  0.586
 
band  10 # energy    3.84887734 # occ.  0.00000000
 
ion      s      p      d    tot
  1  0.214  0.033  0.006  0.252
  2  0.132  0.140  0.009  0.280
tot  0.346  0.172  0.014  0.533
 
band  11 # energy    6.73932562 # occ.  0.00000000
 
ion      s      p      d    tot
  1  0.049  0.124  0.013  0.186
  2  0.016  0.109  0.064  0.188
tot  0.065  0.233  0.077  0.374
 
band  12 # energy    6.98944427 # occ.  0.00000000
 
ion      s      p      d    tot
  1  0.000  0.232  0.006  0.239
  2  0.000  0.031  0.096  0.127
tot  0.000  0.263  0.103  0.366
 
band  13 # energy    6.98944427 # occ.  0.00000000
 
ion      s      p      d    tot
  1  0.000  0.232  0.006  0.239
  2  0.000  0.031  0.096  0.127
tot  0.000  0.263  0.103  0.366
 
band  14 # energy   10.37358793 # occ.  0.00000000
 
ion      s      p      d    tot
  1  0.119  0.063  0.004  0.185
  2  0.003  0.008  0.012  0.024
tot  0.123  0.071  0.016  0.209
 
band  15 # energy   10.55285689 # occ.  0.00000000
 
ion      s      p      d    tot
  1  0.000  0.007  0.077  0.084
  2  0.000  0.001  0.162  0.162
tot  0.000  0.008  0.238  0.246
 
band  16 # energy   10.55285689 # occ.  0.00000000
 
ion      s      p      d    tot
  1  0.000  0.007  0.077  0.084
  2  0.000  0.001  0.162  0.162
tot  0.000  0.008  0.238  0.246
 

 k-point    3 :    0.33333333 0.00000000 0.00000000     weight = 0.03703704

band   1 # energy   -8.78033185 # occ.  2.00000000
 
ion      s      p      d    tot
  1  0.030  0.008  0.067  0.104
  2  0.582  0.000  0.000  0.582
tot  0.612  0.008  0.067  0.686
 
band   2 # energy   -6.08942318 # occ.  2.00000000
 
ion      s      p      d    tot
  1  0.000  0.000  0.912  0.912
  2  0.000  0.017  0.001  0.018
tot  0.000  0.018  0.913  0.930
 
band   3 # energy   -6.08942312 # occ.  2.00000000
 
ion      s      p      d    tot
  1  0.000  0.000  0.912  0.912
  2  0.000  0.017  0.001  0.018
tot  0.000  0.018  0.913  0.930
 
band   4 # energy   -5.87491300 # occ.  2.00000000
 
ion      s      p      d    tot
  1  0.000  0.000  0.946  0.946
  2  0.000  0.000  0.001  0.001
tot  0.000  0.000  0.947  0.947
 
band   5 # energy   -5.87491295 # occ.  2.00000000
 
ion      s      p      d    tot
  1  0.000  0.000  0.946  0.946
  2  0.000  0.000  0.001  0.001
tot  0.000  0.000  0.947  0.947
 
band   6 # energy   -5.78266031 # occ.  2.00000000
 
ion      s      p      d    tot
  1  0.011  0.001  0.849  0.861
  2  0.035  0.013  0.001  0.049
tot  0.046  0.013  0.850  0.909
 
band   7 # energy   -1.49917594 # occ.  2.00000000
 
ion      s      p      d    tot
  1  0.150  0.028  0.038  0.216
  2  0.041  0.228  0.002  0.272
tot  0.191  0.256  0.040  0.487
 
band   8 # energy    1.53271175 # occ.  2.00000000
 
ion      s      p      d    tot
  1  0.000  0.057  0.054  0.111
  2  0.000  0.448  0.002  0.449
tot  0.000  0.505  0.056  0.560
 
band   9 # energy    1.53271179 # occ.  2.00000000
 
ion      s      p      d    tot
  1  0.000  0.057  0.054  0.111
  2  0.000  0.448  0.002  0.449
tot  0.000  0.505  0.056  0.560
 
band  10 # energy    3.91575938 # occ.  0.00000000
 
ion      s      p      d    tot
  1  0.236  0.040  0.005  0.282
  2  0.103  0.058  0.025  0.186
tot  0.339  0.098  0.031  0.468
 
band  11 # energy    7.27669469 # occ.  0.00000000
 
ion      s      p      d    tot
  1  0.000  0.184  0.023  0.207
  2  0.000  0.039  0.096  0.135
tot  0.000  0.223  0.119  0.342
 
band  12 # energy    7.27669470 # occ.  0.00000000
 
ion      s      p      d    tot
  1  0.000  0.184  0.023  0.207
  2  0.000  0.039  0.096  0.135
tot  0.000  0.223  0.119  0.342
 
band  13 # energy    8.23629487 # occ.  0.00000000
 
ion      s      p      d    tot
  1  0.035  0.057  0.016  0.107
  2  0.023  0.252  0.027  0.301
tot  0.058  0.308  0.042  0.408
 
band  14 # energy   10.00942945 # occ.  0.00000000
 
ion      s      p      d    tot
  1  0.084  0.016  0.013  0.113
  2  0.011  0.006  0.012  0.028
tot  0.095  0.022  0.025  0.142
 
band  15 # energy   10.95176624 # occ.  0.00000000
 
ion      s      p      d    tot
  1  0.000  0.040  0.063  0.104
  2  0.000  0.019  0.165  0.184
tot  0.000  0.059  0.228  0.287
 
band  16 # energy   10.95176625 # occ.  0.00000000
 
ion      s      p      d    tot
  1  0.000  0.040  0.063  0.104
  2  0.000  0.019  0.165  0.184
tot  0.000  0.059  0.228  0.287
 

 k-point    4 :    0.50000000 0.00000000 0.00000000     weight = 0.01851852

band   1 # energy   -8.68056772 # occ.  2.00000000
 
ion      s      p      d    tot
  1  0.017  0.010  0.100  0.127
  2  0.580  0.000  0.000  0.580
tot  0.597  0.010  0.100  0.707
 
band   2 # energy   -6.07687784 # occ.  2.00000000
 
ion      s      p      d    tot
  1  0.000  0.000  0.914  0.914
  2  0.000  0.016  0.001  0.017
tot  0.000  0.017  0.915  0.931
 
band   3 # energy   -6.07687777 # occ.  2.00000000
 
ion      s      p      d    tot
  1  0.000  0.000  0.914  0.914
  2  0.000  0.016  0.001  0.017
tot  0.000  0.017  0.915  0.931
 
band   4 # energy   -5.86872743 # occ.  2.00000000
 
ion      s      p      d    tot
  1  0.000  0.000  0.947  0.947
  2  0.000  0.000  0.001  0.001
tot  0.000  0.000  0.948  0.948
 
band   5 # energy   -5.86872737 # occ.  2.00000000
 
ion      s      p      d    tot
  1  0.000  0.000  0.947  0.947
  2  0.000  0.000  0.001  0.001
tot  0.000  0.000  0.948  0.948
 
band   6 # energy   -5.53284822 # occ.  2.00000000
 
ion      s      p      d    tot
  1  0.006  0.002  0.850  0.858
  2  0.069  0.001  0.001  0.071
tot  0.075  0.002  0.851  0.929
 
band   7 # energy   -2.34488509 # occ.  2.00000000
 
ion      s      p      d    tot
  1  0.170  0.026  0.000  0.197
  2  0.008  0.228  0.001  0.237
tot  0.178  0.254  0.002  0.433
 
band   8 # energy    1.36550424 # occ.  2.00000000
 
ion      s      p      d    tot
  1  0.000  0.063  0.048  0.111
  2  0.000  0.439  0.001  0.441
tot  0.000  0.502  0.049  0.551
 
band   9 # energy    1.36550427 # occ.  2.00000000
 
ion      s      p      d    tot
  1  0.000  0.063  0.048  0.111
  2  0.000  0.439  0.001  0.441
tot  0.000  0.502  0.049  0.551
 
band  10 # energy    3.80565260 # occ.  0.00000000
 
ion      s      p      d    tot
  1  0.246  0.032  0.009  0.287
  2  0.099  0.044  0.028  0.172
tot  0.344  0.077  0.038  0.459
 
band  11 # energy    7.24317668 # occ.  0.00000000
 
ion      s      p      d    tot
  1  0.000  0.156  0.032  0.188
  2  0.000  0.035  0.097  0.131
tot  0.000  0.190  0.129  0.319
 
band  12 # energy    7.24317668 # occ.  0.00000000
 
ion      s      p      d    tot
  1  0.000  0.156  0.032  0.188
  2  0.000  0.035  0.097  0.131
tot  0.000  0.190  0.129  0.319
 
band  13 # energy    9.00784691 # occ.  0.00000000
 
ion      s      p      d    tot
  1  0.001  0.035  0.024  0.060
  2  0.001  0.165  0.002  0.168
tot  0.001  0.201  0.026  0.228
 
band  14 # energy   10.58871448 # occ.  0.00000000
 
ion      s      p      d    tot
  1  0.115  0.001  0.000  0.116
  2  0.004  0.215  0.010  0.229
tot  0.119  0.216  0.010  0.345
 
band  15 # energy   12.36182360 # occ.  0.00000000
 
ion      s      p      d    tot
  1  0.000  0.097  0.023  0.120
  2  0.000  0.035  0.184  0.220
tot  0.000  0.133  0.207  0.340
 
band  16 # energy   12.36182360 # occ.  0.00000000
 
ion      s      p      d    tot
  1  0.000  0.097  0.023  0.120
  2  0.000  0.035  0.184  0.220
tot  0.000  0.133  0.207  0.340
 

 k-point    5 :    0.16666667 0.16666667 0.00000000     weight = 0.02777778

band   1 # energy   -8.94989995 # occ.  2.00000000
 
ion      s      p      d    tot
  1  0.050  0.003  0.024  0.077
  2  0.578  0.000  0.000  0.578
tot  0.628  0.004  0.024  0.655
 
band   2 # energy   -6.10272089 # occ.  2.00000000
 
ion      s      p      d    tot
  1  0.000  0.000  0.910  0.910
  2  0.000  0.018  0.001  0.019
tot  0.000  0.019  0.911  0.929
 
band   3 # energy   -6.10272088 # occ.  2.00000000
 
ion      s      p      d    tot
  1  0.000  0.000  0.910  0.910
  2  0.000  0.018  0.001  0.019
tot  0.000  0.019  0.911  0.929
 
band   4 # energy   -6.06045184 # occ.  2.00000000
 
ion      s      p      d    tot
  1  0.006  0.000  0.876  0.882
  2  0.007  0.021  0.000  0.029
tot  0.014  0.021  0.876  0.911
 
band   5 # energy   -5.88605077 # occ.  2.00000000
 
ion      s      p      d    tot
  1  0.000  0.000  0.941  0.942
  2  0.001  0.000  0.001  0.002
tot  0.001  0.000  0.943  0.944
 
band   6 # energy   -5.86981650 # occ.  2.00000000
 
ion      s      p      d    tot
  1  0.000  0.000  0.947  0.947
  2  0.000  0.000  0.001  0.001
tot  0.000  0.000  0.947  0.947
 
band   7 # energy    0.33361188 # occ.  2.00000000
 
ion      s      p      d    tot
  1  0.158  0.013  0.063  0.234
  2  0.093  0.246  0.002  0.341
tot  0.251  0.259  0.065  0.575
 
band   8 # energy    1.53485190 # occ.  2.00000000
 
ion      s      p      d    tot
  1  0.000  0.055  0.058  0.113
  2  0.000  0.436  0.002  0.438
tot  0.000  0.490  0.061  0.551
 
band   9 # energy    1.53485193 # occ.  2.00000000
 
ion      s      p      d    tot
  1  0.000  0.055  0.058  0.113
  2  0.000  0.436  0.002  0.438
tot  0.000  0.490  0.061  0.551
 
band  10 # energy    4.51204989 # occ.  0.00000000
 
ion      s      p      d    tot
  1  0.200  0.009  0.016  0.225
  2  0.103  0.252  0.004  0.359
tot  0.303  0.261  0.020  0.585
 
band  11 # energy    5.72162469 # occ.  0.00000000
 
ion      s      p      d    tot
  1  0.039  0.166  0.004  0.208
  2  0.019  0.001  0.068  0.087
tot  0.057  0.166  0.072  0.295
 
band  12 # energy    7.60073882 # occ.  0.00000000
 
ion      s      p      d    tot
  1  0.000  0.214  0.012  0.225
  2  0.000  0.078  0.098  0.176
tot  0.000  0.292  0.109  0.401
 
band  13 # energy    7.60073883 # occ.  0.00000000
 
ion      s      p      d    tot
  1  0.000  0.214  0.012  0.225
  2  0.000  0.078  0.098  0.176
tot  0.000  0.292  0.109  0.401
 
band  14 # energy    9.21366672 # occ.  0.00000000
 
ion      s      p      d    tot
  1  0.000  0.007  0.064  0.072
  2  0.009  0.011  0.094  0.113
tot  0.009  0.018  0.158  0.185
 
band  15 # energy   11.14146937 # occ.  0.00000000
 
ion      s      p      d    tot
  1  0.157  0.095  0.005  0.257
  2  0.000  0.006  0.032  0.038
tot  0.157  0.100  0.037  0.295
 
band  16 # energy   11.72109805 # occ.  0.00000000
 
ion      s      p      d    tot
  1  0.000  0.000  0.089  0.089
  2  0.000  0.000  0.275  0.275
tot  0.000  0.000  0.364  0.364
 

 k-point    6 :    0.33333333 0.16666667 0.00000000     weight = 0.11111111

band   1 # energy   -8.78191636 # occ.  2.00000000
 
ion      s      p      d    tot
  1  0.030  0.008  0.064  0.102
  2  0.582  0.000  0.000  0.582
tot  0.612  0.008  0.064  0.685
 
band   2 # energy   -6.07767137 # occ.  2.00000000
 
ion      s      p      d    tot
  1  0.000  0.000  0.912  0.913
  2  0.000  0.017  0.001  0.018
tot  0.001  0.017  0.913  0.931
 
band   3 # energy   -6.06607150 # occ.  2.00000000
 
ion      s      p      d    tot
  1  0.000  0.001  0.916  0.917
  2  0.000  0.016  0.001  0.017
tot  0.000  0.016  0.917  0.933
 
band   4 # energy   -5.93048300 # occ.  2.00000000
 
ion      s      p      d    tot
  1  0.003  0.000  0.912  0.915
  2  0.004  0.008  0.001  0.013
tot  0.007  0.008  0.913  0.928
 
band   5 # energy   -5.86406767 # occ.  2.00000000
 
ion      s      p      d    tot
  1  0.000  0.000  0.948  0.948
  2  0.000  0.000  0.001  0.001
tot  0.000  0.000  0.948  0.948
 
band   6 # energy   -5.80702663 # occ.  2.00000000
 
ion      s      p      d    tot
  1  0.009  0.000  0.872  0.881
  2  0.027  0.009  0.001  0.037
tot  0.036  0.010  0.873  0.918
 
band   7 # energy   -1.04493786 # occ.  2.00000000
 
ion      s      p      d    tot
  1  0.169  0.020  0.052  0.240
  2  0.059  0.228  0.002  0.289
tot  0.228  0.247  0.054  0.529
 
band   8 # energy    0.99971082 # occ.  2.00000000
 
ion      s      p      d    tot
  1  0.023  0.059  0.047  0.129
  2  0.008  0.377  0.003  0.388
tot  0.030  0.436  0.050  0.517
 
band   9 # energy    1.12191117 # occ.  2.00000000
 
ion      s      p      d    tot
  1  0.000  0.067  0.045  0.112
  2  0.000  0.412  0.002  0.414
tot  0.000  0.479  0.047  0.526
 
band  10 # energy    4.88775283 # occ.  0.00000000
 
ion      s      p      d    tot
  1  0.199  0.031  0.015  0.245
  2  0.061  0.177  0.026  0.265
tot  0.260  0.208  0.041  0.510
 
band  11 # energy    6.06112521 # occ.  0.00000000
 
ion      s      p      d    tot
  1  0.044  0.130  0.013  0.187
  2  0.034  0.076  0.051  0.161
tot  0.079  0.206  0.063  0.348
 
band  12 # energy    7.74201129 # occ.  0.00000000
 
ion      s      p      d    tot
  1  0.001  0.096  0.033  0.130
  2  0.009  0.074  0.079  0.161
tot  0.009  0.170  0.112  0.291
 
band  13 # energy    8.16788983 # occ.  0.00000000
 
ion      s      p      d    tot
  1  0.000  0.180  0.022  0.202
  2  0.000  0.093  0.099  0.192
tot  0.000  0.273  0.121  0.394
 
band  14 # energy    9.91196405 # occ.  0.00000000
 
ion      s      p      d    tot
  1  0.012  0.072  0.042  0.126
  2  0.011  0.122  0.082  0.215
tot  0.022  0.194  0.125  0.341
 
band  15 # energy   11.75284092 # occ.  0.00000000
 
ion      s      p      d    tot
  1  0.058  0.052  0.024  0.133
  2  0.002  0.005  0.058  0.066
tot  0.060  0.057  0.082  0.199
 
band  16 # energy   11.84392679 # occ.  0.00000000
 
ion      s      p      d    tot
  1  0.000  0.028  0.064  0.092
  2  0.000  0.012  0.225  0.238
tot  0.000  0.041  0.289  0.330
 

 k-point    7 :    0.50000000 0.16666667 0.00000000     weight = 0.11111111

band   1 # energy   -8.65047654 # occ.  2.00000000
 
ion      s      p      d    tot
  1  0.013  0.011  0.109  0.133
  2  0.580  0.000  0.000  0.580
tot  0.593  0.011  0.109  0.713
 
band   2 # energy   -6.06296576 # occ.  2.00000000
 
ion      s      p      d    tot
  1  0.000  0.000  0.915  0.916
  2  0.000  0.015  0.001  0.016
tot  0.000  0.015  0.916  0.931
 
band   3 # energy   -6.05044344 # occ.  2.00000000
 
ion      s      p      d    tot
  1  0.000  0.001  0.919  0.919
  2  0.000  0.014  0.001  0.016
tot  0.000  0.015  0.920  0.935
 
band   4 # energy   -5.89448380 # occ.  2.00000000
 
ion      s      p      d    tot
  1  0.000  0.000  0.941  0.941
  2  0.000  0.001  0.001  0.002
tot  0.000  0.001  0.942  0.943
 
band   5 # energy   -5.86576258 # occ.  2.00000000
 
ion      s      p      d    tot
  1  0.000  0.000  0.948  0.948
  2  0.000  0.000  0.001  0.001
tot  0.000  0.000  0.948  0.948
 
band   6 # energy   -5.50874433 # occ.  2.00000000
 
ion      s      p      d    tot
  1  0.007  0.002  0.837  0.846
  2  0.074  0.003  0.001  0.078
tot  0.081  0.005  0.838  0.924
 
band   7 # energy   -2.13283240 # occ.  2.00000000
 
ion      s      p      d    tot
  1  0.188  0.021  0.010  0.219
  2  0.013  0.225  0.002  0.241
tot  0.201  0.247  0.012  0.460
 
band   8 # energy    0.46440837 # occ.  2.00000000
 
ion      s      p      d    tot
  1  0.036  0.061  0.040  0.136
  2  0.011  0.339  0.003  0.353
tot  0.047  0.399  0.044  0.490
 
band   9 # energy    1.03974406 # occ.  2.00000000
 
ion      s      p      d    tot
  1  0.000  0.070  0.040  0.110
  2  0.000  0.413  0.002  0.415
tot  0.000  0.484  0.041  0.525
 
band  10 # energy    4.79433288 # occ.  0.00000000
 
ion      s      p      d    tot
  1  0.194  0.040  0.016  0.250
  2  0.062  0.137  0.031  0.230
tot  0.256  0.177  0.047  0.480
 
band  11 # energy    6.72885606 # occ.  0.00000000
 
ion      s      p      d    tot
  1  0.029  0.095  0.027  0.151
  2  0.009  0.086  0.065  0.159
tot  0.037  0.181  0.092  0.310
 
band  12 # energy    7.99279370 # occ.  0.00000000
 
ion      s      p      d    tot
  1  0.000  0.150  0.031  0.181
  2  0.000  0.069  0.100  0.170
tot  0.000  0.219  0.132  0.351
 
band  13 # energy    8.58560527 # occ.  0.00000000
 
ion      s      p      d    tot
  1  0.021  0.082  0.030  0.133
  2  0.018  0.161  0.053  0.232
tot  0.039  0.242  0.083  0.364
 
band  14 # energy   10.79503106 # occ.  0.00000000
 
ion      s      p      d    tot
  1  0.009  0.078  0.028  0.115
  2  0.002  0.113  0.038  0.154
tot  0.011  0.191  0.066  0.269
 
band  15 # energy   12.00270811 # occ.  0.00000000
 
ion      s      p      d    tot
  1  0.057  0.032  0.026  0.115
  2  0.008  0.075  0.048  0.131
tot  0.064  0.107  0.075  0.246
 
band  16 # energy   12.45377956 # occ.  0.00000000
 
ion      s      p      d    tot
  1  0.000  0.089  0.032  0.121
  2  0.000  0.028  0.214  0.242
tot  0.000  0.117  0.245  0.362
 

 k-point    8 :   -0.33333333 0.16666667 0.00000000     weight = 0.11111111

band   1 # energy   -8.68284991 # occ.  2.00000000
 
ion      s      p      d    tot
  1  0.017  0.010  0.097  0.124
  2  0.581  0.000  0.000  0.581
tot  0.598  0.010  0.097  0.706
 
band   2 # energy   -6.06450350 # occ.  2.00000000
 
ion      s      p      d    tot
  1  0.000  0.001  0.916  0.917
  2  0.000  0.016  0.001  0.017
tot  0.000  0.016  0.917  0.934
 
band   3 # energy   -6.06407095 # occ.  2.00000000
 
ion      s      p      d    tot
  1  0.000  0.000  0.915  0.916
  2  0.000  0.014  0.001  0.015
tot  0.000  0.015  0.917  0.931
 
band   4 # energy   -5.88137484 # occ.  2.00000000
 
ion      s      p      d    tot
  1  0.000  0.000  0.945  0.945
  2  0.000  0.000  0.001  0.001
tot  0.000  0.000  0.945  0.946
 
band   5 # energy   -5.88049749 # occ.  2.00000000
 
ion      s      p      d    tot
  1  0.000  0.000  0.943  0.943
  2  0.000  0.000  0.001  0.002
tot  0.001  0.001  0.944  0.945
 
band   6 # energy   -5.59248840 # occ.  2.00000000
 
ion      s      p      d    tot
  1  0.010  0.001  0.837  0.849
  2  0.060  0.008  0.001  0.068
tot  0.070  0.009  0.838  0.917
 
band   7 # energy   -1.86759321 # occ.  2.00000000
 
ion      s      p      d    tot
  1  0.181  0.022  0.023  0.226
  2  0.027  0.224  0.002  0.254
tot  0.208  0.246  0.026  0.480
 
band   8 # energy    0.32899571 # occ.  2.00000000
 
ion      s      p      d    tot
  1  0.030  0.064  0.038  0.131
  2  0.008  0.334  0.003  0.345
tot  0.038  0.398  0.041  0.477
 
band   9 # energy    1.34096542 # occ.  2.00000000
 
ion      s      p      d    tot
  1  0.000  0.063  0.048  0.111
  2  0.000  0.435  0.002  0.436
tot  0.000  0.498  0.050  0.548
 
band  10 # energy    4.84735686 # occ.  0.00000000
 
ion      s      p      d    tot
  1  0.207  0.046  0.010  0.263
  2  0.069  0.139  0.029  0.238
tot  0.276  0.185  0.039  0.500
 
band  11 # energy    6.97291934 # occ.  0.00000000
 
ion      s      p      d    tot
  1  0.014  0.091  0.030  0.135
  2  0.006  0.079  0.069  0.153
tot  0.020  0.169  0.099  0.288
 
band  12 # energy    7.68708181 # occ.  0.00000000
 
ion      s      p      d    tot
  1  0.000  0.177  0.023  0.200
  2  0.000  0.054  0.096  0.149
tot  0.000  0.230  0.119  0.349
 
band  13 # energy    8.34865841 # occ.  0.00000000
 
ion      s      p      d    tot
  1  0.035  0.065  0.024  0.124
  2  0.024  0.218  0.038  0.280
tot  0.059  0.283  0.062  0.404
 
band  14 # energy   10.54518038 # occ.  0.00000000
 
ion      s      p      d    tot
  1  0.000  0.041  0.067  0.109
  2  0.000  0.015  0.161  0.176
tot  0.000  0.057  0.228  0.285
 
band  15 # energy   11.15492607 # occ.  0.00000000
 
ion      s      p      d    tot
  1  0.025  0.122  0.017  0.164
  2  0.003  0.048  0.035  0.086
tot  0.028  0.170  0.052  0.250
 
band  16 # energy   12.35795225 # occ.  0.00000000
 
ion      s      p      d    tot
  1  0.032  0.047  0.037  0.116
  2  0.020  0.033  0.074  0.126
tot  0.052  0.080  0.111  0.242
 

 k-point    9 :   -0.16666667 0.16666667 0.00000000     weight = 0.05555556

band   1 # energy   -8.84847752 # occ.  2.00000000
 
ion      s      p      d    tot
  1  0.038  0.006  0.047  0.091
  2  0.581  0.000  0.000  0.581
tot  0.619  0.006  0.047  0.672
 
band   2 # energy   -6.10022468 # occ.  2.00000000
 
ion      s      p      d    tot
  1  0.000  0.000  0.910  0.911
  2  0.000  0.018  0.001  0.019
tot  0.000  0.019  0.911  0.930
 
band   3 # energy   -6.08609574 # occ.  2.00000000
 
ion      s      p      d    tot
  1  0.000  0.000  0.912  0.913
  2  0.000  0.016  0.001  0.017
tot  0.000  0.017  0.913  0.930
 
band   4 # energy   -5.93242772 # occ.  2.00000000
 
ion      s      p      d    tot
  1  0.008  0.000  0.874  0.883
  2  0.014  0.015  0.001  0.030
tot  0.022  0.016  0.875  0.913
 
band   5 # energy   -5.88753108 # occ.  2.00000000
 
ion      s      p      d    tot
  1  0.000  0.000  0.943  0.943
  2  0.000  0.000  0.001  0.001
tot  0.000  0.000  0.944  0.945
 
band   6 # energy   -5.85512686 # occ.  2.00000000
 
ion      s      p      d    tot
  1  0.002  0.000  0.929  0.932
  2  0.006  0.003  0.001  0.010
tot  0.009  0.003  0.930  0.941
 
band   7 # energy   -0.63733106 # occ.  2.00000000
 
ion      s      p      d    tot
  1  0.156  0.022  0.055  0.233
  2  0.070  0.235  0.002  0.307
tot  0.227  0.256  0.057  0.540
 
band   8 # energy    0.87297831 # occ.  2.00000000
 
ion      s      p      d    tot
  1  0.014  0.064  0.045  0.122
  2  0.001  0.370  0.004  0.375
tot  0.014  0.434  0.049  0.497
 
band   9 # energy    1.79701682 # occ.  2.00000000
 
ion      s      p      d    tot
  1  0.000  0.047  0.063  0.110
  2  0.000  0.470  0.001  0.471
tot  0.000  0.517  0.064  0.581
 
band  10 # energy    4.67929358 # occ.  0.00000000
 
ion      s      p      d    tot
  1  0.214  0.042  0.004  0.261
  2  0.096  0.173  0.015  0.285
tot  0.311  0.216  0.020  0.546
 
band  11 # energy    6.71146098 # occ.  0.00000000
 
ion      s      p      d    tot
  1  0.042  0.106  0.022  0.170
  2  0.025  0.103  0.060  0.188
tot  0.067  0.209  0.082  0.358
 
band  12 # energy    7.21891195 # occ.  0.00000000
 
ion      s      p      d    tot
  1  0.000  0.231  0.008  0.239
  2  0.000  0.030  0.094  0.124
tot  0.000  0.261  0.102  0.363
 
band  13 # energy    7.52555250 # occ.  0.00000000
 
ion      s      p      d    tot
  1  0.003  0.118  0.020  0.141
  2  0.002  0.110  0.073  0.185
tot  0.005  0.227  0.093  0.326
 
band  14 # energy    9.80030732 # occ.  0.00000000
 
ion      s      p      d    tot
  1  0.000  0.001  0.079  0.080
  2  0.000  0.002  0.147  0.149
tot  0.000  0.003  0.226  0.229
 
band  15 # energy   10.99250443 # occ.  0.00000000
 
ion      s      p      d    tot
  1  0.000  0.096  0.045  0.141
  2  0.007  0.054  0.071  0.132
tot  0.008  0.150  0.116  0.273
 
band  16 # energy   11.74036617 # occ.  0.00000000
 
ion      s      p      d    tot
  1  0.103  0.085  0.006  0.193
  2  0.001  0.021  0.052  0.073
tot  0.103  0.105  0.058  0.267
 

 k-point   10 :    0.33333333 0.33333333 0.00000000     weight = 0.02777778

band   1 # energy   -8.68411556 # occ.  2.00000000
 
ion      s      p      d    tot
  1  0.018  0.010  0.093  0.122
  2  0.582  0.000  0.000  0.582
tot  0.600  0.011  0.093  0.704
 
band   2 # energy   -6.02044136 # occ.  2.00000000
 
ion      s      p      d    tot
  1  0.000  0.001  0.925  0.926
  2  0.000  0.012  0.001  0.014
tot  0.000  0.013  0.926  0.939
 
band   3 # energy   -6.02044134 # occ.  2.00000000
 
ion      s      p      d    tot
  1  0.000  0.001  0.925  0.926
  2  0.000  0.012  0.001  0.014
tot  0.000  0.013  0.926  0.939
 
band   4 # energy   -5.97112997 # occ.  2.00000000
 
ion      s      p      d    tot
  1  0.003  0.000  0.906  0.909
  2  0.002  0.010  0.000  0.012
tot  0.005  0.010  0.907  0.921
 
band   5 # energy   -5.85450926 # occ.  2.00000000
 
ion      s      p      d    tot
  1  0.000  0.000  0.949  0.949
  2  0.000  0.000  0.000  0.000
tot  0.000  0.000  0.949  0.949
 
band   6 # energy   -5.69357463 # occ.  2.00000000
 
ion      s      p      d    tot
  1  0.011  0.001  0.836  0.848
  2  0.050  0.008  0.001  0.060
tot  0.061  0.010  0.837  0.908
 
band   7 # energy   -1.39683699 # occ.  2.00000000
 
ion      s      p      d    tot
  1  0.211  0.006  0.059  0.276
  2  0.050  0.214  0.003  0.267
tot  0.261  0.220  0.062  0.543
 
band   8 # energy    0.63227356 # occ.  2.00000000
 
ion      s      p      d    tot
  1  0.000  0.076  0.031  0.107
  2  0.000  0.387  0.001  0.388
tot  0.000  0.463  0.032  0.495
 
band   9 # energy    0.63227359 # occ.  2.00000000
 
ion      s      p      d    tot
  1  0.000  0.076  0.031  0.107
  2  0.000  0.387  0.001  0.388
tot  0.000  0.463  0.032  0.495
 
band  10 # energy    4.74854329 # occ.  0.00000000
 
ion      s      p      d    tot
  1  0.136  0.064  0.025  0.225
  2  0.007  0.047  0.056  0.111
tot  0.143  0.111  0.082  0.336
 
band  11 # energy    5.16038248 # occ.  0.00000000
 
ion      s      p      d    tot
  1  0.086  0.057  0.027  0.170
  2  0.055  0.107  0.030  0.192
tot  0.141  0.164  0.057  0.362
 
band  12 # energy    9.33841337 # occ.  0.00000000
 
ion      s      p      d    tot
  1  0.043  0.004  0.035  0.083
  2  0.038  0.186  0.044  0.268
tot  0.082  0.190  0.078  0.350
 
band  13 # energy    9.53801097 # occ.  0.00000000
 
ion      s      p      d    tot
  1  0.000  0.187  0.019  0.206
  2  0.000  0.147  0.096  0.243
tot  0.000  0.334  0.115  0.449
 
band  14 # energy    9.53801098 # occ.  0.00000000
 
ion      s      p      d    tot
  1  0.000  0.187  0.019  0.206
  2  0.000  0.147  0.096  0.243
tot  0.000  0.334  0.115  0.449
 
band  15 # energy   12.37781093 # occ.  0.00000000
 
ion      s      p      d    tot
  1  0.000  0.000  0.050  0.050
  2  0.000  0.000  0.319  0.319
tot  0.000  0.000  0.370  0.370
 