Name                                    
   5.65360000000000     
     0.500000    0.500000    0.000000
     0.500000    0.000000   -0.500000
     0.000000    0.500000   -0.500000
   Ga   As
     1     1
Direct
  0.000000  0.000000  0.000000
  0.250000  0.250000  0.250000
 
   60   60   60
  749.21      736.71      700.36      643.42      570.81      488.39      402.21      317.92      240.24      172.73    
  117.64      75.839      46.866      29.040      19.716      15.679      13.699      12.223      11.111      10.266    
  9.6086      9.0839      8.6581      8.3115      8.0319      7.8102      7.6388      7.5115      7.4236      7.3719    
  7.3548      7.3719      7.4236      7.5115      7.6388      7.8102      8.0319      8.3115      8.6581      9.0839    
  9.6086      10.266      11.111      12.223      13.699      15.679      19.716      29.040      46.866      75.839    
  117.64      172.73      240.24      317.92      402.21      488.39      570.81      643.42      700.36      736.71    
  736.71      712.23      665.51      600.70      523.25      439.15      354.29      273.84      201.91      141.38    
  93.751      59.195      36.600      23.764      17.719      15.178      13.544      12.311      11.386      10.678    
  10.122      9.6749      9.3113      9.0170      8.7818      8.5979      8.4585      8.3580      8.2929      8.2607    
  8.2607      8.2929      8.3580      8.4585      8.5979      8.7818      9.0170      9.3113      9.6749      10.122    
  10.678      11.386      12.311      13.544      15.178      17.719      23.764      36.600      59.195      93.751    
  141.38      201.91      273.84      354.29      439.15      523.25      600.70      665.51      712.23      736.71    
  700.36      665.51      610.97      541.49      462.71      380.48      300.21      226.46      162.61      110.76    
  71.679      44.839      28.546      20.194      16.654      14.859      13.518      12.519      11.767      11.187    
  10.727      10.355      10.054      9.8129      9.6226      9.4763      9.3679      9.2931      9.2491      9.2345    
  9.2491      9.2931      9.3679      9.4763      9.6226      9.8129      10.054      10.355      10.727      11.187    
  11.767      12.519      13.518      14.859      16.654      20.194      28.546      44.839      71.679      110.76    
  162.61      226.46      300.21      380.48      462.71      541.49      610.97      665.51      700.36      712.34    
  643.42      600.70      541.49      470.80      394.18      317.06      244.20      179.41      125.26      83.098    
  52.943      33.636      23.004      18.197      16.122      14.694      13.634      12.848      12.254      11.791    
  11.422      11.125      10.887      10.698      10.552      10.442      10.363      10.312      10.286      10.286    
  10.312      10.363      10.442      10.552      10.698      10.887      11.125      11.422      11.791      12.254    
  12.848      13.634      14.694      16.122      18.197      23.004      33.636      52.943      83.098      125.26    
  179.41      244.20      317.06      394.18      470.80      541.49      600.70      643.42      665.81      665.81    
  570.81      523.25      462.71      394.18      322.85      253.51      190.18      135.83      92.266      60.027    
  38.470      25.891      19.797      17.281      15.796      14.694      13.889      13.294      12.841      12.487    
  12.206      11.982      11.806      11.669      11.566      11.489      11.437      11.406      11.396      11.406    
  11.437      11.489      11.566      11.669      11.806      11.982      12.206      12.487      12.841      13.294    
  13.889      14.694      15.796      17.281      19.797      25.891      38.470      60.027      92.266      135.83    
  190.18      253.51      322.85      394.18      462.71      523.25      570.81      601.22      611.69      601.22    
  488.39      439.15      380.48      317.06      253.51      193.89      141.40      98.201      65.276      42.456    
  28.506      21.331      18.304      16.779      15.662      14.855      14.274      13.846      13.521      13.269    
  13.073      12.921      12.805      12.718      12.654      12.608      12.578      12.564      12.564      12.578    
  12.608      12.654      12.718      12.805      12.921      13.073      13.269      13.521      13.846      14.274    
  14.855      15.662      16.779      18.304      21.331      28.506      42.456      65.276      98.201      141.40    
  193.89      253.51      317.06      380.48      439.15      488.39      523.95      542.60      542.60      523.95    
  402.21      354.29      300.21      244.20      190.18      141.40      100.26      68.068      45.081      30.494    
  22.621      19.162      17.599      16.496      15.710      15.160      14.772      14.492      14.284      14.130    
  14.016      13.933      13.875      13.834      13.805      13.785      13.774      13.770      13.774      13.785    
  13.805      13.834      13.875      13.933      14.016      14.130      14.284      14.492      14.772      15.160    
  15.710      16.496      17.599      19.162      22.621      30.494      45.081      68.068      100.26      141.40    
  190.18      244.20      300.21      354.29      402.21      439.94      464.08      472.39      464.08      439.94    
  317.92      273.84      226.46      179.41      135.83      98.201      68.068      45.997      31.568      23.484    
  19.794      18.215      17.159      16.419      15.919      15.587      15.366      15.218      15.120      15.059    
  15.024      15.008      15.003      15.003      15.004      15.005      15.006      15.006      15.005      15.004    
  15.003      15.003      15.008      15.024      15.059      15.120      15.218      15.366      15.587      15.919    
  16.419      17.159      18.215      19.794      23.484      31.568      45.997      68.068      98.201      135.83    
  179.41      226.46      273.84      317.92      355.04      381.91      396.01      396.01      381.91      355.04    
  240.24      201.91      162.61      125.26      92.266      65.276      45.081      31.568      23.787      20.131    
  18.598      17.620      16.950      16.520      16.260      16.112      16.038      16.011      16.018      16.046    
  16.086      16.131      16.173      16.208      16.233      16.248      16.252      16.248      16.233      16.208    
  16.173      16.131      16.086      16.046      16.018      16.011      16.038      16.112      16.260      16.520    
  16.950      17.620      18.598      20.131      23.787      31.568      45.081      65.276      92.266      125.26    
  162.61      201.91      240.24      274.43      301.45      318.79      324.77      318.79      301.45      274.43    
  172.73      141.38      110.76      83.098      60.027      42.456      30.494      23.484      20.131      18.728    
  17.857      17.280      16.936      16.762      16.701      16.713      16.771      16.859      16.964      17.076    
  17.186      17.285      17.367      17.428      17.468      17.487      17.487      17.468      17.428      17.367    
  17.285      17.186      17.076      16.964      16.859      16.771      16.713      16.701      16.762      16.936    
  17.280      17.857      18.728      20.131      23.484      30.494      42.456      60.027      83.098      110.76    
  141.38      172.73      202.25      227.30      245.51      255.10      255.10      245.51      227.30      202.25    
  117.64      93.751      71.679      52.943      38.470      28.506      22.621      19.794      18.598      17.857    
  17.391      17.150      17.073      17.108      17.216      17.370      17.551      17.746      17.943      18.132    
  18.303      18.445      18.551      18.621      18.661      18.673      18.661      18.621      18.551      18.445    
  18.303      18.132      17.943      17.746      17.551      17.370      17.216      17.108      17.073      17.150    
  17.391      17.857      18.598      19.794      22.621      28.506      38.470      52.943      71.679      93.751    
  117.64      141.40      162.89      180.02      191.08      194.89      191.08      180.02      162.89      141.40    
  75.839      59.195      44.839      33.636      25.891      21.331      19.162      18.215      17.620      17.280    
  17.150      17.178      17.316      17.527      17.784      18.067      18.362      18.657      18.938      19.191    
  19.400      19.556      19.663      19.727      19.756      19.756      19.727      19.663      19.556      19.400    
  19.191      18.938      18.657      18.362      18.067      17.784      17.527      17.316      17.178      17.150    
  17.280      17.620      18.215      19.162      21.331      25.891      33.636      44.839      59.195      75.839    
  93.450      110.41      125.04      135.78      141.47      141.47      135.78      125.04      110.41      93.450    
  46.866      36.600      28.546      23.004      19.797      18.304      17.599      17.159      16.950      16.936    
  17.073      17.316      17.632      17.995      18.385      18.788      19.188      19.572      19.916      20.199    
  20.412      20.560      20.652      20.700      20.716      20.700      20.652      20.560      20.412      20.199    
  19.916      19.572      19.188      18.788      18.385      17.995      17.632      17.316      17.073      16.936    
  16.950      17.159      17.599      18.304      19.797      23.004      28.546      36.600      46.866      58.605    
  70.740      82.013      91.168      97.140      99.214      97.140      91.168      82.013      70.740      58.605    
  29.040      23.764      20.194      18.197      17.281      16.779      16.496      16.419      16.520      16.762    
  17.108      17.527      17.995      18.493      19.005      19.516      20.009      20.451      20.817      21.095    
  21.290      21.415      21.486      21.517      21.517      21.486      21.415      21.290      21.095      20.817    
  20.451      20.009      19.516      19.005      18.493      17.995      17.527      17.108      16.762      16.520    
  16.419      16.496      16.779      17.281      18.197      20.194      23.764      29.040      35.777      43.397    
  51.086      57.928      63.059      65.808      65.808      63.059      57.928      51.086      43.397      35.777    
  19.716      17.719      16.654      16.122      15.796      15.662      15.710      15.919      16.260      16.701    
  17.216      17.784      18.385      19.005      19.627      20.231      20.779      21.236      21.590      21.843    
  22.008      22.106      22.156      22.170      22.156      22.106      22.008      21.843      21.590      21.236    
  20.779      20.231      19.627      19.005      18.385      17.784      17.216      16.701      16.260      15.919    
  15.710      15.662      15.796      16.122      16.654      17.719      19.716      22.769      26.716      31.152    
  35.516      39.198      41.656      42.520      41.656      39.198      35.516      31.152      26.716      22.769    
  15.679      15.178      14.859      14.694      14.694      14.855      15.160      15.587      16.112      16.713    
  17.370      18.067      18.788      19.516      20.231      20.889      21.449      21.890      22.212      22.429    
  22.562      22.634      22.665      22.665      22.634      22.562      22.429      22.212      21.890      21.449    
  20.889      20.231      19.516      18.788      18.067      17.370      16.713      16.112      15.587      15.160    
  14.855      14.694      14.694      14.859      15.178      15.679      16.600      18.080      20.049      22.267    
  24.391      26.060      26.977      26.977      26.060      24.391      22.267      20.049      18.080      16.600    
  13.699      13.544      13.518      13.634      13.889      14.274      14.772      15.366      16.038      16.771    
  17.551      18.362      19.188      20.009      20.779      21.449      21.990      22.397      22.679      22.859    
  22.964      23.015      23.031      23.015      22.964      22.859      22.679      22.397      21.990      21.449    
  20.779      20.009      19.188      18.362      17.551      16.771      16.038      15.366      14.772      14.274    
  13.889      13.634      13.518      13.544      13.699      13.963      14.329      14.891      15.663      16.543    
  17.361      17.941      18.150      17.941      17.361      16.543      15.663      14.891      14.329      13.963    
  12.223      12.311      12.519      12.848      13.294      13.846      14.492      15.218      16.011      16.859    
  17.746      18.657      19.572      20.451      21.236      21.890      22.397      22.762      23.006      23.156    
  23.237      23.272      23.272      23.237      23.156      23.006      22.762      22.397      21.890      21.236    
  20.451      19.572      18.657      17.746      16.859      16.011      15.218      14.492      13.846      13.294    
  12.848      12.519      12.311      12.223      12.244      12.356      12.532      12.743      12.978      13.229    
  13.448      13.577      13.577      13.448      13.229      12.978      12.743      12.532      12.356      12.244    
  11.111      11.386      11.767      12.254      12.841      13.521      14.284      15.120      16.018      16.964    
  17.943      18.938      19.916      20.817      21.590      22.212      22.679      23.006      23.218      23.344    
  23.409      23.428      23.409      23.344      23.218      23.006      22.679      22.212      21.590      20.817    
  19.916      18.938      17.943      16.964      16.018      15.120      14.284      13.521      12.841      12.254    
  11.767      11.386      11.111      10.937      10.855      10.849      10.898      10.982      11.075      11.159    
  11.216      11.237      11.216      11.159      11.075      10.982      10.898      10.849      10.855      10.937    
  10.266      10.678      11.187      11.791      12.487      13.269      14.130      15.059      16.046      17.076    
  18.132      19.191      20.199      21.095      21.843      22.429      22.859      23.156      23.344      23.452    
  23.501      23.501      23.452      23.344      23.156      22.859      22.429      21.843      21.095      20.199    
  19.191      18.132      17.076      16.046      15.059      14.130      13.269      12.487      11.791      11.187    
  10.678      10.266      9.9467      9.7150      9.5611      9.4723      9.4332      9.4279      9.4405      9.4575    
  9.4686      9.4686      9.4575      9.4405      9.4279      9.4332      9.4723      9.5611      9.7150      9.9467    
  9.6086      10.122      10.727      11.422      12.206      13.073      14.016      15.024      16.086      17.186    
  18.303      19.400      20.412      21.290      22.008      22.562      22.964      23.237      23.409      23.501    
  23.530      23.501      23.409      23.237      22.964      22.562      22.008      21.290      20.412      19.400    
  18.303      17.186      16.086      15.024      14.016      13.073      12.206      11.422      10.727      10.122    
  9.6086      9.1833      8.8417      8.5767      8.3794      8.2397      8.1463      8.0882      8.0553      8.0392    
  8.0344      8.0392      8.0553      8.0882      8.1463      8.2397      8.3794      8.5767      8.8417      9.1833    
  9.0839      9.6749      10.355      11.125      11.982      12.921      13.933      15.008      16.131      17.285    
  18.445      19.556      20.560      21.415      22.106      22.634      23.015      23.272      23.428      23.501    
  23.501      23.428      23.272      23.015      22.634      22.106      21.415      20.560      19.556      18.445    
  17.285      16.131      15.008      13.933      12.921      11.982      11.125      10.355      9.6749      9.0839    
  8.5796      8.1573      7.8108      7.5328      7.3156      7.1511      7.0315      6.9494      6.8986      6.8744    
  6.8744      6.8986      6.9494      7.0315      7.1511      7.3156      7.5328      7.8108      8.1573      8.5796    
  8.6581      9.3113      10.054      10.887      11.806      12.805      13.875      15.003      16.173      17.367    
  18.551      19.663      20.652      21.486      22.156      22.665      23.031      23.272      23.409      23.452    
  23.409      23.272      23.031      22.665      22.156      21.486      20.652      19.663      18.551      17.367    
  16.173      15.003      13.875      12.805      11.806      10.887      10.054      9.3113      8.6581      8.0919    
  7.6082      7.2008      6.8629      6.5876      6.3682      6.1986      6.0733      5.9876      5.9378      5.9215    
  5.9378      5.9876      6.0733      6.1986      6.3682      6.5876      6.8629      7.2008      7.6082      8.0919    
  8.3115      9.0170      9.8129      10.698      11.669      12.718      13.834      15.003      16.208      17.428    
  18.621      19.727      20.700      21.517      22.170      22.665      23.015      23.237      23.344      23.344    
  23.237      23.015      22.665      22.170      21.517      20.700      19.727      18.621      17.428      16.208    
  15.003      13.834      12.718      11.669      10.698      9.8129      9.0170      8.3115      7.6945      7.1615    
  6.7063      6.3223      6.0026      5.7408      5.5316      5.3702      5.2529      5.1765      5.1389      5.1389    
  5.1765      5.2529      5.3702      5.5316      5.7408      6.0026      6.3223      6.7063      7.1615      7.6945    
  8.0319      8.7818      9.6226      10.552      11.566      12.654      13.805      15.004      16.233      17.468    
  18.661      19.756      20.716      21.517      22.156      22.634      22.964      23.156      23.218      23.156    
  22.964      22.634      22.156      21.517      20.716      19.756      18.661      17.468      16.233      15.004    
  13.805      12.654      11.566      10.552      9.6226      8.7818      8.0319      7.3716      6.7971      6.3026    
  5.8812      5.5260      5.2306      4.9896      4.7984      4.6535      4.5521      4.4921      4.4723      4.4921    
  4.5521      4.6535      4.7984      4.9896      5.2306      5.5260      5.8812      6.3026      6.7971      7.3716    
  7.8102      8.5979      9.4763      10.442      11.489      12.608      13.785      15.005      16.248      17.487    
  18.673      19.756      20.700      21.486      22.106      22.562      22.859      23.006      23.006      22.859    
  22.562      22.106      21.486      20.700      19.756      18.673      17.487      16.248      15.005      13.785    
  12.608      11.489      10.442      9.4763      8.5979      7.8102      7.1128      6.5026      5.9743      5.5213    
  5.1364      4.8130      4.5456      4.3293      4.1606      4.0365      3.9551      3.9147      3.9147      3.9551    
  4.0365      4.1606      4.3293      4.5456      4.8130      5.1364      5.5213      5.9743      6.5026      7.1128    
  7.6388      8.4585      9.3679      10.363      11.437      12.578      13.774      15.006      16.252      17.487    
  18.661      19.727      20.652      21.415      22.008      22.429      22.679      22.762      22.679      22.429    
  22.008      21.415      20.652      19.727      18.661      17.487      16.252      15.006      13.774      12.578    
  11.437      10.363      9.3679      8.4585      7.6388      6.9096      6.2685      5.7108      5.2301      4.8195    
  4.4720      4.1818      3.9439      3.7543      3.6100      3.5087      3.4485      3.4286      3.4485      3.5087    
  3.6100      3.7543      3.9439      4.1818      4.4720      4.8195      5.2301      5.7108      6.2685      6.9096    
  7.5115      8.3580      9.2931      10.312      11.406      12.564      13.770      15.006      16.248      17.468    
  18.621      19.663      20.560      21.290      21.843      22.212      22.397      22.397      22.212      21.843    
  21.290      20.560      19.663      18.621      17.468      16.248      15.006      13.770      12.564      11.406    
  10.312      9.2931      8.3580      7.5115      6.7551      6.0872      5.5036      4.9985      4.5650      4.1963    
  3.8860      3.6289      3.4208      3.2583      3.1388      3.0603      3.0214      3.0214      3.0603      3.1388    
  3.2583      3.4208      3.6289      3.8860      4.1963      4.5650      4.9985      5.5036      6.0872      6.7551    
  7.4236      8.2929      9.2491      10.286      11.396      12.564      13.774      15.005      16.233      17.428    
  18.551      19.556      20.412      21.095      21.590      21.890      21.990      21.890      21.590      21.095    
  20.412      19.556      18.551      17.428      16.233      15.005      13.774      12.564      11.396      10.286    
  9.2491      8.2929      7.4236      6.6436      5.9521      5.3457      4.8187      4.3647      3.9768      3.6485    
  3.3742      3.1494      2.9705      2.8345      2.7390      2.6825      2.6638      2.6825      2.7390      2.8345    
  2.9705      3.1494      3.3742      3.6485      3.9768      4.3647      4.8187      5.3457      5.9521      6.6436    
  7.3719      8.2607      9.2345      10.286      11.406      12.578      13.785      15.004      16.208      17.367    
  18.445      19.400      20.199      20.817      21.236      21.449      21.449      21.236      20.817      20.199    
  19.400      18.445      17.367      16.208      15.004      13.785      12.578      11.406      10.286      9.2345    
  8.2607      7.3719      6.5712      5.8587      5.2315      4.6846      4.2118      3.8062      3.4613      3.1714    
  2.9314      2.7375      2.5865      2.4756      2.4029      2.3669      2.3669      2.4029      2.4756      2.5865    
  2.7375      2.9314      3.1714      3.4613      3.8062      4.2118      4.6846      5.2315      5.8587      6.5712    
  7.3548      8.2607      9.2491      10.312      11.437      12.608      13.805      15.003      16.173      17.285    
  18.303      19.191      19.916      20.451      20.779      20.889      20.779      20.451      19.916      19.191    
  18.303      17.285      16.173      15.003      13.805      12.608      11.437      10.312      9.2491      8.2607    
  7.3548      6.5355      5.8038      5.1573      4.5917      4.1011      3.6787      3.3182      3.0135      2.7594    
  2.5518      2.3869      2.2620      2.1745      2.1229      2.1058      2.1229      2.1745      2.2620      2.3869    
  2.5518      2.7594      3.0135      3.3182      3.6787      4.1011      4.5917      5.1573      5.8038      6.5355    
  7.3719      8.2929      9.2931      10.363      11.489      12.654      13.834      15.003      16.131      17.186    
  18.132      18.938      19.572      20.009      20.231      20.231      20.009      19.572      18.938      18.132    
  17.186      16.131      15.003      13.834      12.654      11.489      10.363      9.2931      8.2929      7.3719    
  6.5355      5.7856      5.1207      4.5370      4.0289      3.5902      3.2144      2.8953      2.6277      2.4070    
  2.2292      2.0913      1.9904      1.9244      1.8919      1.8919      1.9244      1.9904      2.0913      2.2292    
  2.4070      2.6277      2.8953      3.2144      3.5902      4.0289      4.5370      5.1207      5.7856      6.5355    
  7.4236      8.3580      9.3679      10.442      11.566      12.718      13.875      15.008      16.086      17.076    
  17.943      18.657      19.188      19.516      19.627      19.516      19.188      18.657      17.943      17.076    
  16.086      15.008      13.875      12.718      11.566      10.442      9.3679      8.3580      7.4236      6.5712    
  5.8038      5.1207      4.5189      3.9933      3.5380      3.1467      2.8131      2.5320      2.2984      2.1082    
  1.9579      1.8446      1.7656      1.7190      1.7036      1.7190      1.7656      1.8446      1.9579      2.1082    
  2.2984      2.5320      2.8131      3.1467      3.5380      3.9933      4.5189      5.1207      5.8038      6.5712    
  7.5115      8.4585      9.4763      10.552      11.669      12.805      13.933      15.024      16.046      16.964    
  17.746      18.362      18.788      19.005      19.005      18.788      18.362      17.746      16.964      16.046    
  15.024      13.933      12.805      11.669      10.552      9.4763      8.4585      7.5115      6.6436      5.8587    
  5.1573      4.5370      3.9933      3.5208      3.1132      2.7646      2.4694      2.2227      2.0201      1.8579    
  1.7325      1.6414      1.5820      1.5527      1.5527      1.5820      1.6414      1.7325      1.8579      2.0201    
  2.2227      2.4694      2.7646      3.1132      3.5208      3.9933      4.5370      5.1573      5.8587      6.6436    
  7.6388      8.5979      9.6226      10.698      11.806      12.921      14.016      15.059      16.018      16.859    
  17.551      18.067      18.385      18.493      18.385      18.067      17.551      16.859      16.018      15.059    
  14.016      12.921      11.806      10.698      9.6226      8.5979      7.6388      6.7551      5.9521      5.2315    
  4.5917      4.0289      3.5380      3.1132      2.7485      2.4385      2.1780      1.9626      1.7881      1.6510    
  1.5481      1.4767      1.4347      1.4209      1.4347      1.4767      1.5481      1.6510      1.7881      1.9626    
  2.1780      2.4385      2.7485      3.1132      3.5380      4.0289      4.5917      5.2315      5.9521      6.7551    
  7.8102      8.7818      9.8129      10.887      11.982      13.073      14.130      15.120      16.011      16.771    
  17.370      17.784      17.995      17.995      17.784      17.370      16.771      16.011      15.120      14.130    
  13.073      11.982      10.887      9.8129      8.7818      7.8102      6.9096      6.0872      5.3457      4.6846    
  4.1011      3.5902      3.1467      2.7646      2.4385      2.1632      1.9341      1.7469      1.5977      1.4831    
  1.4001      1.3463      1.3198      1.3198      1.3463      1.4001      1.4831      1.5977      1.7469      1.9341    
  2.1632      2.4385      2.7646      3.1467      3.5902      4.1011      4.6846      5.3457      6.0872      6.9096    
  8.0319      9.0170      10.054      11.125      12.206      13.269      14.284      15.218      16.038      16.713    
  17.216      17.527      17.632      17.527      17.216      16.713      16.038      15.218      14.284      13.269    
  12.206      11.125      10.054      9.0170      8.0319      7.1128      6.2685      5.5036      4.8187      4.2118    
  3.6787      3.2144      2.8131      2.4694      2.1780      1.9341      1.7332      1.5713      1.4447      1.3502    
  1.2848      1.2465      1.2339      1.2465      1.2848      1.3502      1.4447      1.5713      1.7332      1.9341    
  2.1780      2.4694      2.8131      3.2144      3.6787      4.2118      4.8187      5.5036      6.2685      7.1128    
  8.3115      9.3113      10.355      11.422      12.487      13.521      14.492      15.366      16.112      16.701    
  17.108      17.316      17.316      17.108      16.701      16.112      15.366      14.492      13.521      12.487    
  11.422      10.355      9.3113      8.3115      7.3716      6.5026      5.7108      4.9985      4.3647      3.8062    
  3.3182      2.8953      2.5320      2.2227      1.9626      1.7469      1.5713      1.4320      1.3255      1.2486    
  1.1988      1.1744      1.1744      1.1988      1.2486      1.3255      1.4320      1.5713      1.7469      1.9626    
  2.2227      2.5320      2.8953      3.3182      3.8062      4.3647      4.9985      5.7108      6.5026      7.3716    
  8.6581      9.6749      10.727      11.791      12.841      13.846      14.772      15.587      16.260      16.762    
  17.073      17.178      17.073      16.762      16.260      15.587      14.772      13.846      12.841      11.791    
  10.727      9.6749      8.6581      7.6945      6.7971      5.9743      5.2301      4.5650      3.9768      3.4613    
  3.0135      2.6277      2.2984      2.0201      1.7881      1.5977      1.4447      1.3255      1.2366      1.1753    
  1.1394      1.1276      1.1394      1.1753      1.2366      1.3255      1.4447      1.5977      1.7881      2.0201    
  2.2984      2.6277      3.0135      3.4613      3.9768      4.5650      5.2301      5.9743      6.7971      7.6945    
  9.0839      10.122      11.187      12.254      13.294      14.274      15.160      15.919      16.520      16.936    
  17.150      17.150      16.936      16.520      15.919      15.160      14.274      13.294      12.254      11.187    
  10.122      9.0839      8.0919      7.1615      6.3026      5.5213      4.8195      4.1963      3.6485      3.1714    
  2.7594      2.4070      2.1082      1.8579      1.6510      1.4831      1.3502      1.2486      1.1753      1.1279    
  1.1046      1.1046      1.1279      1.1753      1.2486      1.3502      1.4831      1.6510      1.8579      2.1082    
  2.4070      2.7594      3.1714      3.6485      4.1963      4.8195      5.5213      6.3026      7.1615      8.0919    
  9.6086      10.678      11.767      12.848      13.889      14.855      15.710      16.419      16.950      17.280    
  17.391      17.280      16.950      16.419      15.710      14.855      13.889      12.848      11.767      10.678    
  9.6086      8.5796      7.6082      6.7063      5.8812      5.1364      4.4720      3.8860      3.3742      2.9314    
  2.5518      2.2292      1.9579      1.7325      1.5481      1.4001      1.2848      1.1988      1.1394      1.1046    
  1.0932      1.1046      1.1394      1.1988      1.2848      1.4001      1.5481      1.7325      1.9579      2.2292    