Name                                    
   5.65360000000000     
     0.500000    0.500000    0.000000
     0.500000    0.000000   -0.500000
     0.000000    0.500000   -0.500000
   Ga   As
     1     1
Direct
  0.000000  0.000000  0.000000
  0.250000  0.250000  0.250000
 
   60   60   60
 0.74921444764E+03 0.73671184141E+03 0.70035502523E+03 0.64341912999E+03 0.57081268536E+03
 0.48838923398E+03 0.40221291760E+03 0.31791685869E+03 0.24023698194E+03 0.17273104034E+03
 0.11763975876E+03 0.75839239002E+02 0.46866347027E+02 0.29040188955E+02 0.19715879944E+02
 0.15678583562E+02 0.13699374566E+02 0.12222937343E+02 0.11110587407E+02 0.10265793890E+02
 0.96085585875E+01 0.90838591115E+01 0.86580568213E+01 0.83114900506E+01 0.80318757093E+01
 0.78101698666E+01 0.76388194649E+01 0.75115361498E+01 0.74235798707E+01 0.73718758416E+01
 0.73548044166E+01 0.73718758416E+01 0.74235798707E+01 0.75115361498E+01 0.76388194649E+01
 0.78101698666E+01 0.80318757093E+01 0.83114900506E+01 0.86580568213E+01 0.90838591115E+01
 0.96085585875E+01 0.10265793890E+02 0.11110587407E+02 0.12222937343E+02 0.13699374566E+02
 0.15678583562E+02 0.19715879944E+02 0.29040188955E+02 0.46866347027E+02 0.75839239002E+02
 0.11763975876E+03 0.17273104034E+03 0.24023698194E+03 0.31791685869E+03 0.40221291760E+03
 0.48838923398E+03 0.57081268536E+03 0.64341912999E+03 0.70035502523E+03 0.73671184141E+03
 0.73671184141E+03 0.71222907113E+03 0.66550972324E+03 0.60070143006E+03 0.52324632822E+03
 0.43915150323E+03 0.35428840128E+03 0.27383593775E+03 0.20191303157E+03 0.14137935649E+03
 0.93751344342E+02 0.59195200784E+02 0.36599975278E+02 0.23763820002E+02 0.17719009988E+02
 0.15178203303E+02 0.13543517221E+02 0.12311100521E+02 0.11385937158E+02 0.10678493791E+02
 0.10122296649E+02 0.96748733417E+01 0.93113310171E+01 0.90169620786E+01 0.87818243059E+01
 0.85979332292E+01 0.84584822170E+01 0.83580463293E+01 0.82928582900E+01 0.82607354582E+01
 0.82607354582E+01 0.82928582900E+01 0.83580463293E+01 0.84584822170E+01 0.85979332292E+01
 0.87818243059E+01 0.90169620786E+01 0.93113310171E+01 0.96748733417E+01 0.10122296649E+02
 0.10678493791E+02 0.11385937158E+02 0.12311100521E+02 0.13543517221E+02 0.15178203303E+02
 0.17719009988E+02 0.23763820002E+02 0.36599975278E+02 0.59195200784E+02 0.93751344342E+02
 0.14137935649E+03 0.20191303157E+03 0.27383593775E+03 0.35428840128E+03 0.43915150323E+03
 0.52324632822E+03 0.60070143006E+03 0.66550972324E+03 0.71222907113E+03 0.73671184141E+03
 0.70035502523E+03 0.66550972324E+03 0.61097269697E+03 0.54148770134E+03 0.46270621638E+03
 0.38047501994E+03 0.30021412862E+03 0.22646427300E+03 0.16261334140E+03 0.11076168063E+03
 0.71679377818E+02 0.44839168160E+02 0.28545853217E+02 0.20193513588E+02 0.16654068793E+02
 0.14859197520E+02 0.13518091827E+02 0.12518851832E+02 0.11767388769E+02 0.11187313833E+02
 0.10726955784E+02 0.10355255824E+02 0.10054311584E+02 0.98129185666E+01 0.96226442945E+01
 0.94763057626E+01 0.93679228942E+01 0.92930897912E+01 0.92490766422E+01 0.92345343963E+01
 0.92490766422E+01 0.92930897912E+01 0.93679228942E+01 0.94763057626E+01 0.96226442945E+01
 0.98129185666E+01 0.10054311584E+02 0.10355255824E+02 0.10726955784E+02 0.11187313833E+02
 0.11767388769E+02 0.12518851832E+02 0.13518091827E+02 0.14859197520E+02 0.16654068793E+02
 0.20193513588E+02 0.28545853217E+02 0.44839168160E+02 0.71679377818E+02 0.11076168063E+03
 0.16261334140E+03 0.22646427300E+03 0.30021412862E+03 0.38047501994E+03 0.46270621638E+03
 0.54148770134E+03 0.61097269697E+03 0.66550972324E+03 0.70035502523E+03 0.71234128948E+03
 0.64341912999E+03 0.60070143006E+03 0.54148770134E+03 0.47079977088E+03 0.39418261025E+03
 0.31705747096E+03 0.24420314895E+03 0.17940638923E+03 0.12526449184E+03 0.83097707788E+02
 0.52943092868E+02 0.33635601805E+02 0.23003936597E+02 0.18196932581E+02 0.16122436779E+02
 0.14694150182E+02 0.13633636080E+02 0.12848113237E+02 0.12254154330E+02 0.11791496683E+02
 0.11422439013E+02 0.11125202211E+02 0.10886864338E+02 0.10698407326E+02 0.10552343277E+02
 0.10442254106E+02 0.10363158419E+02 0.10311794680E+02 0.10286443819E+02 0.10286443819E+02
 0.10311794680E+02 0.10363158419E+02 0.10442254106E+02 0.10552343277E+02 0.10698407326E+02
 0.10886864338E+02 0.11125202211E+02 0.11422439013E+02 0.11791496683E+02 0.12254154330E+02
 0.12848113237E+02 0.13633636080E+02 0.14694150182E+02 0.16122436779E+02 0.18196932581E+02
 0.23003936597E+02 0.33635601805E+02 0.52943092868E+02 0.83097707788E+02 0.12526449184E+03
 0.17940638923E+03 0.24420314895E+03 0.31705747096E+03 0.39418261025E+03 0.47079977088E+03
 0.54148770134E+03 0.60070143006E+03 0.64341912999E+03 0.66581413348E+03 0.66581413348E+03
 0.57081268536E+03 0.52324632822E+03 0.46270621638E+03 0.39418261025E+03 0.32284819136E+03
 0.25350583186E+03 0.19017593577E+03 0.13583330053E+03 0.92266126160E+02 0.60026982501E+02
 0.38469711958E+02 0.25891055886E+02 0.19796526238E+02 0.17281447638E+02 0.15796363341E+02
 0.14694285816E+02 0.13888995038E+02 0.13293768014E+02 0.12841328599E+02 0.12487481276E+02
 0.12206137601E+02 0.11982205153E+02 0.11805843105E+02 0.11669234661E+02 0.11565591044E+02
 0.11489399349E+02 0.11436860526E+02 0.11405888160E+02 0.11395630387E+02 0.11405888160E+02
 0.11436860526E+02 0.11489399349E+02 0.11565591044E+02 0.11669234661E+02 0.11805843105E+02
 0.11982205153E+02 0.12206137601E+02 0.12487481276E+02 0.12841328599E+02 0.13293768014E+02
 0.13888995038E+02 0.14694285816E+02 0.15796363341E+02 0.17281447638E+02 0.19796526238E+02
 0.25891055886E+02 0.38469711958E+02 0.60026982501E+02 0.92266126160E+02 0.13583330053E+03
 0.19017593577E+03 0.25350583186E+03 0.32284819136E+03 0.39418261025E+03 0.46270621638E+03
 0.52324632822E+03 0.57081268536E+03 0.60122270827E+03 0.61168622116E+03 0.60122270827E+03
 0.48838923398E+03 0.43915150323E+03 0.38047501994E+03 0.31705747096E+03 0.25350583186E+03
 0.19388594018E+03 0.14140233763E+03 0.98201496350E+02 0.65275662257E+02 0.42456216665E+02
 0.28506453310E+02 0.21331302268E+02 0.18303757154E+02 0.16779277418E+02 0.15661536281E+02
 0.14855087768E+02 0.14273836544E+02 0.13845822336E+02 0.13521176942E+02 0.13269446973E+02
 0.13073024700E+02 0.12920960017E+02 0.12804987027E+02 0.12717937682E+02 0.12653765788E+02
 0.12608087484E+02 0.12578393910E+02 0.12563666873E+02 0.12563666873E+02 0.12578393910E+02
 0.12608087484E+02 0.12653765788E+02 0.12717937682E+02 0.12804987027E+02 0.12920960017E+02
 0.13073024700E+02 0.13269446973E+02 0.13521176942E+02 0.13845822336E+02 0.14273836544E+02
 0.14855087768E+02 0.15661536281E+02 0.16779277418E+02 0.18303757154E+02 0.21331302268E+02
 0.28506453310E+02 0.42456216665E+02 0.65275662257E+02 0.98201496350E+02 0.14140233763E+03
 0.19388594018E+03 0.25350583186E+03 0.31705747096E+03 0.38047501994E+03 0.43915150323E+03
 0.48838923398E+03 0.52394626781E+03 0.54259709646E+03 0.54259709646E+03 0.52394626781E+03
 0.40221291760E+03 0.35428840128E+03 0.30021412862E+03 0.24420314895E+03 0.19017593577E+03
 0.14140233763E+03 0.10025538262E+03 0.68067667639E+02 0.45081102128E+02 0.30494285544E+02
 0.22620855091E+02 0.19162101617E+02 0.17598608024E+02 0.16495526431E+02 0.15710110536E+02
 0.15160319990E+02 0.14772221579E+02 0.14491685235E+02 0.14284275770E+02 0.14129727144E+02
 0.14015710738E+02 0.13933318151E+02 0.13874908605E+02 0.13833836718E+02 0.13805030564E+02
 0.13785430295E+02 0.13773781715E+02 0.13769883447E+02 0.13773781715E+02 0.13785430295E+02
 0.13805030564E+02 0.13833836718E+02 0.13874908605E+02 0.13933318151E+02 0.14015710738E+02
 0.14129727144E+02 0.14284275770E+02 0.14491685235E+02 0.14772221579E+02 0.15160319990E+02
 0.15710110536E+02 0.16495526431E+02 0.17598608024E+02 0.19162101617E+02 0.22620855091E+02
 0.30494285544E+02 0.45081102128E+02 0.68067667639E+02 0.10025538262E+03 0.14140233763E+03
 0.19017593577E+03 0.24420314895E+03 0.30021412862E+03 0.35428840128E+03 0.40221291760E+03
 0.43993838283E+03 0.46408236244E+03 0.47239374324E+03 0.46408236244E+03 0.43993838283E+03
 0.31791685869E+03 0.27383593775E+03 0.22646427300E+03 0.17940638923E+03 0.13583330053E+03
 0.98201496350E+02 0.68067667639E+02 0.45996925696E+02 0.31567785386E+02 0.23483504554E+02
 0.19793600253E+02 0.18215115361E+02 0.17158973926E+02 0.16418933375E+02 0.15919477582E+02
 0.15587389672E+02 0.15366088746E+02 0.15217961501E+02 0.15120202082E+02 0.15058918970E+02
 0.15024335516E+02 0.15008169690E+02 0.15003040810E+02 0.15003024065E+02 0.15004302926E+02
 0.15005208607E+02 0.15005534632E+02 0.15005534632E+02 0.15005208607E+02 0.15004302926E+02
 0.15003024065E+02 0.15003040810E+02 0.15008169690E+02 0.15024335516E+02 0.15058918970E+02
 0.15120202082E+02 0.15217961501E+02 0.15366088746E+02 0.15587389672E+02 0.15919477582E+02
 0.16418933375E+02 0.17158973926E+02 0.18215115361E+02 0.19793600253E+02 0.23483504554E+02
 0.31567785386E+02 0.45996925696E+02 0.68067667639E+02 0.98201496350E+02 0.13583330053E+03
 0.17940638923E+03 0.22646427300E+03 0.27383593775E+03 0.31791685869E+03 0.35503978208E+03
 0.38190537124E+03 0.39601301688E+03 0.39601301688E+03 0.38190537124E+03 0.35503978208E+03
 0.24023698194E+03 0.20191303157E+03 0.16261334140E+03 0.12526449184E+03 0.92266126160E+02
 0.65275662257E+02 0.45081102128E+02 0.31567785386E+02 0.23787093239E+02 0.20130509810E+02
 0.18598078698E+02 0.17620423495E+02 0.16950342256E+02 0.16520212161E+02 0.16259876448E+02
 0.16112277064E+02 0.16037756791E+02 0.16011363379E+02 0.16017597062E+02 0.16045604932E+02
 0.16086247094E+02 0.16131209298E+02 0.16173491494E+02 0.16208245616E+02 0.16233103680E+02
 0.16247667936E+02 0.16252420956E+02 0.16247667936E+02 0.16233103680E+02 0.16208245616E+02
 0.16173491494E+02 0.16131209298E+02 0.16086247094E+02 0.16045604932E+02 0.16017597062E+02
 0.16011363379E+02 0.16037756791E+02 0.16112277064E+02 0.16259876448E+02 0.16520212161E+02
 0.16950342256E+02 0.17620423495E+02 0.18598078698E+02 0.20130509810E+02 0.23787093239E+02
 0.31567785386E+02 0.45081102128E+02 0.65275662257E+02 0.92266126160E+02 0.12526449184E+03
 0.16261334140E+03 0.20191303157E+03 0.24023698194E+03 0.27442774534E+03 0.30145472800E+03
 0.31879374664E+03 0.32476919063E+03 0.31879374664E+03 0.30145472800E+03 0.27442774534E+03
 0.17273104034E+03 0.14137935649E+03 0.11076168063E+03 0.83097707788E+02 0.60026982501E+02
 0.42456216665E+02 0.30494285544E+02 0.23483504554E+02 0.20130509810E+02 0.18727965075E+02
 0.17857117772E+02 0.17279728520E+02 0.16936492411E+02 0.16762134846E+02 0.16701031869E+02
 0.16712810475E+02 0.16771006759E+02 0.16858636846E+02 0.16963631321E+02 0.17075768024E+02
 0.17185561374E+02 0.17284670225E+02 0.17366886621E+02 0.17428371694E+02 0.17467857992E+02
 0.17486799498E+02 0.17486799498E+02 0.17467857992E+02 0.17428371694E+02 0.17366886621E+02
 0.17284670225E+02 0.17185561374E+02 0.17075768024E+02 0.16963631321E+02 0.16858636846E+02
 0.16771006759E+02 0.16712810475E+02 0.16701031869E+02 0.16762134846E+02 0.16936492411E+02
 0.17279728520E+02 0.17857117772E+02 0.18727965075E+02 0.20130509810E+02 0.23483504554E+02
 0.30494285544E+02 0.42456216665E+02 0.60026982501E+02 0.83097707788E+02 0.11076168063E+03
 0.14137935649E+03 0.17273104034E+03 0.20224654979E+03 0.22729568968E+03 0.24551128028E+03
 0.25510184911E+03 0.25510184911E+03 0.24551128028E+03 0.22729568968E+03 0.20224654979E+03
 0.11763975876E+03 0.93751344342E+02 0.71679377818E+02 0.52943092868E+02 0.38469711958E+02
 0.28506453310E+02 0.22620855091E+02 0.19793600253E+02 0.18598078698E+02 0.17857117772E+02
 0.17391332626E+02 0.17149550060E+02 0.17072651440E+02 0.17108125969E+02 0.17216255439E+02
 0.17369868843E+02 0.17550793396E+02 0.17745711878E+02 0.17943135765E+02 0.18132167607E+02
 0.18302762182E+02 0.18444586843E+02 0.18550663747E+02 0.18621283672E+02 0.18660662000E+02
 0.18673187741E+02 0.18660662000E+02 0.18621283672E+02 0.18550663747E+02 0.18444586843E+02
 0.18302762182E+02 0.18132167607E+02 0.17943135765E+02 0.17745711878E+02 0.17550793396E+02
 0.17369868843E+02 0.17216255439E+02 0.17108125969E+02 0.17072651440E+02 0.17149550060E+02
 0.17391332626E+02 0.17857117772E+02 0.18598078698E+02 0.19793600253E+02 0.22620855091E+02
 0.28506453310E+02 0.38469711958E+02 0.52943092868E+02 0.71679377818E+02 0.93751344342E+02
 0.11763975876E+03 0.14139906842E+03 0.16288505570E+03 0.18002174998E+03 0.19107530337E+03
 0.19489431869E+03 0.19107530337E+03 0.18002174998E+03 0.16288505570E+03 0.14139906842E+03
 0.75839239002E+02 0.59195200784E+02 0.44839168160E+02 0.33635601805E+02 0.25891055886E+02
 0.21331302268E+02 0.19162101617E+02 0.18215115361E+02 0.17620423495E+02 0.17279728520E+02
 0.17149550060E+02 0.17177725395E+02 0.17316203737E+02 0.17527196122E+02 0.17783704752E+02
 0.18066806963E+02 0.18362039999E+02 0.18656553516E+02 0.18937841651E+02 0.19191350264E+02
 0.19399946921E+02 0.19556397273E+02 0.19662873163E+02 0.19726755425E+02 0.19756146026E+02
 0.19756146026E+02 0.19726755425E+02 0.19662873163E+02 0.19556397273E+02 0.19399946921E+02
 0.19191350264E+02 0.18937841651E+02 0.18656553516E+02 0.18362039999E+02 0.18066806963E+02
 0.17783704752E+02 0.17527196122E+02 0.17316203737E+02 0.17177725395E+02 0.17149550060E+02
 0.17279728520E+02 0.17620423495E+02 0.18215115361E+02 0.19162101617E+02 0.21331302268E+02
 0.25891055886E+02 0.33635601805E+02 0.44839168160E+02 0.59195200784E+02 0.75839239002E+02
 0.93449788405E+02 0.11041408400E+03 0.12503930301E+03 0.13578319440E+03 0.14147211480E+03
 0.14147211480E+03 0.13578319440E+03 0.12503930301E+03 0.11041408400E+03 0.93449788405E+02
 0.46866347027E+02 0.36599975278E+02 0.28545853217E+02 0.23003936597E+02 0.19796526238E+02
 0.18303757154E+02 0.17598608024E+02 0.17158973926E+02 0.16950342256E+02 0.16936492411E+02
 0.17072651440E+02 0.17316203737E+02 0.17632360409E+02 0.17995153807E+02 0.18385443289E+02
 0.18787858555E+02 0.19188219625E+02 0.19571891132E+02 0.19916096427E+02 0.20198874340E+02
 0.20412215629E+02 0.20559650155E+02 0.20651643062E+02 0.20700454400E+02 0.20715549278E+02
 0.20700454400E+02 0.20651643062E+02 0.20559650155E+02 0.20412215629E+02 0.20198874340E+02
 0.19916096427E+02 0.19571891132E+02 0.19188219625E+02 0.18787858555E+02 0.18385443289E+02
 0.17995153807E+02 0.17632360409E+02 0.17316203737E+02 0.17072651440E+02 0.16936492411E+02
 0.16950342256E+02 0.17158973926E+02 0.17598608024E+02 0.18303757154E+02 0.19796526238E+02
 0.23003936597E+02 0.28545853217E+02 0.36599975278E+02 0.46866347027E+02 0.58605077325E+02
 0.70739949542E+02 0.82012897711E+02 0.91168118857E+02 0.97139654940E+02 0.99213820550E+02
 0.97139654940E+02 0.91168118857E+02 0.82012897711E+02 0.70739949542E+02 0.58605077325E+02
 0.29040188955E+02 0.23763820002E+02 0.20193513588E+02 0.18196932581E+02 0.17281447638E+02
 0.16779277418E+02 0.16495526431E+02 0.16418933375E+02 0.16520212161E+02 0.16762134846E+02
 0.17108125969E+02 0.17527196122E+02 0.17995153807E+02 0.18493200008E+02 0.19005407989E+02
 0.19516447276E+02 0.20008785664E+02 0.20451126715E+02 0.20816583681E+02 0.21095001087E+02
 0.21290212109E+02 0.21415146878E+02 0.21486122527E+02 0.21517476783E+02 0.21517476783E+02
 0.21486122527E+02 0.21415146878E+02 0.21290212109E+02 0.21095001087E+02 0.20816583681E+02
 0.20451126715E+02 0.20008785664E+02 0.19516447276E+02 0.19005407989E+02 0.18493200008E+02
 0.17995153807E+02 0.17527196122E+02 0.17108125969E+02 0.16762134846E+02 0.16520212161E+02
 0.16418933375E+02 0.16495526431E+02 0.16779277418E+02 0.17281447638E+02 0.18196932581E+02
 0.20193513588E+02 0.23763820002E+02 0.29040188955E+02 0.35777411522E+02 0.43397188633E+02
 0.51085617027E+02 0.57927908033E+02 0.63059295306E+02 0.65808218482E+02 0.65808218482E+02
 0.63059295306E+02 0.57927908033E+02 0.51085617027E+02 0.43397188633E+02 0.35777411522E+02
 0.19715879944E+02 0.17719009988E+02 0.16654068793E+02 0.16122436779E+02 0.15796363341E+02
 0.15661536281E+02 0.15710110536E+02 0.15919477582E+02 0.16259876448E+02 0.16701031869E+02
 0.17216255439E+02 0.17783704752E+02 0.18385443289E+02 0.19005407989E+02 0.19627435741E+02
 0.20231455648E+02 0.20778856987E+02 0.21236488418E+02 0.21590252314E+02 0.21842693371E+02
 0.22008016204E+02 0.22105916465E+02 0.22155516221E+02 0.22170416808E+02 0.22155516221E+02
 0.22105916465E+02 0.22008016204E+02 0.21842693371E+02 0.21590252314E+02 0.21236488418E+02
 0.20778856987E+02 0.20231455648E+02 0.19627435741E+02 0.19005407989E+02 0.18385443289E+02
 0.17783704752E+02 0.17216255439E+02 0.16701031869E+02 0.16259876448E+02 0.15919477582E+02
 0.15710110536E+02 0.15661536281E+02 0.15796363341E+02 0.16122436779E+02 0.16654068793E+02
 0.17719009988E+02 0.19715879944E+02 0.22768911851E+02 0.26715899344E+02 0.31152365794E+02
 0.35516298518E+02 0.39198076226E+02 0.41656364800E+02 0.42519795976E+02 0.41656364800E+02
 0.39198076226E+02 0.35516298518E+02 0.31152365794E+02 0.26715899344E+02 0.22768911851E+02
 0.15678583562E+02 0.15178203303E+02 0.14859197520E+02 0.14694150182E+02 0.14694285816E+02
 0.14855087768E+02 0.15160319990E+02 0.15587389672E+02 0.16112277064E+02 0.16712810475E+02
 0.17369868843E+02 0.18066806963E+02 0.18787858555E+02 0.19516447276E+02 0.20231455648E+02
 0.20889193048E+02 0.21448709170E+02 0.21889896140E+02 0.22211940706E+02 0.22428556448E+02
 0.22561540538E+02 0.22634104908E+02 0.22665141321E+02 0.22665141321E+02 0.22634104908E+02
 0.22561540538E+02 0.22428556448E+02 0.22211940706E+02 0.21889896140E+02 0.21448709170E+02
 0.20889193048E+02 0.20231455648E+02 0.19516447276E+02 0.18787858555E+02 0.18066806963E+02
 0.17369868843E+02 0.16712810475E+02 0.16112277064E+02 0.15587389672E+02 0.15160319990E+02
 0.14855087768E+02 0.14694285816E+02 0.14694150182E+02 0.14859197520E+02 0.15178203303E+02
 0.15678583562E+02 0.16599886817E+02 0.18080251013E+02 0.20049350459E+02 0.22266891212E+02
 0.24390595801E+02 0.26059676217E+02 0.26977496736E+02 0.26977496736E+02 0.26059676217E+02
 0.24390595801E+02 0.22266891212E+02 0.20049350459E+02 0.18080251013E+02 0.16599886817E+02
 0.13699374566E+02 0.13543517221E+02 0.13518091827E+02 0.13633636080E+02 0.13888995038E+02
 0.14273836544E+02 0.14772221579E+02 0.15366088746E+02 0.16037756791E+02 0.16771006759E+02
 0.17550793396E+02 0.18362039999E+02 0.19188219625E+02 0.20008785664E+02 0.20778856987E+02
 0.21448709170E+02 0.21990136246E+02 0.22396572497E+02 0.22678954548E+02 0.22859302092E+02
 0.22963607505E+02 0.23015383633E+02 0.23030741143E+02 0.23015383633E+02 0.22963607505E+02
 0.22859302092E+02 0.22678954548E+02 0.22396572497E+02 0.21990136246E+02 0.21448709170E+02
 0.20778856987E+02 0.20008785664E+02 0.19188219625E+02 0.18362039999E+02 0.17550793396E+02
 0.16771006759E+02 0.16037756791E+02 0.15366088746E+02 0.14772221579E+02 0.14273836544E+02
 0.13888995038E+02 0.13633636080E+02 0.13518091827E+02 0.13543517221E+02 0.13699374566E+02
 0.13962961274E+02 0.14328938989E+02 0.14891138265E+02 0.15663360511E+02 0.16543123230E+02
 0.17361439743E+02 0.17941095999E+02 0.18150444816E+02 0.17941095999E+02 0.17361439743E+02
 0.16543123230E+02 0.15663360511E+02 0.14891138265E+02 0.14328938989E+02 0.13962961274E+02
 0.12222937343E+02 0.12311100521E+02 0.12518851832E+02 0.12848113237E+02 0.13293768014E+02
 0.13845822336E+02 0.14491685235E+02 0.15217961501E+02 0.16011363379E+02 0.16858636846E+02
 0.17745711878E+02 0.18656553516E+02 0.19571891132E+02 0.20451126715E+02 0.21236488418E+02
 0.21889896140E+02 0.22396572497E+02 0.22762020280E+02 0.23006048798E+02 0.23155501525E+02
 0.23237219352E+02 0.23272319611E+02 0.23272319611E+02 0.23237219352E+02 0.23155501525E+02
 0.23006048798E+02 0.22762020280E+02 0.22396572497E+02 0.21889896140E+02 0.21236488418E+02
 0.20451126715E+02 0.19571891132E+02 0.18656553516E+02 0.17745711878E+02 0.16858636846E+02
 0.16011363379E+02 0.15217961501E+02 0.14491685235E+02 0.13845822336E+02 0.13293768014E+02
 0.12848113237E+02 0.12518851832E+02 0.12311100521E+02 0.12222937343E+02 0.12244029592E+02
 0.12355580229E+02 0.12531776139E+02 0.12742789177E+02 0.12977712645E+02 0.13228924019E+02
 0.13448221725E+02 0.13576947602E+02 0.13576947602E+02 0.13448221725E+02 0.13228924019E+02
 0.12977712645E+02 0.12742789177E+02 0.12531776139E+02 0.12355580229E+02 0.12244029592E+02
 0.11110587407E+02 0.11385937158E+02 0.11767388769E+02 0.12254154330E+02 0.12841328599E+02
 0.13521176942E+02 0.14284275770E+02 0.15120202082E+02 0.16017597062E+02 0.16963631321E+02
 0.17943135765E+02 0.18937841651E+02 0.19916096427E+02 0.20816583681E+02 0.21590252314E+02
 0.22211940706E+02 0.22678954548E+02 0.23006048798E+02 0.23218408452E+02 0.23344278258E+02
 0.23408542305E+02 0.23427995617E+02 0.23408542305E+02 0.23344278258E+02 0.23218408452E+02
 0.23006048798E+02 0.22678954548E+02 0.22211940706E+02 0.21590252314E+02 0.20816583681E+02
 0.19916096427E+02 0.18937841651E+02 0.17943135765E+02 0.16963631321E+02 0.16017597062E+02
 0.15120202082E+02 0.14284275770E+02 0.13521176942E+02 0.12841328599E+02 0.12254154330E+02
 0.11767388769E+02 0.11385937158E+02 0.11110587407E+02 0.10936930734E+02 0.10854827404E+02
 0.10848657096E+02 0.10898425826E+02 0.10981604075E+02 0.11075409690E+02 0.11159177615E+02
 0.11216485768E+02 0.11236797650E+02 0.11216485768E+02 0.11159177615E+02 0.11075409690E+02
 0.10981604075E+02 0.10898425826E+02 0.10848657096E+02 0.10854827404E+02 0.10936930734E+02
 0.10265793890E+02 0.10678493791E+02 0.11187313833E+02 0.11791496683E+02 0.12487481276E+02
 0.13269446973E+02 0.14129727144E+02 0.15058918970E+02 0.16045604932E+02 0.17075768024E+02
 0.18132167607E+02 0.19191350264E+02 0.20198874340E+02 0.21095001087E+02 0.21842693371E+02
 0.22428556448E+02 0.22859302092E+02 0.23155501525E+02 0.23344278258E+02 0.23452404988E+02
 0.23500789683E+02 0.23500789683E+02 0.23452404988E+02 0.23344278258E+02 0.23155501525E+02
 0.22859302092E+02 0.22428556448E+02 0.21842693371E+02 0.21095001087E+02 0.20198874340E+02
 0.19191350264E+02 0.18132167607E+02 0.17075768024E+02 0.16045604932E+02 0.15058918970E+02
 0.14129727144E+02 0.13269446973E+02 0.12487481276E+02 0.11791496683E+02 0.11187313833E+02
 0.10678493791E+02 0.10265793890E+02 0.99466761707E+01 0.97150196564E+01 0.95611485830E+01
 0.94722515700E+01 0.94332217313E+01 0.94278859616E+01 0.94405173332E+01 0.94574542208E+01
 0.94686039841E+01 0.94686039841E+01 0.94574542208E+01 0.94405173332E+01 0.94278859616E+01
 0.94332217313E+01 0.94722515700E+01 0.95611485830E+01 0.97150196564E+01 0.99466761707E+01
 0.96085585875E+01 0.10122296649E+02 0.10726955784E+02 0.11422439013E+02 0.12206137601E+02
 0.13073024700E+02 0.14015710738E+02 0.15024335516E+02 0.16086247094E+02 0.17185561374E+02
 0.18302762182E+02 0.19399946921E+02 0.20412215629E+02 0.21290212109E+02 0.22008016204E+02
 0.22561540538E+02 0.22963607505E+02 0.23237219352E+02 0.23408542305E+02 0.23500789683E+02
 0.23529692040E+02 0.23500789683E+02 0.23408542305E+02 0.23237219352E+02 0.22963607505E+02
 0.22561540538E+02 0.22008016204E+02 0.21290212109E+02 0.20412215629E+02 0.19399946921E+02
 0.18302762182E+02 0.17185561374E+02 0.16086247094E+02 0.15024335516E+02 0.14015710738E+02
 0.13073024700E+02 0.12206137601E+02 0.11422439013E+02 0.10726955784E+02 0.10122296649E+02
 0.96085585875E+01 0.91833093995E+01 0.88416996048E+01 0.85766994511E+01 0.83794400908E+01
 0.82396609567E+01 0.81462971912E+01 0.80882445303E+01 0.80552952809E+01 0.80391598734E+01
 0.80344115586E+01 0.80391598734E+01 0.80552952809E+01 0.80882445303E+01 0.81462971912E+01
 0.82396609567E+01 0.83794400908E+01 0.85766994511E+01 0.88416996048E+01 0.91833093995E+01
 0.90838591115E+01 0.96748733417E+01 0.10355255824E+02 0.11125202211E+02 0.11982205153E+02
 0.12920960017E+02 0.13933318151E+02 0.15008169690E+02 0.16131209298E+02 0.17284670225E+02
 0.18444586843E+02 0.19556397273E+02 0.20559650155E+02 0.21415146878E+02 0.22105916465E+02
 0.22634104908E+02 0.23015383633E+02 0.23272319611E+02 0.23427995617E+02 0.23500789683E+02
 0.23500789683E+02 0.23427995617E+02 0.23272319611E+02 0.23015383633E+02 0.22634104908E+02
 0.22105916465E+02 0.21415146878E+02 0.20559650155E+02 0.19556397273E+02 0.18444586843E+02
 0.17284670225E+02 0.16131209298E+02 0.15008169690E+02 0.13933318151E+02 0.12920960017E+02
 0.11982205153E+02 0.11125202211E+02 0.10355255824E+02 0.96748733417E+01 0.90838591115E+01
 0.85795576565E+01 0.81572672365E+01 0.78107589680E+01 0.75327967601E+01 0.73155798559E+01
 0.71511019857E+01 0.70314915179E+01 0.69494189692E+01 0.68986139966E+01 0.68744464821E+01
 0.68744464821E+01 0.68986139966E+01 0.69494189692E+01 0.70314915179E+01 0.71511019857E+01
 0.73155798559E+01 0.75327967601E+01 0.78107589680E+01 0.81572672365E+01 0.85795576565E+01
 0.86580568213E+01 0.93113310171E+01 0.10054311584E+02 0.10886864338E+02 0.11805843105E+02
 0.12804987027E+02 0.13874908605E+02 0.15003040810E+02 0.16173491494E+02 0.17366886621E+02
 0.18550663747E+02 0.19662873163E+02 0.20651643062E+02 0.21486122527E+02 0.22155516221E+02
 0.22665141321E+02 0.23030741143E+02 0.23272319611E+02 0.23408542305E+02 0.23452404988E+02
 0.23408542305E+02 0.23272319611E+02 0.23030741143E+02 0.22665141321E+02 0.22155516221E+02
 0.21486122527E+02 0.20651643062E+02 0.19662873163E+02 0.18550663747E+02 0.17366886621E+02
 0.16173491494E+02 0.15003040810E+02 0.13874908605E+02 0.12804987027E+02 0.11805843105E+02
 0.10886864338E+02 0.10054311584E+02 0.93113310171E+01 0.86580568213E+01 0.80919244801E+01
 0.76082263335E+01 0.72008308910E+01 0.68629155419E+01 0.65875645867E+01 0.63681567193E+01
 0.61985682812E+01 0.60732955624E+01 0.59876100376E+01 0.59378017441E+01 0.59214758895E+01
 0.59378017441E+01 0.59876100376E+01 0.60732955624E+01 0.61985682812E+01 0.63681567193E+01
 0.65875645867E+01 0.68629155419E+01 0.72008308910E+01 0.76082263335E+01 0.80919244801E+01
 0.83114900506E+01 0.90169620786E+01 0.98129185666E+01 0.10698407326E+02 0.11669234661E+02
 0.12717937682E+02 0.13833836718E+02 0.15003024065E+02 0.16208245616E+02 0.17428371694E+02
 0.18621283672E+02 0.19726755425E+02 0.20700454400E+02 0.21517476783E+02 0.22170416808E+02
 0.22665141321E+02 0.23015383633E+02 0.23237219352E+02 0.23344278258E+02 0.23344278258E+02
 0.23237219352E+02 0.23015383633E+02 0.22665141321E+02 0.22170416808E+02 0.21517476783E+02
 0.20700454400E+02 0.19726755425E+02 0.18621283672E+02 0.17428371694E+02 0.16208245616E+02
 0.15003024065E+02 0.13833836718E+02 0.12717937682E+02 0.11669234661E+02 0.10698407326E+02
 0.98129185666E+01 0.90169620786E+01 0.83114900506E+01 0.76944718325E+01 0.71614510357E+01
 0.67063434635E+01 0.63223165079E+01 0.60025598666E+01 0.57408086001E+01 0.55315853422E+01
 0.53702367622E+01 0.52528978237E+01 0.51765008358E+01 0.51388716758E+01 0.51388716758E+01
 0.51765008358E+01 0.52528978237E+01 0.53702367622E+01 0.55315853422E+01 0.57408086001E+01
 0.60025598666E+01 0.63223165079E+01 0.67063434635E+01 0.71614510357E+01 0.76944718325E+01
 0.80318757093E+01 0.87818243059E+01 0.96226442945E+01 0.10552343277E+02 0.11565591044E+02
 0.12653765788E+02 0.13805030564E+02 0.15004302926E+02 0.16233103680E+02 0.17467857992E+02
 0.18660662000E+02 0.19756146026E+02 0.20715549278E+02 0.21517476783E+02 0.22155516221E+02
 0.22634104908E+02 0.22963607505E+02 0.23155501525E+02 0.23218408452E+02 0.23155501525E+02
 0.22963607505E+02 0.22634104908E+02 0.22155516221E+02 0.21517476783E+02 0.20715549278E+02
 0.19756146026E+02 0.18660662000E+02 0.17467857992E+02 0.16233103680E+02 0.15004302926E+02
 0.13805030564E+02 0.12653765788E+02 0.11565591044E+02 0.10552343277E+02 0.96226442945E+01
 0.87818243059E+01 0.80318757093E+01 0.73716110104E+01 0.67971354374E+01 0.63026191293E+01
 0.58812305052E+01 0.55260286369E+01 0.52306330180E+01 0.49895804102E+01 0.47983968101E+01
 0.46535035332E+01 0.45521002370E+01 0.44921207761E+01 0.44722748277E+01 0.44921207761E+01
 0.45521002370E+01 0.46535035332E+01 0.47983968101E+01 0.49895804102E+01 0.52306330180E+01
 0.55260286369E+01 0.58812305052E+01 0.63026191293E+01 0.67971354374E+01 0.73716110104E+01
 0.78101698666E+01 0.85979332292E+01 0.94763057626E+01 0.10442254106E+02 0.11489399349E+02
 0.12608087484E+02 0.13785430295E+02 0.15005208607E+02 0.16247667936E+02 0.17486799498E+02
 0.18673187741E+02 0.19756146026E+02 0.20700454400E+02 0.21486122527E+02 0.22105916465E+02
 0.22561540538E+02 0.22859302092E+02 0.23006048798E+02 0.23006048798E+02 0.22859302092E+02
 0.22561540538E+02 0.22105916465E+02 0.21486122527E+02 0.20700454400E+02 0.19756146026E+02
 0.18673187741E+02 0.17486799498E+02 0.16247667936E+02 0.15005208607E+02 0.13785430295E+02
 0.12608087484E+02 0.11489399349E+02 0.10442254106E+02 0.94763057626E+01 0.85979332292E+01
 0.78101698666E+01 0.71127792945E+01 0.65026206590E+01 0.59743356718E+01 0.55212586823E+01
 0.51363614427E+01 0.48130327034E+01 0.45455593937E+01 0.43292884697E+01 0.41605560318E+01
 0.40365261464E+01 0.39550657936E+01 0.39147124654E+01 0.39147124654E+01 0.39550657936E+01
 0.40365261464E+01 0.41605560318E+01 0.43292884697E+01 0.45455593937E+01 0.48130327034E+01
 0.51363614427E+01 0.55212586823E+01 0.59743356718E+01 0.65026206590E+01 0.71127792945E+01
 0.76388194649E+01 0.84584822170E+01 0.93679228942E+01 0.10363158419E+02 0.11436860526E+02
 0.12578393910E+02 0.13773781715E+02 0.15005534632E+02 0.16252420956E+02 0.17486799498E+02
 0.18660662000E+02 0.19726755425E+02 0.20651643062E+02 0.21415146878E+02 0.22008016204E+02
 0.22428556448E+02 0.22678954548E+02 0.22762020280E+02 0.22678954548E+02 0.22428556448E+02
 0.22008016204E+02 0.21415146878E+02 0.20651643062E+02 0.19726755425E+02 0.18660662000E+02
 0.17486799498E+02 0.16252420956E+02 0.15005534632E+02 0.13773781715E+02 0.12578393910E+02
 0.11436860526E+02 0.10363158419E+02 0.93679228942E+01 0.84584822170E+01 0.76388194649E+01
 0.69096169767E+01 0.62685389628E+01 0.57108224627E+01 0.52301222555E+01 0.48194516580E+01
 0.44720226638E+01 0.41818278054E+01 0.39439021086E+01 0.37543138711E+01 0.36100100013E+01
 0.35086541448E+01 0.34485457327E+01 0.34286296792E+01 0.34485457327E+01 0.35086541448E+01
 0.36100100013E+01 0.37543138711E+01 0.39439021086E+01 0.41818278054E+01 0.44720226638E+01
 0.48194516580E+01 0.52301222555E+01 0.57108224627E+01 0.62685389628E+01 0.69096169767E+01
 0.75115361498E+01 0.83580463293E+01 0.92930897912E+01 0.10311794680E+02 0.11405888160E+02
 0.12563666873E+02 0.13769883447E+02 0.15005534632E+02 0.16247667936E+02 0.17467857992E+02