 running on   96 total cores
 distrk:  each k-point on   24 cores,    4 groups
 distr:  one band on    6 cores,    4 groups
 using from now: INCAR     
 vasp.5.4.1 24Jun15 (build Nov 25 2015 16:01:35) complex                        
  
 POSCAR found type information on POSCAR  Ga As
 POSCAR found :  2 types and       2 ions
 scaLAPACK will be used

 ----------------------------------------------------------------------------- 
|                                                                             |
|           W    W    AA    RRRRR   N    N  II  N    N   GGGG   !!!           |
|           W    W   A  A   R    R  NN   N  II  NN   N  G    G  !!!           |
|           W    W  A    A  R    R  N N  N  II  N N  N  G       !!!           |
|           W WW W  AAAAAA  RRRRR   N  N N  II  N  N N  G  GGG   !            |
|           WW  WW  A    A  R   R   N   NN  II  N   NN  G    G                |
|           W    W  A    A  R    R  N    N  II  N    N   GGGG   !!!           |
|                                                                             |
|      You have enabled k-point parallelism (KPAR>1).                         |
|      This developmental code was originally  written by Paul Kent at ORNL,  |
|      and carefully double checked in Vienna.                                |
|      GW as well as linear response parallelism added by Martijn Marsman     |
|      and Georg Kresse.                                                      |
|      Carefully verify results versus KPAR=1.                                |
|      Report problems to Paul Kent and Vienna.                               |
|                                                                             |
 ----------------------------------------------------------------------------- 


 ----------------------------------------------------------------------------- 
|                                                                             |
|           W    W    AA    RRRRR   N    N  II  N    N   GGGG   !!!           |
|           W    W   A  A   R    R  NN   N  II  NN   N  G    G  !!!           |
|           W    W  A    A  R    R  N N  N  II  N N  N  G       !!!           |
|           W WW W  AAAAAA  RRRRR   N  N N  II  N  N N  G  GGG   !            |
|           WW  WW  A    A  R   R   N   NN  II  N   NN  G    G                |
|           W    W  A    A  R    R  N    N  II  N    N   GGGG   !!!           |
|                                                                             |
|      You have selected ISYM=2 for HF type calculation. This will symmetrize |
|      the charge density but not the exchange potential.                     |
|      I suggest to use ISYM=3 instead. This uses symmetry to obtain          |
|      the orbitals at all k-points in the Brillouine zone, but does not      |
|      apply symmetry to the Hartree potential directly.                      |
|      The resultant charge might have lower symmetry than the crystal,       |
|      but at least, Hartree and exchange are fully compatible.               |
|                                                                             |
 ----------------------------------------------------------------------------- 

 LDA part: xc-table for Pade appr. of Perdew

 ----------------------------------------------------------------------------- 
|                                                                             |
|           W    W    AA    RRRRR   N    N  II  N    N   GGGG   !!!           |
|           W    W   A  A   R    R  NN   N  II  NN   N  G    G  !!!           |
|           W    W  A    A  R    R  N N  N  II  N N  N  G       !!!           |
|           W WW W  AAAAAA  RRRRR   N  N N  II  N  N N  G  GGG   !            |
|           WW  WW  A    A  R   R   N   NN  II  N   NN  G    G                |
|           W    W  A    A  R    R  N    N  II  N    N   GGGG   !!!           |
|                                                                             |
|      Your generating k-point grid is not commensurate to the symmetry       |
|      of the lattice.  This can cause   slow convergence with respect        |
|      to k-points for HF type calculations                                   |
|      suggested SOLUTIONS:                                                   |
|       ) if not already the case, use automatic k-point generation           |
|       ) shift your grid to Gamma (G) (e.g. required for hex or fcc lattice) |
|                                                                             |
 ----------------------------------------------------------------------------- 

 POSCAR, INCAR and KPOINTS ok, starting setup
 WARNING: small aliasing (wrap around) errors must be expected
 FFT: planning ...
 WAVECAR not read
 WARNING: random wavefunctions but no delay for mixing, default for NELMDL
 entering main loop
       N       E                     dE             d eps       ncg     rms          ort
DAV:   1     0.778488129157E+03    0.77849E+03   -0.34783E+04  2592   0.635E+03
DAV:   2     0.120292042034E+03   -0.65820E+03   -0.61039E+03  2592   0.157E+03
DAV:   3     0.362775508056E+02   -0.84014E+02   -0.80080E+02  2592   0.205E+02
DAV:   4     0.312625345072E+02   -0.50150E+01   -0.49677E+01  2592   0.527E+01
DAV:   5     0.311857773332E+02   -0.76757E-01   -0.76738E-01  2592   0.674E+00
 gam= 0.000 g(H,U,f)=  0.188E+01 0.318E+00 0.377E-18 ort(H,U,f) = 0.000E+00 0.000E+00 0.000E+00
SDA:   6    -0.944739365348E+01   -0.40633E+02   -0.76738E-01  2592   0.220E+01 0.000E+00
 gam= 0.000 trial= 0.400  step= 0.268 mean= 0.400
 gam= 0.075 g(H,U,f)=  0.746E-01 0.897E-01 0.227E-57 ort(H,U,f) =-0.157E+00 0.156E+00 0.263E-57
CGA:   7    -0.973889692150E+01   -0.29150E+00   -0.29459E+00  2592   0.164E+00-0.165E-02
 gam= 0.075 trial= 0.393  step= 0.743 mean= 0.393
 gam= 0.711 g(H,U,f)=  0.885E-01 0.283E-01 0.237E-17 ort(H,U,f) =-0.480E-01 0.517E-01 0.498E-18
CGA:   8    -0.980053846223E+01   -0.61642E-01   -0.60960E-01  2592   0.117E+00 0.379E-02
 gam= 0.711 trial= 0.411  step= 0.552 mean= 0.411
 gam= 0.251 g(H,U,f)=  0.240E-01 0.538E-02 0.693E-85 ort(H,U,f) =-0.245E-01 0.258E-01 0.300E-84
CGA:   9    -0.983361311526E+01   -0.33075E-01   -0.32958E-01  2592   0.293E-01 0.127E-02
 gam= 0.251 trial= 0.418  step= 0.583 mean= 0.418
 gam= 0.438 g(H,U,f)=  0.118E-01 0.103E-02 0.128E-16 ort(H,U,f) =-0.368E-02 0.399E-02 0.169E-16
CGA:  10    -0.984229605967E+01   -0.86829E-02   -0.86508E-02  2592   0.128E-01 0.309E-03
 gam= 0.438 trial= 0.426  step= 0.398 mean= 0.426
 gam= 0.158 g(H,U,f)=  0.170E-02 0.324E-03 0.291E-29 ort(H,U,f) =-0.142E-02 0.142E-02 0.348E-29
CGA:  11    -0.984487689409E+01   -0.25808E-02   -0.25812E-02  2592   0.202E-02 0.673E-05
 gam= 0.158 trial= 0.425  step= 0.535 mean= 0.425
 gam= 0.356 g(H,U,f)=  0.592E-03 0.130E-03 0.160E-15 ort(H,U,f) =-0.321E-03 0.327E-03 0.258E-15
CGA:  12    -0.984541942708E+01   -0.54253E-03   -0.54212E-03  2592   0.722E-03 0.623E-05
 gam= 0.356 trial= 0.430  step= 0.501 mean= 0.430
 gam= 0.449 g(H,U,f)=  0.268E-03 0.560E-04 0.899E-32 ort(H,U,f) =-0.150E-03 0.147E-03 0.211E-31
CGA:  13    -0.984560057972E+01   -0.18115E-03   -0.18124E-03  2592   0.324E-03-0.289E-05
 gam= 0.449 trial= 0.434  step= 0.447 mean= 0.434
 gam= 0.403 g(H,U,f)=  0.110E-03 0.205E-04 0.710E-17 ort(H,U,f) =-0.743E-04 0.706E-04 0.234E-16
CGA:  14    -0.984567258339E+01   -0.72004E-04   -0.72027E-04  2592   0.131E-03-0.373E-05
 gam= 0.403 trial= 0.434  step= 0.456 mean= 0.434
 gam= 0.467 g(H,U,f)=  0.545E-04 0.646E-05 0.252E-43 ort(H,U,f) =-0.281E-04 0.259E-04 0.103E-42
CGA:  15    -0.984570196406E+01   -0.29381E-04   -0.29404E-04  2592   0.610E-04-0.222E-05
 gam= 0.467 trial= 0.436  step= 0.416 mean= 0.436
 gam= 0.362 g(H,U,f)=  0.198E-04 0.226E-05 0.136E-16 ort(H,U,f) =-0.104E-04 0.985E-05 0.775E-16
CGA:  16    -0.984571442193E+01   -0.12458E-04   -0.12453E-04  2592   0.221E-04-0.536E-06
 gam= 0.362 trial= 0.435  step= 0.418 mean= 0.435
 gam= 0.358 g(H,U,f)=  0.702E-05 0.874E-06 0.534E-19 ort(H,U,f) =-0.377E-05 0.329E-05 0.299E-18
CGA:  17    -0.984571899574E+01   -0.45738E-05   -0.45696E-05  2592   0.789E-05-0.482E-06
 gam= 0.358 trial= 0.434  step= 0.445 mean= 0.434
 gam= 0.374 g(H,U,f)=  0.268E-05 0.273E-06 0.231E-43 ort(H,U,f) =-0.124E-05 0.106E-05 0.171E-42
CGA:  18    -0.984572071432E+01   -0.17186E-05   -0.17194E-05  2592   0.295E-05-0.181E-06
 gam= 0.374 trial= 0.434  step= 0.393 mean= 0.434
 gam= 0.366 g(H,U,f)=  0.970E-06 0.109E-06 0.777E-23 ort(H,U,f) =-0.449E-06 0.399E-06 0.719E-22
CGA:  19    -0.984572128180E+01   -0.56748E-06   -0.56687E-06  2592   0.108E-05-0.496E-07
 gam= 0.366 trial= 0.432  step= 0.426 mean= 0.432
   1 F= -.98457213E+01 E0= -.98457213E+01  d E =-.984572E+01
 curvature:   0.00 expect dE=       NaN dE for cont linesearch        NaN
 trial: gam= 0.00000 g(F)=        NaN g(S)=        NaN ort =       NaN (trialstep = 0.100E+01)
 search vector abs. value=        NaN
 reached required accuracy - stopping structural energy minimisation
 writing wavefunctions
Application 21897858 resources: utime ~142186s, stime ~354s, Rss ~153544, inblocks ~699363, outblocks ~939268
