    2    2    1    1
  0.3405476E+02  0.4583961E-09  0.4583961E-09  0.4583961E-09  0.5000000E-15
  1.000000000000000E-004
  CAR 
 Name                                    
     18    145     16
 
  0.0000000E+00  0.0000000E+00  0.0000000E+00  0.4629630E-02
    1       -8.958643   1.000000
    2       -5.830269   1.000000
    3       -5.830269   1.000000
    4       -5.830269   1.000000
    5       -5.552486   1.000000
    6       -5.552486   1.000000
    7        2.260703   1.000000
    8        2.260703   1.000000
    9        2.260703   1.000000
   10        2.894245   0.000000
   11        6.766274   0.000000
   12        6.766274   0.000000
   13        6.766274   0.000000
   14        9.508640   0.000000
   15       11.575572   0.000000
   16       11.575573   0.000000
 
  0.1666667E+00  0.0000000E+00  0.0000000E+00  0.3703704E-01
    1       -8.853337   1.000000
    2       -5.810451   1.000000
    3       -5.810451   1.000000
    4       -5.751818   1.000000
    5       -5.553843   1.000000
    6       -5.553843   1.000000
    7        0.476580   1.000000
    8        2.026307   1.000000
    9        2.026307   1.000000
   10        4.014582   0.000000
   11        6.868363   0.000000
   12        7.108615   0.000000
   13        7.108615   0.000000
   14       10.509532   0.000000
   15       10.641961   0.000000
   16       10.641961   0.000000
 
  0.3333333E+00  0.0000000E+00  0.0000000E+00  0.3703704E-01
    1       -8.639222   1.000000
    2       -5.776358   1.000000
    3       -5.776358   1.000000
    4       -5.549703   1.000000
    5       -5.549703   1.000000
    6       -5.478808   1.000000
    7       -1.382201   1.000000
    8        1.636124   1.000000
    9        1.636124   1.000000
   10        4.072333   0.000000
   11        7.391447   0.000000
   12        7.391447   0.000000
   13        8.386626   0.000000
   14       10.131086   0.000000
   15       11.051923   0.000000
   16       11.051923   0.000000
 
  0.5000000E+00  0.0000000E+00  0.0000000E+00  0.1851852E-01
    1       -8.532175   1.000000
    2       -5.763135   1.000000
    3       -5.763135   1.000000
    4       -5.543087   1.000000
    5       -5.543087   1.000000
    6       -5.223379   1.000000
    7       -2.243683   1.000000
    8        1.467110   1.000000
    9        1.467110   1.000000
   10        3.960772   0.000000
   11        7.352785   0.000000
   12        7.352785   0.000000
   13        9.144443   0.000000
   14       10.739699   0.000000
   15       12.480181   0.000000
   16       12.480181   0.000000
 
  0.1666667E+00  0.1666667E+00  0.0000000E+00  0.2777778E-01
    1       -8.818483   1.000000
    2       -5.790408   1.000000
    3       -5.790408   1.000000
    4       -5.755202   1.000000
    5       -5.562131   1.000000
    6       -5.544345   1.000000
    7        0.474222   1.000000
    8        1.638462   1.000000
    9        1.638462   1.000000
   10        4.676373   0.000000
   11        5.840217   0.000000
   12        7.726361   0.000000
   13        7.726361   0.000000
   14        9.308321   0.000000
   15       11.286140   0.000000
   16       11.814907   0.000000
 
  0.3333333E+00  0.1666667E+00  0.0000000E+00  0.1111111E+00
    1       -8.641240   1.000000
    2       -5.764427   1.000000
    3       -5.751697   1.000000
    4       -5.615209   1.000000
    5       -5.538207   1.000000
    6       -5.497253   1.000000
    7       -0.917414   1.000000
    8        1.103724   1.000000
    9        1.221403   1.000000
   10        5.037908   0.000000
   11        6.189433   0.000000
   12        7.857383   0.000000
   13        8.293728   0.000000
   14       10.039966   0.000000
   15       11.872965   0.000000
   16       11.946061   0.000000
 
  0.5000000E+00  0.1666667E+00  0.0000000E+00  0.1111111E+00
    1       -8.500138   1.000000
    2       -5.748656   1.000000
    3       -5.735160   1.000000
    4       -5.570911   1.000000
    5       -5.539961   1.000000
    6       -5.202021   1.000000
    7       -2.025385   1.000000
    8        0.567588   1.000000
    9        1.138216   1.000000
   10        4.941010   0.000000
   11        6.845168   0.000000
   12        8.108700   0.000000
   13        8.723000   0.000000
   14       10.931778   0.000000
   15       12.126127   0.000000
   16       12.574908   0.000000
 
 -0.3333333E+00  0.1666667E+00  0.0000000E+00  0.1111111E+00
    1       -8.535037   1.000000
    2       -5.750007   1.000000
    3       -5.749639   1.000000
    4       -5.556563   1.000000
    5       -5.556226   1.000000
    6       -5.287663   1.000000
    7       -1.754270   1.000000
    8        0.429640   1.000000
    9        1.442508   1.000000
   10        4.998080   0.000000
   11        7.086975   0.000000
   12        7.803922   0.000000
   13        8.494120   0.000000
   14       10.644184   0.000000
   15       11.293483   0.000000
   16       12.476145   0.000000
 
 -0.1666667E+00  0.1666667E+00  0.0000000E+00  0.5555556E-01
    1       -8.711722   1.000000
    2       -5.787702   1.000000
    3       -5.772858   1.000000
    4       -5.626074   1.000000
    5       -5.563132   1.000000
    6       -5.532844   1.000000
    7       -0.507065   1.000000
    8        0.973209   1.000000
    9        1.903198   1.000000
   10        4.840382   0.000000
   11        6.839902   0.000000
   12        7.339441   0.000000
   13        7.646332   0.000000
   14        9.885656   0.000000
   15       11.119234   0.000000
   16       11.874626   0.000000
 
  0.3333333E+00  0.3333333E+00  0.0000000E+00  0.2777778E-01
    1       -8.537009   1.000000
    2       -5.703310   1.000000
    3       -5.703310   1.000000
    4       -5.657483   1.000000
    5       -5.528061   1.000000
    6       -5.390230   1.000000
    7       -1.264982   1.000000
    8        0.726822   1.000000
    9        0.726822   1.000000
   10        4.869700   0.000000
   11        5.294187   0.000000
   12        9.473865   0.000000
   13        9.683240   0.000000
   14        9.683240   0.000000
   15       12.477525   0.000000
   16       14.084562   0.000000
 
  0.5000000E+00  0.3333333E+00  0.0000000E+00  0.1111111E+00
    1       -8.433919   1.000000
    2       -5.703752   1.000000
    3       -5.680527   1.000000
    4       -5.625380   1.000000
    5       -5.529249   1.000000
    6       -5.140909   1.000000
    7       -1.901118   1.000000
    8        0.050291   1.000000
    9        0.591051   1.000000
   10        4.962025   0.000000
   11        5.861616   0.000000
   12        9.126870   0.000000
   13        9.873193   0.000000
   14       11.233848   0.000000
   15       12.883302   0.000000
   16       13.654115   0.000000
 
 -0.3333333E+00  0.3333333E+00  0.0000000E+00  0.5555556E-01
    1       -8.434073   1.000000
    2       -5.723945   1.000000
    3       -5.701114   1.000000
    4       -5.582868   1.000000
    5       -5.547822   1.000000
    6       -5.075666   1.000000
    7       -1.943544   1.000000
    8       -0.414034   1.000000
    9        0.906816   1.000000
   10        5.194658   0.000000
   11        7.284346   0.000000
   12        9.019036   0.000000
   13        9.135557   0.000000
   14        9.620061   0.000000
   15       11.176357   0.000000
   16       14.311860   0.000000
 
  0.5000000E+00  0.5000000E+00  0.0000000E+00  0.1388889E-01
    1       -8.399785   1.000000
    2       -5.670131   1.000000
    3       -5.655466   1.000000
    4       -5.655466   1.000000
    5       -5.519883   1.000000
    6       -5.095381   1.000000
    7       -2.108379   1.000000
    8        0.352966   1.000000
    9        0.352966   1.000000
   10        4.708172   0.000000
   11        4.828287   0.000000
   12       10.948273   0.000000
   13       11.298929   0.000000
   14       11.298930   0.000000
   15       13.036232   0.000000
   16       13.746218   0.000000
 
  0.5000000E+00  0.3333333E+00  0.1666667E+00  0.1111111E+00
    1       -8.502026   1.000000
    2       -5.728824   1.000000
    3       -5.721422   1.000000
    4       -5.599170   1.000000
    5       -5.539376   1.000000
    6       -5.265899   1.000000
    7       -1.581439   1.000000
    8        0.136475   1.000000
    9        0.909347   1.000000
   10        5.756396   0.000000
   11        6.276129   0.000000
   12        7.436634   0.000000
   13        9.577958   0.000000
   14       10.346664   0.000000
   15       12.432515   0.000000
   16       13.612326   0.000000
 
 -0.3333333E+00  0.3333333E+00  0.1666667E+00  0.1111111E+00
    1       -8.434072   1.000000
    2       -5.720962   1.000000
    3       -5.705524   1.000000
    4       -5.579472   1.000000
    5       -5.549987   1.000000
    6       -5.074631   1.000000
    7       -1.982056   1.000000
    8       -0.183140   1.000000
    9        0.619846   1.000000
   10        5.886430   0.000000
   11        6.758521   0.000000
   12        7.909971   0.000000
   13        9.421012   0.000000
   14       10.123447   0.000000
   15       12.623100   0.000000
   16       13.404353   0.000000
 
 -0.3333333E+00  0.5000000E+00  0.1666667E+00  0.5555556E-01
    1       -8.400960   1.000000
    2       -5.692749   1.000000
    3       -5.688838   1.000000
    4       -5.604726   1.000000
    5       -5.539380   1.000000
    6       -5.028378   1.000000
    7       -2.023334   1.000000
    8       -0.002120   1.000000
    9        0.081352   1.000000
   10        5.893579   0.000000
   11        5.910825   0.000000
   12        8.834213   0.000000
   13        9.110094   0.000000
   14       11.747068   0.000000
   15       13.278231   0.000000
   16       13.499280   0.000000
 
  0.0000000E+00  0.0000000E+00  0.0000000E+00  0.0000000E+00
    1       -8.958643   1.000000
    2       -5.830269   1.000000
    3       -5.830269   1.000000
    4       -5.830269   1.000000
    5       -5.552486   1.000000
    6       -5.552486   1.000000
    7        2.260703   1.000000
    8        2.260703   1.000000
    9        2.260703   1.000000
   10        2.894245   0.000000
   11        6.766274   0.000000
   12        6.766274   0.000000
   13        6.766274   0.000000
   14        9.508640   0.000000
   15       11.575572   0.000000
   16       11.575603   0.000000
 
  0.1612903E-01  0.0000000E+00  0.1612903E-01  0.0000000E+00
    1       -8.957228   1.000000
    2       -5.829869   1.000000
    3       -5.829869   1.000000
    4       -5.829599   1.000000
    5       -5.552629   1.000000
    6       -5.552401   1.000000
    7        2.197445   1.000000
    8        2.253237   1.000000
    9        2.253238   1.000000
   10        2.958524   0.000000
   11        6.751185   0.000000
   12        6.776884   0.000000
   13        6.776884   0.000000
   14        9.530926   0.000000
   15       11.475526   0.000000
   16       11.577836   0.000000
 
  0.3225807E-01  0.0000000E+00  0.3225807E-01  0.0000000E+00
    1       -8.952960   1.000000
    2       -5.828674   1.000000
    3       -5.828674   1.000000
    4       -5.827588   1.000000
    5       -5.553054   1.000000
    6       -5.552151   1.000000
    7        2.052348   1.000000
    8        2.231101   1.000000
    9        2.231101   1.000000
   10        3.106587   0.000000
   11        6.707449   0.000000
   12        6.808467   0.000000
   13        6.808467   0.000000
   14        9.596039   0.000000
   15       11.262544   0.000000
   16       11.584632   0.000000
 
  0.4838710E-01  0.0000000E+00  0.4838710E-01  0.0000000E+00
    1       -8.945883   1.000000
    2       -5.826697   1.000000
    3       -5.826697   1.000000
    4       -5.824217   1.000000
    5       -5.553751   1.000000
    6       -5.551738   1.000000
    7        1.875801   1.000000
    8        2.195025   1.000000
    9        2.195025   1.000000
   10        3.287744   0.000000
   11        6.639102   0.000000
   12        6.860284   0.000000
   13        6.860285   0.000000
   14        9.699061   0.000000
   15       11.016506   0.000000
   16       11.595940   0.000000
 
  0.6451613E-01  0.0000000E+00  0.6451613E-01  0.0000000E+00
    1       -8.936063   1.000000
    2       -5.823952   1.000000
    3       -5.823952   1.000000
    4       -5.819456   1.000000
    5       -5.554699   1.000000
    6       -5.551165   1.000000
    7        1.687672   1.000000
    8        2.146137   1.000000
    9        2.146137   1.000000
   10        3.481595   0.000000
   11        6.551467   0.000000
   12        6.931212   0.000000
   13        6.931212   0.000000
   14        9.831982   0.000000
   15       10.766227   0.000000
   16       11.611766   0.000000
 
  0.8064516E-01  0.0000000E+00  0.8064516E-01  0.0000000E+00
    1       -8.923594   1.000000
    2       -5.820457   1.000000
    3       -5.820456   1.000000
    4       -5.813270   1.000000
    5       -5.555855   1.000000
    6       -5.550438   1.000000
    7        1.495223   1.000000
    8        2.085867   1.000000
    9        2.085867   1.000000
   10        3.680093   0.000000
   11        6.449975   0.000000
   12        7.019840   0.000000
   13        7.019840   0.000000
   14        9.978310   0.000000
   15       10.533271   0.000000
   16       11.632077   0.000000
 
  0.9677421E-01  0.0000000E+00  0.9677421E-01  0.0000000E+00
    1       -8.908613   1.000000
    2       -5.816236   1.000000
    3       -5.816236   1.000000
    4       -5.805623   1.000000
    5       -5.557165   1.000000
    6       -5.549567   1.000000
    7        1.301523   1.000000
    8        2.015807   1.000000
    9        2.015807   1.000000
   10        3.879078   0.000000
   11        6.339467   0.000000
   12        7.124595   0.000000
   13        7.124595   0.000000
   14       10.061012   0.000000
   15       10.395711   0.000000
   16       11.656846   0.000000
 
  0.1129032E+00  0.0000000E+00  0.1129032E+00  0.0000000E+00
    1       -8.891252   1.000000
    2       -5.811323   1.000000
    3       -5.811323   1.000000
    4       -5.796478   1.000000
    5       -5.558559   1.000000
    6       -5.548560   1.000000
    7        1.108102   1.000000
    8        1.937608   1.000000
    9        1.937608   1.000000
   10        4.075604   0.000000
   11        6.223957   0.000000
   12        7.243843   0.000000
   13        7.243844   0.000000
   14        9.933234   0.000000
   15       10.500545   0.000000
   16       11.686057   0.000000
 
  0.1290323E+00  0.0000000E+00  0.1290323E+00  0.0000000E+00
    1       -8.871669   1.000000
    2       -5.805746   1.000000
    3       -5.805746   1.000000
    4       -5.785814   1.000000
    5       -5.559932   1.000000
    6       -5.547425   1.000000
    7        0.915808   1.000000
    8        1.852903   1.000000
    9        1.852903   1.000000
   10        4.266993   0.000000
   11        6.106677   0.000000
   12        7.376001   0.000000
   13        7.376002   0.000000
   14        9.734848   0.000000
   15       10.708158   0.000000
   16       11.719666   0.000000
 
  0.1451613E+00  0.0000000E+00  0.1451613E+00  0.0000000E+00
    1       -8.850063   1.000000
    2       -5.799546   1.000000
    3       -5.799546   1.000000
    4       -5.773643   1.000000
    5       -5.561143   1.000000
    6       -5.546172   1.000000
    7        0.725178   1.000000
    8        1.763245   1.000000
    9        1.763245   1.000000
   10        4.450345   0.000000
   11        5.990250   0.000000
   12        7.519560   0.000000
   13        7.519560   0.000000
   14        9.539787   0.000000
   15       10.945298   0.000000
   16       11.757623   0.000000
 
  0.1612903E+00  0.0000000E+00  0.1612903E+00  0.0000000E+00
    1       -8.826647   1.000000
    2       -5.792780   1.000000
    3       -5.792779   1.000000
    4       -5.760033   1.000000
    5       -5.561983   1.000000
    6       -5.544817   1.000000
    7        0.536585   1.000000
    8        1.670072   1.000000
    9        1.670072   1.000000
   10        4.622282   0.000000
   11        5.876931   0.000000
   12        7.673154   0.000000
   13        7.673154   0.000000
   14        9.362379   0.000000
   15       11.198854   0.000000
   16       11.799884   0.000000
 
  0.1774194E+00  0.0000000E+00  0.1774194E+00  0.0000000E+00
    1       -8.801690   1.000000
    2       -5.785502   1.000000
    3       -5.785502   1.000000
    4       -5.745154   1.000000
    5       -5.562139   1.000000
    6       -5.543375   1.000000
    7        0.350310   1.000000
    8        1.574687   1.000000
    9        1.574687   1.000000
   10        4.778692   0.000000
   11        5.768885   0.000000
   12        7.835534   0.000000
   13        7.835535   0.000000
   14        9.208942   0.000000
   15       11.464158   0.000000
   16       11.846341   0.000000
 
  0.1935484E+00  0.0000000E+00  0.1935484E+00  0.0000000E+00
    1       -8.775434   1.000000
    2       -5.777773   1.000000
    3       -5.777773   1.000000
    4       -5.729329   1.000000
    5       -5.561138   1.000000
    6       -5.541861   1.000000
    7        0.166638   1.000000
    8        1.478267   1.000000
    9        1.478267   1.000000
   10        4.914453   0.000000
   11        5.668679   0.000000
   12        8.005611   0.000000
   13        8.005611   0.000000
   14        9.084230   0.000000
   15       11.738437   0.000000
   16       11.896916   0.000000
 
  0.2096774E+00  0.0000000E+00  0.2096774E+00  0.0000000E+00
    1       -8.748147   1.000000
    2       -5.769661   1.000000
    3       -5.769661   1.000000
    4       -5.713132   1.000000
    5       -5.558288   1.000000
    6       -5.540291   1.000000
    7       -0.014160   1.000000
    8        1.381861   1.000000
    9        1.381861   1.000000
   10        5.022924   0.000000
   11        5.580073   0.000000
   12        8.182417   0.000000
   13        8.182417   0.000000
   14        8.992384   0.000000
   15       11.951472   0.000000
   16       12.019427   0.000000
 
  0.2258065E+00  0.0000000E+00  0.2258065E+00  0.0000000E+00
    1       -8.720122   1.000000
    2       -5.761239   1.000000
    3       -5.761239   1.000000
    4       -5.697458   1.000000
    5       -5.552585   1.000000
    6       -5.538680   1.000000
    7       -0.191799   1.000000
    8        1.286400   1.000000
    9        1.286400   1.000000
   10        5.095282   0.000000
   11        5.509175   0.000000
   12        8.365098   0.000000
   13        8.365098   0.000000
   14        8.936828   0.000000
   15       12.009873   0.000000
   16       12.304933   0.000000
 
  0.2419355E+00  0.0000000E+00  0.2419355E+00  0.0000000E+00
    1       -8.691658   1.000000
    2       -5.752581   1.000000
    3       -5.752581   1.000000
    4       -5.683482   1.000000
    5       -5.542773   1.000000
    6       -5.537041   1.000000
    7       -0.365951   1.000000
    8        1.192714   1.000000
    9        1.192714   1.000000
   10        5.122498   0.000000
   11        5.463153   0.000000
   12        8.552916   0.000000
   13        8.552916   0.000000
   14        8.919804   0.000000
   15       12.071931   0.000000
   16       12.592572   0.000000
 
  0.2580645E+00  0.0000000E+00  0.2580645E+00  0.0000000E+00
    1       -8.663081   1.000000
    2       -5.743769   1.000000
    3       -5.743768   1.000000
    4       -5.672335   1.000000
    5       -5.535392   1.000000
    6       -5.527684   1.000000
    7       -0.536263   1.000000
    8        1.101533   1.000000
    9        1.101533   1.000000
   10        5.106067   0.000000
   11        5.440091   0.000000
   12        8.745191   0.000000
   13        8.745191   0.000000
   14        8.941819   0.000000
   15       12.137404   0.000000
   16       12.879521   0.000000
 
  0.2741936E+00  0.0000000E+00  0.2741936E+00  0.0000000E+00
    1       -8.634696   1.000000
    2       -5.734888   1.000000
    3       -5.734888   1.000000
    4       -5.664560   1.000000
    5       -5.533749   1.000000
    6       -5.506780   1.000000
    7       -0.702283   1.000000
    8        1.013523   1.000000
    9        1.013523   1.000000
   10        5.062761   0.000000
   11        5.424564   0.000000
   12        8.941307   0.000000
   13        8.941307   0.000000
   14        9.001345   0.000000
   15       12.206008   0.000000
   16       13.162354   0.000000
 
  0.2903226E+00  0.0000000E+00  0.2903226E+00  0.0000000E+00
    1       -8.606794   1.000000
    2       -5.726036   1.000000
    3       -5.726036   1.000000
    4       -5.659917   1.000000
    5       -5.532130   1.000000
    6       -5.480395   1.000000
    7       -0.863489   1.000000
    8        0.929274   1.000000
    9        0.929274   1.000000
   10        5.009127   0.000000
   11        5.403019   0.000000
   12        9.095013   0.000000
   13        9.140662   0.000000
   14        9.140662   0.000000
   15       12.277382   0.000000
   16       13.436828   0.000000
 
  0.3064516E+00  0.0000000E+00  0.3064516E+00  0.0000000E+00
    1       -8.579676   1.000000
    2       -5.717310   1.000000
    3       -5.717309   1.000000
    4       -5.657705   1.000000
    5       -5.530552   1.000000
    6       -5.449397   1.000000
    7       -1.019284   1.000000
    8        0.849312   1.000000
    9        0.849312   1.000000
   10        4.954126   0.000000
   11        5.370578   0.000000
   12        9.218102   0.000000
   13        9.342650   0.000000
   14        9.342650   0.000000
   15       12.351091   0.000000
   16       13.697731   0.000000
 
  0.3225806E+00  0.0000000E+00  0.3225806E+00  0.0000000E+00
    1       -8.553635   1.000000
    2       -5.708807   1.000000
    3       -5.708806   1.000000
    4       -5.657187   1.000000
    5       -5.529033   1.000000
    6       -5.414802   1.000000
    7       -1.168971   1.000000
    8        0.774106   1.000000
    9        0.774106   1.000000
   10        4.901918   0.000000
   11        5.327581   0.000000
   12        9.365204   0.000000
   13        9.546583   0.000000
   14        9.546583   0.000000
   15       12.426561   0.000000
   16       13.938719   0.000000
 
  0.3387097E+00  0.0000000E+00  0.3387097E+00  0.0000000E+00
    1       -8.528951   1.000000
    2       -5.700625   1.000000
    3       -5.700625   1.000000
    4       -5.657772   1.000000
    5       -5.527588   1.000000
    6       -5.377598   1.000000
    7       -1.311759   1.000000
    8        0.704080   1.000000
    9        0.704080   1.000000
   10        4.854504   0.000000
   11        5.276386   0.000000
   12        9.530761   0.000000
   13        9.751677   0.000000
   14        9.751677   0.000000
   15       12.503114   0.000000
   16       14.152054   0.000000
 
  0.3548387E+00  0.0000000E+00  0.3548387E+00  0.0000000E+00
    1       -8.505887   1.000000
    2       -5.692855   1.000000
    3       -5.692855   1.000000
    4       -5.659029   1.000000
    5       -5.526231   1.000000
    6       -5.338744   1.000000
    7       -1.446720   1.000000
    8        0.639611   1.000000
    9        0.639611   1.000000
   10        4.812914   0.000000
   11        5.219852   0.000000
   12        9.709333   0.000000
   13        9.956950   0.000000
   14        9.956950   0.000000
   15       12.579906   0.000000
   16       14.328224   0.000000
 
  0.3709677E+00  0.0000000E+00  0.3709677E+00  0.0000000E+00
    1       -8.484652   1.000000
    2       -5.685595   1.000000
    3       -5.685595   1.000000
    4       -5.660648   1.000000
    5       -5.524977   1.000000
    6       -5.299216   1.000000
    7       -1.572803   1.000000
    8        0.581036   1.000000
    9        0.581036   1.000000
   10        4.777695   0.000000
   11        5.160684   0.000000
   12        9.895657   0.000000
   13       10.161111   0.000000
   14       10.161111   0.000000
   15       12.655878   0.000000
   16       14.456236   0.000000
 
  0.3870968E+00  0.0000000E+00  0.3870968E+00  0.0000000E+00
    1       -8.465448   1.000000
    2       -5.678942   1.000000
    3       -5.678941   1.000000
    4       -5.662423   1.000000
    5       -5.523836   1.000000
    6       -5.260059   1.000000
    7       -1.688832   1.000000
    8        0.528655   1.000000
    9        0.528655   1.000000
   10        4.749132   0.000000
   11        5.101233   0.000000
   12       10.084521   0.000000
   13       10.362406   0.000000
   14       10.362406   0.000000
   15       12.729759   0.000000
   16       14.526529   0.000000
 
  0.4032258E+00  0.0000000E+00  0.4032258E+00  0.0000000E+00
    1       -8.448455   1.000000
    2       -5.672980   1.000000
    3       -5.672980   1.000000
    4       -5.664198   1.000000
    5       -5.522822   1.000000
    6       -5.222403   1.000000
    7       -1.793519   1.000000
    8        0.482727   1.000000
    9        0.482727   1.000000
   10        4.727325   0.000000
   11        5.043469   0.000000
   12       10.270512   0.000000
   13       10.558360   0.000000
   14       10.558360   0.000000
   15       12.800013   0.000000
   16       14.540490   0.000000
 
  0.4193549E+00  0.0000000E+00  0.4193549E+00  0.0000000E+00
    1       -8.433828   1.000000
    2       -5.667791   1.000000
    3       -5.667791   1.000000
    4       -5.665860   1.000000
    5       -5.521945   1.000000
    6       -5.187466   1.000000
    7       -1.885496   1.000000
    8        0.443481   1.000000
    9        0.443481   1.000000
   10        4.712210   0.000000
   11        4.989050   0.000000
   12       10.447740   0.000000
   13       10.745436   0.000000
   14       10.745436   0.000000
   15       12.864855   0.000000
   16       14.409686   0.000000
 
  0.4354839E+00  0.0000000E+00  0.4354839E+00  0.0000000E+00
    1       -8.421711   1.000000
    2       -5.667329   1.000000
    3       -5.663447   1.000000
    4       -5.663447   1.000000
    5       -5.521215   1.000000
    6       -5.156514   1.000000
    7       -1.963352   1.000000
    8        0.411109   1.000000
    9        0.411109   1.000000
   10        4.703525   0.000000
   11        4.939447   0.000000
   12       10.609550   0.000000
   13       10.918546   0.000000
   14       10.918546   0.000000
   15       12.922257   0.000000
   16       14.195974   0.000000
 
  0.4516129E+00  0.0000000E+00  0.4516129E+00  0.0000000E+00
    1       -8.412187   1.000000
    2       -5.668528   1.000000
    3       -5.660002   1.000000
    4       -5.660002   1.000000
    5       -5.520639   1.000000
    6       -5.130800   1.000000
    7       -2.025696   1.000000
    8        0.385765   1.000000
    9        0.385765   1.000000
   10        4.700660   0.000000
   11        4.896150   0.000000
   12       10.748369   0.000000
   13       11.070487   0.000000
   14       11.070487   0.000000
   15       12.970049   0.000000
   16       14.013574   0.000000
 
  0.4677419E+00  0.0000000E+00  0.4677419E+00  0.0000000E+00
    1       -8.405322   1.000000
    2       -5.669412   1.000000
    3       -5.657496   1.000000
    4       -5.657496   1.000000
    5       -5.520221   1.000000
    6       -5.111469   1.000000
    7       -2.071265   1.000000
    8        0.367573   1.000000
    9        0.367573   1.000000
   10        4.702362   0.000000
   11        4.861056   0.000000
   12       10.856033   0.000000
   13       11.191719   0.000000
   14       11.191719   0.000000
   15       13.006104   0.000000
   16       13.870688   0.000000
 
  0.4838710E+00  0.0000000E+00  0.4838710E+00  0.0000000E+00
    1       -8.401176   1.000000
    2       -5.669952   1.000000
    3       -5.655976   1.000000
    4       -5.655975   1.000000
    5       -5.519968   1.000000
    6       -5.099457   1.000000
    7       -2.099046   1.000000
    8        0.356622   1.000000
    9        0.356622   1.000000
   10        4.706144   0.000000
   11        4.837076   0.000000
   12       10.924652   0.000000
   13       11.271123   0.000000
   14       11.271123   0.000000
   15       13.028586   0.000000
   16       13.778294   0.000000
 
  0.5000000E+00  0.0000000E+00  0.5000000E+00  0.0000000E+00
    1       -8.399785   1.000000
    2       -5.670131   1.000000
    3       -5.655466   1.000000
    4       -5.655466   1.000000
    5       -5.519883   1.000000
    6       -5.095381   1.000000
    7       -2.108379   1.000000
    8        0.352966   1.000000
    9        0.352966   1.000000
   10        4.708172   0.000000
   11        4.828287   0.000000
   12       10.948273   0.000000
   13       11.298929   0.000000
   14       11.298930   0.000000
   15       13.036231   0.000000
   16       13.746155   0.000000
 
  0.4937500E+00  0.1875000E-01  0.5125000E+00  0.0000000E+00
    1       -8.400015   1.000000
    2       -5.671549   1.000000
    3       -5.656223   1.000000
    4       -5.653683   1.000000
    5       -5.520156   1.000000
    6       -5.094704   1.000000
    7       -2.105564   1.000000
    8        0.346499   1.000000
    9        0.348048   1.000000
   10        4.725326   0.000000
   11        4.846198   0.000000
   12       10.882044   0.000000
   13       11.233771   0.000000
   14       11.331776   0.000000
   15       13.046976   0.000000
   16       13.713324   0.000000
 
  0.4875000E+00  0.3750000E-01  0.5250000E+00  0.0000000E+00
    1       -8.400689   1.000000
    2       -5.674642   1.000000
    3       -5.658437   1.000000
    4       -5.649497   1.000000
    5       -5.520965   1.000000
    6       -5.092727   1.000000
    7       -2.097302   1.000000
    8        0.327247   1.000000
    9        0.334166   1.000000
   10        4.776580   0.000000
   11        4.899073   0.000000
   12       10.715477   0.000000
   13       11.066132   0.000000
   14       11.391309   0.000000
   15       13.076256   0.000000
   16       13.647486   0.000000
 
  0.4812500E+00  0.5625000E-01  0.5375000E+00  0.0000000E+00
    1       -8.401775   1.000000
    2       -5.678173   1.000000
    3       -5.661950   1.000000
    4       -5.644166   1.000000
    5       -5.522290   1.000000