   2   2   1   0
  0.3405476E+02  0.4583961E-09  0.4583961E-09  0.4583961E-09  0.5000000E-15
  1.000000000000000E-004
  CAR 
 Name                                    
     15.72706163    -10.13415248  301      2.37620985      1.00000000
    -10.134  0.0000E+00  0.0000E+00
    -10.048  0.0000E+00  0.0000E+00
     -9.962  0.0000E+00  0.0000E+00
     -9.876  0.0000E+00  0.0000E+00
     -9.789  0.0000E+00  0.0000E+00
     -9.703  0.0000E+00  0.0000E+00
     -9.617  0.0000E+00  0.0000E+00
     -9.531  0.0000E+00  0.0000E+00
     -9.445  0.0000E+00  0.0000E+00
     -9.358  0.0000E+00  0.0000E+00
     -9.272  0.0000E+00  0.0000E+00
     -9.186  0.0000E+00  0.0000E+00
     -9.100  0.0000E+00  0.0000E+00
     -9.013  0.4651E-15  0.4009E-16
     -8.927  0.1074E+00  0.9259E-02
     -8.841  0.8239E+00  0.8029E-01
     -8.755  0.6440E+00  0.1389E+00
     -8.669  0.1289E+01  0.2500E+00
     -8.582  0.3437E+01  0.5463E+00
     -8.496  0.7517E+01  0.1194E+01
     -8.410  0.6593E+01  0.1874E+01
     -8.324  0.1460E+01  0.2000E+01
     -8.238  0.0000E+00  0.2000E+01
     -8.151  0.0000E+00  0.2000E+01
     -8.065  0.0000E+00  0.2000E+01
     -7.979  0.0000E+00  0.2000E+01
     -7.893  0.0000E+00  0.2000E+01
     -7.807  0.0000E+00  0.2000E+01
     -7.720  0.0000E+00  0.2000E+01
     -7.634  0.0000E+00  0.2000E+01
     -7.548  0.0000E+00  0.2000E+01
     -7.462  0.0000E+00  0.2000E+01
     -7.376  0.0000E+00  0.2000E+01
     -7.289  0.0000E+00  0.2000E+01
     -7.203  0.0000E+00  0.2000E+01
     -7.117  0.0000E+00  0.2000E+01
     -7.031  0.0000E+00  0.2000E+01
     -6.945  0.0000E+00  0.2000E+01
     -6.858  0.0000E+00  0.2000E+01
     -6.772  0.0000E+00  0.2000E+01
     -6.686  0.0000E+00  0.2000E+01
     -6.600  0.0000E+00  0.2000E+01
     -6.514  0.0000E+00  0.2000E+01
     -6.427  0.0000E+00  0.2000E+01
     -6.341  0.0000E+00  0.2000E+01
     -6.255  0.0000E+00  0.2000E+01
     -6.169  0.0000E+00  0.2000E+01
     -6.083  0.0000E+00  0.2000E+01
     -5.996  0.0000E+00  0.2000E+01
     -5.910  0.0000E+00  0.2000E+01
     -5.824  0.3107E+00  0.2027E+01
     -5.738  0.2331E+02  0.4041E+01
     -5.652  0.2286E+02  0.6195E+01
     -5.565  0.1753E+02  0.7733E+01
     -5.479  0.3031E+02  0.1051E+02
     -5.393  0.2264E+00  0.1057E+02
     -5.307  0.9049E-02  0.1060E+02
     -5.221  0.5440E+01  0.1107E+02
     -5.134  0.4692E+01  0.1149E+02
     -5.048  0.4192E+01  0.1189E+02
     -4.962  0.1286E+01  0.1200E+02
     -4.876  0.0000E+00  0.1200E+02
     -4.790  0.0000E+00  0.1200E+02
     -4.703  0.0000E+00  0.1200E+02
     -4.617  0.0000E+00  0.1200E+02
     -4.531  0.0000E+00  0.1200E+02
     -4.445  0.0000E+00  0.1200E+02
     -4.358  0.0000E+00  0.1200E+02
     -4.272  0.0000E+00  0.1200E+02
     -4.186  0.0000E+00  0.1200E+02
     -4.100  0.0000E+00  0.1200E+02
     -4.014  0.0000E+00  0.1200E+02
     -3.927  0.0000E+00  0.1200E+02
     -3.841  0.0000E+00  0.1200E+02
     -3.755  0.0000E+00  0.1200E+02
     -3.669  0.0000E+00  0.1200E+02
     -3.583  0.0000E+00  0.1200E+02
     -3.496  0.0000E+00  0.1200E+02
     -3.410  0.0000E+00  0.1200E+02
     -3.324  0.0000E+00  0.1200E+02
     -3.238  0.0000E+00  0.1200E+02
     -3.152  0.0000E+00  0.1200E+02
     -3.065  0.0000E+00  0.1200E+02
     -2.979  0.0000E+00  0.1200E+02
     -2.893  0.0000E+00  0.1200E+02
     -2.807  0.0000E+00  0.1200E+02
     -2.721  0.0000E+00  0.1200E+02
     -2.634  0.0000E+00  0.1200E+02
     -2.548  0.0000E+00  0.1200E+02
     -2.462  0.0000E+00  0.1200E+02
     -2.376  0.0000E+00  0.1200E+02
     -2.290  0.1826E-10  0.1200E+02
     -2.203  0.4296E+00  0.1204E+02
     -2.117  0.3439E-01  0.1204E+02
     -2.031  0.1022E+01  0.1213E+02
     -1.945  0.4242E+01  0.1267E+02
     -1.859  0.2578E+01  0.1295E+02
     -1.772  0.1355E-01  0.1295E+02
     -1.686  0.2564E+01  0.1318E+02
     -1.600  0.1140E-01  0.1318E+02
     -1.514  0.2566E+01  0.1340E+02
     -1.428  0.6154E-10  0.1340E+02
     -1.341  0.8593E+00  0.1347E+02
     -1.255  0.5917E+00  0.1352E+02
     -1.169  0.0000E+00  0.1353E+02
     -1.083  0.0000E+00  0.1353E+02
     -0.997  0.0000E+00  0.1353E+02
     -0.910  0.2171E+01  0.1371E+02
     -0.824  0.0000E+00  0.1375E+02
     -0.738  0.0000E+00  0.1375E+02
     -0.652  0.0000E+00  0.1375E+02
     -0.566  0.7155E-16  0.1375E+02
     -0.479  0.1289E+01  0.1386E+02
     -0.393  0.1287E+01  0.1397E+02
     -0.307  0.0000E+00  0.1397E+02
     -0.221  0.1413E-06  0.1397E+02
     -0.134  0.2578E+01  0.1419E+02
     -0.048  0.4300E-10  0.1419E+02
      0.038  0.1392E+01  0.1431E+02
      0.124  0.3867E+01  0.1465E+02
      0.210  0.2474E+01  0.1486E+02
      0.297  0.4651E-15  0.1486E+02
      0.383  0.6445E+00  0.1492E+02
      0.469  0.2845E+01  0.1516E+02
      0.555  0.8401E+00  0.1528E+02
      0.641  0.7629E+01  0.1593E+02
      0.728  0.6978E+00  0.1600E+02
      0.814  0.0000E+00  0.1605E+02
      0.900  0.4523E+00  0.1609E+02
      0.986  0.4660E+01  0.1649E+02
      1.072  0.1194E-04  0.1649E+02
      1.159  0.5151E+01  0.1693E+02
      1.245  0.2577E+01  0.1716E+02
      1.331  0.0000E+00  0.1716E+02
      1.417  0.4419E-03  0.1716E+02
      1.503  0.3437E+01  0.1745E+02
      1.590  0.4359E-10  0.1745E+02
      1.676  0.3008E+01  0.1771E+02
      1.762  0.0000E+00  0.1771E+02
      1.848  0.4794E-14  0.1771E+02
      1.934  0.1289E+01  0.1782E+02
      2.021  0.3618E+00  0.1786E+02
      2.107  0.0000E+00  0.1797E+02
      2.193  0.0000E+00  0.1797E+02
      2.279  0.3208E+00  0.1800E+02
      2.365  0.0000E+00  0.1800E+02
      2.452  0.0000E+00  0.1800E+02
      2.538  0.0000E+00  0.1800E+02
      2.624  0.0000E+00  0.1800E+02
      2.710  0.0000E+00  0.1800E+02
      2.796  0.0000E+00  0.1800E+02
      2.883  0.5440E-02  0.1800E+02
      2.969  0.1020E+00  0.1801E+02
      3.055  0.0000E+00  0.1801E+02
      3.141  0.0000E+00  0.1801E+02
      3.227  0.0000E+00  0.1801E+02
      3.314  0.0000E+00  0.1801E+02
      3.400  0.0000E+00  0.1801E+02
      3.486  0.0000E+00  0.1801E+02
      3.572  0.0000E+00  0.1801E+02
      3.658  0.0000E+00  0.1801E+02
      3.745  0.0000E+00  0.1801E+02
      3.831  0.0000E+00  0.1801E+02
      3.917  0.1421E-09  0.1801E+02
      4.003  0.4773E+00  0.1805E+02
      4.090  0.1664E+01  0.1819E+02
      4.176  0.0000E+00  0.1819E+02
      4.262  0.0000E+00  0.1819E+02
      4.348  0.0000E+00  0.1819E+02
      4.434  0.0000E+00  0.1819E+02
      4.521  0.0000E+00  0.1819E+02
      4.607  0.0000E+00  0.1819E+02
      4.693  0.6433E+00  0.1825E+02
      4.779  0.3172E+00  0.1828E+02
      4.865  0.1784E+01  0.1843E+02
      4.952  0.2582E+01  0.1869E+02
      5.038  0.6244E+01  0.1925E+02
      5.124  0.0000E+00  0.1936E+02
      5.210  0.1271E+01  0.1947E+02
      5.296  0.4004E+00  0.1951E+02
      5.383  0.0000E+00  0.1953E+02
      5.469  0.0000E+00  0.1953E+02
      5.555  0.0000E+00  0.1953E+02
      5.641  0.0000E+00  0.1953E+02
      5.727  0.5285E-04  0.1953E+02
      5.814  0.2578E+01  0.1975E+02
      5.900  0.6846E+01  0.2034E+02
      5.986  0.1212E+01  0.2047E+02
      6.072  0.0000E+00  0.2047E+02
      6.158  0.1482E-04  0.2047E+02
      6.245  0.2578E+01  0.2069E+02
      6.331  0.2578E+01  0.2092E+02
      6.417  0.0000E+00  0.2092E+02
      6.503  0.0000E+00  0.2092E+02
      6.589  0.0000E+00  0.2092E+02
      6.676  0.0000E+00  0.2092E+02
      6.762  0.1840E+01  0.2108E+02
      6.848  0.2826E+01  0.2141E+02
      6.934  0.8575E+00  0.2157E+02
      7.020  0.0000E+00  0.2157E+02
      7.107  0.3243E+01  0.2185E+02
      7.193  0.0000E+00  0.2194E+02
      7.279  0.2933E+00  0.2197E+02
      7.365  0.2115E+01  0.2224E+02
      7.451  0.4250E+01  0.2261E+02
      7.538  0.0000E+00  0.2261E+02
      7.624  0.9654E-03  0.2261E+02
      7.710  0.1302E+01  0.2272E+02
      7.796  0.1637E+01  0.2286E+02
      7.882  0.4794E+01  0.2328E+02
      7.969  0.2578E+01  0.2350E+02
      8.055  0.3578E-13  0.2350E+02
      8.141  0.2578E+01  0.2372E+02
      8.227  0.0000E+00  0.2372E+02
      8.314  0.2571E+01  0.2394E+02
      8.400  0.8317E+00  0.2402E+02
      8.486  0.3174E+00  0.2405E+02
      8.572  0.2260E+01  0.2424E+02
      8.658  0.0000E+00  0.2424E+02
      8.745  0.2575E+01  0.2446E+02
      8.831  0.4016E+00  0.2450E+02
      8.917  0.0000E+00  0.2457E+02
      9.003  0.1587E-01  0.2458E+02
      9.089  0.1275E+01  0.2469E+02
      9.176  0.5583E+01  0.2517E+02
      9.262  0.1466E-10  0.2517E+02
      9.348  0.6445E+00  0.2522E+02
      9.434  0.2497E+01  0.2544E+02
      9.520  0.7467E+00  0.2551E+02
      9.607  0.2614E+01  0.2573E+02
      9.693  0.2427E+01  0.2594E+02
      9.779  0.0000E+00  0.2595E+02
      9.865  0.3344E+00  0.2598E+02
      9.951  0.3532E+01  0.2629E+02
     10.038  0.9504E+00  0.2637E+02
     10.124  0.1470E+01  0.2664E+02
     10.210  0.7292E+00  0.2681E+02
     10.296  0.1241E-11  0.2681E+02
     10.382  0.2578E+01  0.2703E+02
     10.469  0.3088E-08  0.2703E+02
     10.555  0.8593E+00  0.2710E+02
     10.641  0.1613E+01  0.2724E+02
     10.727  0.1671E-01  0.2747E+02
     10.813  0.4129E+00  0.2751E+02
     10.900  0.7058E-05  0.2751E+02
     10.986  0.2900E+01  0.2776E+02
     11.072  0.1715E+01  0.2791E+02
     11.158  0.1296E+01  0.2802E+02
     11.244  0.3688E+01  0.2834E+02
     11.331  0.3867E+01  0.2869E+02
     11.417  0.0000E+00  0.2869E+02
     11.503  0.0000E+00  0.2869E+02
     11.589  0.2092E+00  0.2870E+02
     11.675  0.0000E+00  0.2870E+02
     11.762  0.1264E+01  0.2881E+02
     11.848  0.6451E+00  0.2887E+02
     11.934  0.3983E+01  0.2921E+02
     12.020  0.2461E+01  0.2943E+02
     12.106  0.7075E-02  0.2943E+02
     12.193  0.2571E+01  0.2965E+02
     12.279  0.0000E+00  0.2965E+02
     12.365  0.0000E+00  0.2965E+02
     12.451  0.2568E+01  0.2987E+02
     12.538  0.4081E+01  0.3022E+02
     12.624  0.3956E+01  0.3056E+02
     12.710  0.0000E+00  0.3067E+02
     12.796  0.0000E+00  0.3067E+02
     12.882  0.1148E+01  0.3077E+02
     12.969  0.0000E+00  0.3089E+02
     13.055  0.3208E+00  0.3092E+02
     13.141  0.0000E+00  0.3092E+02
     13.227  0.3235E-12  0.3092E+02
     13.313  0.1289E+01  0.3103E+02
     13.400  0.6409E+00  0.3108E+02
     13.486  0.3597E-01  0.3125E+02
     13.572  0.1253E+01  0.3136E+02
     13.658  0.4425E+01  0.3174E+02
     13.744  0.1279E+00  0.3182E+02
     13.831  0.0000E+00  0.3183E+02
     13.917  0.0000E+00  0.3183E+02
     14.003  0.0000E+00  0.3183E+02
     14.089  0.4791E+00  0.3187E+02
     14.175  0.0000E+00  0.3189E+02
     14.262  0.7537E-12  0.3189E+02
     14.348  0.1289E+01  0.3200E+02
     14.434  0.0000E+00  0.3200E+02
     14.520  0.0000E+00  0.3200E+02
     14.606  0.0000E+00  0.3200E+02
     14.693  0.0000E+00  0.3200E+02
     14.779  0.0000E+00  0.3200E+02
     14.865  0.0000E+00  0.3200E+02
     14.951  0.0000E+00  0.3200E+02
     15.037  0.0000E+00  0.3200E+02
     15.124  0.0000E+00  0.3200E+02
     15.210  0.0000E+00  0.3200E+02
     15.296  0.0000E+00  0.3200E+02
     15.382  0.0000E+00  0.3200E+02
     15.468  0.0000E+00  0.3200E+02
     15.555  0.0000E+00  0.3200E+02
     15.641  0.0000E+00  0.3200E+02
     15.727  0.0000E+00  0.3200E+02
     15.72706163    -10.13415248  301      2.37620985      1.00000000
    -10.134  0.0000E+00  0.0000E+00  0.0000E+00
    -10.048  0.0000E+00  0.0000E+00  0.0000E+00
     -9.962  0.0000E+00  0.0000E+00  0.0000E+00
     -9.876  0.0000E+00  0.0000E+00  0.0000E+00
     -9.789  0.0000E+00  0.0000E+00  0.0000E+00
     -9.703  0.0000E+00  0.0000E+00  0.0000E+00
     -9.617  0.0000E+00  0.0000E+00  0.0000E+00
     -9.531  0.0000E+00  0.0000E+00  0.0000E+00
     -9.445  0.0000E+00  0.0000E+00  0.0000E+00
     -9.358  0.0000E+00  0.0000E+00  0.0000E+00
     -9.272  0.0000E+00  0.0000E+00  0.0000E+00
     -9.186  0.0000E+00  0.0000E+00  0.0000E+00
     -9.100  0.0000E+00  0.0000E+00  0.0000E+00
     -9.013  0.2938E-16  0.2593E-27  0.1219E-26
     -8.927  0.6785E-02  0.5988E-13  0.2816E-12
     -8.841  0.4394E-01  0.2073E-02  0.1278E-01
     -8.755  0.3214E-01  0.2183E-02  0.1357E-01
     -8.669  0.4979E-01  0.7712E-02  0.5438E-01
     -8.582  0.1051E+00  0.2661E-01  0.2011E+00
     -8.496  0.1163E+00  0.8132E-01  0.6972E+00
     -8.410  0.2900E-01  0.8618E-01  0.7849E+00
     -8.324  0.1909E-12  0.2038E-01  0.1897E+00
     -8.238  0.0000E+00  0.0000E+00  0.0000E+00
     -8.151  0.0000E+00  0.0000E+00  0.0000E+00
     -8.065  0.0000E+00  0.0000E+00  0.0000E+00
     -7.979  0.0000E+00  0.0000E+00  0.0000E+00
     -7.893  0.0000E+00  0.0000E+00  0.0000E+00
     -7.807  0.0000E+00  0.0000E+00  0.0000E+00
     -7.720  0.0000E+00  0.0000E+00  0.0000E+00
     -7.634  0.0000E+00  0.0000E+00  0.0000E+00
     -7.548  0.0000E+00  0.0000E+00  0.0000E+00
     -7.462  0.0000E+00  0.0000E+00  0.0000E+00
     -7.376  0.0000E+00  0.0000E+00  0.0000E+00
     -7.289  0.0000E+00  0.0000E+00  0.0000E+00
     -7.203  0.0000E+00  0.0000E+00  0.0000E+00
     -7.117  0.0000E+00  0.0000E+00  0.0000E+00
     -7.031  0.0000E+00  0.0000E+00  0.0000E+00
     -6.945  0.0000E+00  0.0000E+00  0.0000E+00
     -6.858  0.0000E+00  0.0000E+00  0.0000E+00
     -6.772  0.0000E+00  0.0000E+00  0.0000E+00
     -6.686  0.0000E+00  0.0000E+00  0.0000E+00
     -6.600  0.0000E+00  0.0000E+00  0.0000E+00
     -6.514  0.0000E+00  0.0000E+00  0.0000E+00
     -6.427  0.0000E+00  0.0000E+00  0.0000E+00
     -6.341  0.0000E+00  0.0000E+00  0.0000E+00
     -6.255  0.0000E+00  0.0000E+00  0.0000E+00
     -6.169  0.0000E+00  0.0000E+00  0.0000E+00
     -6.083  0.0000E+00  0.0000E+00  0.0000E+00
     -5.996  0.0000E+00  0.0000E+00  0.0000E+00
     -5.910  0.0000E+00  0.0000E+00  0.0000E+00
     -5.824  0.5709E-15  0.1318E-03  0.2798E+00
     -5.738  0.1061E-01  0.1143E-01  0.2118E+02
     -5.652  0.5513E-02  0.1271E-01  0.2102E+02
     -5.565  0.2744E-01  0.8467E-03  0.1623E+02
     -5.479  0.2885E-01  0.1710E-02  0.2846E+02
     -5.393  0.2388E-02  0.2867E-03  0.1913E+00
     -5.307  0.9463E-04  0.1274E-04  0.7636E-02
     -5.221  0.5562E-01  0.8685E-02  0.4573E+01
     -5.134  0.3006E-01  0.1231E-01  0.3922E+01
     -5.048  0.1528E-01  0.1358E-01  0.3490E+01
     -4.962  0.5562E-15  0.5591E-02  0.1061E+01
     -4.876  0.0000E+00  0.0000E+00  0.0000E+00
     -4.790  0.0000E+00  0.0000E+00  0.0000E+00
     -4.703  0.0000E+00  0.0000E+00  0.0000E+00
     -4.617  0.0000E+00  0.0000E+00  0.0000E+00
     -4.531  0.0000E+00  0.0000E+00  0.0000E+00
     -4.445  0.0000E+00  0.0000E+00  0.0000E+00
     -4.358  0.0000E+00  0.0000E+00  0.0000E+00
     -4.272  0.0000E+00  0.0000E+00  0.0000E+00
     -4.186  0.0000E+00  0.0000E+00  0.0000E+00
     -4.100  0.0000E+00  0.0000E+00  0.0000E+00
     -4.014  0.0000E+00  0.0000E+00  0.0000E+00
     -3.927  0.0000E+00  0.0000E+00  0.0000E+00
     -3.841  0.0000E+00  0.0000E+00  0.0000E+00
     -3.755  0.0000E+00  0.0000E+00  0.0000E+00
     -3.669  0.0000E+00  0.0000E+00  0.0000E+00
     -3.583  0.0000E+00  0.0000E+00  0.0000E+00
     -3.496  0.0000E+00  0.0000E+00  0.0000E+00
     -3.410  0.0000E+00  0.0000E+00  0.0000E+00
     -3.324  0.0000E+00  0.0000E+00  0.0000E+00
     -3.238  0.0000E+00  0.0000E+00  0.0000E+00
     -3.152  0.0000E+00  0.0000E+00  0.0000E+00
     -3.065  0.0000E+00  0.0000E+00  0.0000E+00
     -2.979  0.0000E+00  0.0000E+00  0.0000E+00
     -2.893  0.0000E+00  0.0000E+00  0.0000E+00
     -2.807  0.0000E+00  0.0000E+00  0.0000E+00
     -2.721  0.0000E+00  0.0000E+00  0.0000E+00
     -2.634  0.0000E+00  0.0000E+00  0.0000E+00
     -2.548  0.0000E+00  0.0000E+00  0.0000E+00
     -2.462  0.0000E+00  0.0000E+00  0.0000E+00
     -2.376  0.0000E+00  0.0000E+00  0.0000E+00
     -2.290  0.3031E-11  0.4798E-12  0.1711E-14
     -2.203  0.7130E-01  0.1129E-01  0.4024E-04
     -2.117  0.8443E-02  0.3552E-14  0.1181E-02
     -2.031  0.2187E+00  0.1188E-01  0.1890E-01
     -1.945  0.1023E+01  0.2718E-01  0.4210E-01
     -1.859  0.6066E+00  0.1042E-01  0.8435E-01
     -1.772  0.2379E-02  0.2991E-03  0.3576E-03
     -1.686  0.4501E+00  0.5658E-01  0.6765E-01
     -1.600  0.2364E-02  0.1310E-03  0.4503E-03
     -1.514  0.5324E+00  0.2950E-01  0.1014E+00
     -1.428  0.8910E-11  0.1727E-11  0.2592E-11
     -1.341  0.1244E+00  0.2412E-01  0.3620E-01
     -1.255  0.1215E+00  0.3775E-02  0.3852E-01
     -1.169  0.0000E+00  0.0000E+00  0.0000E+00
     -1.083  0.0000E+00  0.0000E+00  0.0000E+00
     -0.997  0.0000E+00  0.0000E+00  0.0000E+00
     -0.910  0.3536E+00  0.4310E-01  0.1243E+00
     -0.824  0.0000E+00  0.0000E+00  0.0000E+00
     -0.738  0.0000E+00  0.0000E+00  0.0000E+00
     -0.652  0.0000E+00  0.0000E+00  0.0000E+00
     -0.566  0.1079E-16  0.1555E-17  0.4306E-17
     -0.479  0.1944E+00  0.2802E-01  0.7757E-01
     -0.393  0.6238E-02  0.9251E-01  0.3847E-01
     -0.307  0.0000E+00  0.0000E+00  0.0000E+00
     -0.221  0.2384E-08  0.9609E-08  0.4724E-08
     -0.134  0.4349E-01  0.1752E+00  0.8616E-01
     -0.048  0.1001E-12  0.2949E-11  0.1723E-11
      0.038  0.3653E-02  0.9614E-01  0.5439E-01
      0.124  0.1701E-01  0.3015E+00  0.8192E-01
      0.210  0.3406E-01  0.1737E+00  0.7982E-01
      0.297  0.6036E-31  0.3749E-16  0.8674E-17
      0.383  0.1270E-11  0.5195E-01  0.1202E-01
      0.469  0.1136E+00  0.1659E+00  0.1217E+00
      0.555  0.9173E-01  0.2506E-01  0.5011E-01
      0.641  0.9101E-01  0.5393E+00  0.2624E+00
      0.728  0.3493E-16  0.5233E-01  0.2283E-01
      0.814  0.0000E+00  0.0000E+00  0.0000E+00
      0.900  0.9744E-03  0.3230E-01  0.1742E-01
      0.986  0.2645E-01  0.3203E+00  0.1937E+00
      1.072  0.2708E-06  0.6952E-06  0.5981E-06
      1.159  0.5845E-01  0.3276E+00  0.2383E+00
      1.245  0.1135E-13  0.1697E+00  0.1226E+00
      1.331  0.0000E+00  0.0000E+00  0.0000E+00
      1.417  0.1002E-18  0.2752E-04  0.2251E-04
      1.503  0.1130E-14  0.2138E+00  0.1747E+00
      1.590  0.1820E-25  0.2441E-11  0.2514E-11
      1.676  0.9035E-15  0.1658E+00  0.1781E+00
      1.762  0.0000E+00  0.0000E+00  0.0000E+00
      1.848  0.6140E-30  0.2233E-15  0.3176E-15
      1.934  0.1651E-15  0.6005E-01  0.8539E-01
      2.021  0.9358E-16  0.1442E-01  0.2627E-01
      2.107  0.0000E+00  0.0000E+00  0.0000E+00
      2.193  0.0000E+00  0.0000E+00  0.0000E+00
      2.279  0.4195E-14  0.8750E-02  0.2630E-01
      2.365  0.0000E+00  0.0000E+00  0.0000E+00
      2.452  0.0000E+00  0.0000E+00  0.0000E+00
      2.538  0.0000E+00  0.0000E+00  0.0000E+00
      2.624  0.0000E+00  0.0000E+00  0.0000E+00
      2.710  0.0000E+00  0.0000E+00  0.0000E+00
      2.796  0.0000E+00  0.0000E+00  0.0000E+00
      2.883  0.1663E-02  0.3015E-16  0.4582E-16
      2.969  0.3117E-01  0.5650E-15  0.8588E-15
      3.055  0.0000E+00  0.0000E+00  0.0000E+00
      3.141  0.0000E+00  0.0000E+00  0.0000E+00
      3.227  0.0000E+00  0.0000E+00  0.0000E+00
      3.314  0.0000E+00  0.0000E+00  0.0000E+00
      3.400  0.0000E+00  0.0000E+00  0.0000E+00
      3.486  0.0000E+00  0.0000E+00  0.0000E+00
      3.572  0.0000E+00  0.0000E+00  0.0000E+00
      3.658  0.0000E+00  0.0000E+00  0.0000E+00
      3.745  0.0000E+00  0.0000E+00  0.0000E+00
      3.831  0.0000E+00  0.0000E+00  0.0000E+00
      3.917  0.3472E-10  0.4384E-11  0.1411E-11
      4.003  0.1152E+00  0.1479E-01  0.4525E-02
      4.090  0.3742E+00  0.5926E-01  0.9174E-02
      4.176  0.0000E+00  0.0000E+00  0.0000E+00
      4.262  0.0000E+00  0.0000E+00  0.0000E+00
      4.348  0.0000E+00  0.0000E+00  0.0000E+00
      4.434  0.0000E+00  0.0000E+00  0.0000E+00
      4.521  0.0000E+00  0.0000E+00  0.0000E+00
      4.607  0.0000E+00  0.0000E+00  0.0000E+00
      4.693  0.1283E+00  0.5923E-02  0.1046E-01
      4.779  0.1374E-12  0.3026E-01  0.1170E-01
      4.865  0.3656E+00  0.6462E-01  0.2260E-01
      4.952  0.4833E+00  0.1047E+00  0.4482E-01
      5.038  0.1044E+01  0.2841E+00  0.1273E+00
      5.124  0.0000E+00  0.0000E+00  0.0000E+00
      5.210  0.1728E+00  0.7040E-01  0.3461E-01
      5.296  0.3587E-01  0.2106E-01  0.1133E-01
      5.383  0.0000E+00  0.0000E+00  0.0000E+00
      5.469  0.0000E+00  0.0000E+00  0.0000E+00
      5.555  0.0000E+00  0.0000E+00  0.0000E+00
      5.641  0.0000E+00  0.0000E+00  0.0000E+00
      5.727  0.1256E-04  0.5642E-06  0.8870E-06
      5.814  0.6124E+00  0.2753E-01  0.4326E-01
      5.900  0.1019E+01  0.3108E+00  0.1559E+00
      5.986  0.5350E-11  0.9679E-01  0.4922E-01
      6.072  0.0000E+00  0.0000E+00  0.0000E+00
      6.158  0.6722E-06  0.1883E-05  0.1861E-06
      6.245  0.1170E+00  0.3277E+00  0.3237E-01
      6.331  0.8895E-03  0.2910E+00  0.7137E-01
      6.417  0.0000E+00  0.0000E+00  0.0000E+00
      6.503  0.0000E+00  0.0000E+00  0.0000E+00
      6.589  0.0000E+00  0.0000E+00  0.0000E+00
      6.676  0.0000E+00  0.0000E+00  0.0000E+00
      6.762  0.1264E-02  0.1431E+00  0.6381E-01
      6.848  0.9738E-01  0.2744E+00  0.7249E-01
      6.934  0.4206E-01  0.1042E+00  0.1131E-01
      7.020  0.0000E+00  0.0000E+00  0.0000E+00
      7.107  0.3763E-01  0.3797E+00  0.8258E-01
      7.193  0.0000E+00  0.0000E+00  0.0000E+00
      7.279  0.3193E-01  0.5840E-02  0.4168E-02
      7.365  0.2029E-14  0.4185E+00  0.3735E-01
      7.451  0.2322E-03  0.5440E+00  0.1158E+00
      7.538  0.0000E+00  0.0000E+00  0.0000E+00
      7.624  0.3191E-05  0.1101E-03  0.1959E-04
      7.710  0.4257E-02  0.1497E+00  0.2630E-01
      7.796  0.3097E-14  0.3303E+00  0.2348E-01
      7.882  0.1131E-02  0.6227E+00  0.1399E+00
      7.969  0.1227E+00  0.2590E+00  0.4252E-01
      8.055  0.1227E-27  0.5230E-14  0.1141E-14
      8.141  0.8840E-14  0.3769E+00  0.8220E-01
      8.227  0.0000E+00  0.0000E+00  0.0000E+00
      8.314  0.3768E-14  0.4545E+00  0.5711E-01
      8.400  0.2836E-01  0.4612E-01  0.1299E-01
      8.486  0.1102E-01  0.2022E-01  0.7596E-02
      8.572  0.7845E-01  0.1440E+00  0.5409E-01
      8.658  0.0000E+00  0.0000E+00  0.0000E+00
      8.745  0.5421E-01  0.2070E+00  0.7797E-01
      8.831  0.1101E-14  0.5461E-01  0.1001E-01
      8.917  0.0000E+00  0.0000E+00  0.0000E+00
      9.003  0.9683E-15  0.2475E-02  0.3248E-03
      9.089  0.8507E-04  0.1986E+00  0.2610E-01
      9.176  0.1538E+00  0.4247E+00  0.1610E+00
      9.262  0.7179E-14  0.1025E-12  0.9443E-12
      9.348  0.3155E-03  0.4503E-02  0.4151E-01
      9.434  0.6400E-03  0.2578E+00  0.9553E-01
      9.520  0.5328E-01  0.2870E-02  0.2218E-01
      9.607  0.4104E-02  0.4587E+00  0.6905E-01
      9.693  0.6592E-03  0.4295E+00  0.5494E-01
      9.779  0.0000E+00  0.0000E+00  0.0000E+00
      9.865  0.4935E-15  0.4992E-01  0.8316E-02
      9.951  0.5544E-14  0.3395E+00  0.1563E+00
     10.038  0.1122E-01  0.6779E-01  0.4011E-01
     10.124  0.1126E-01  0.1916E+00  0.5622E-01
     10.210  0.6229E-01  0.1129E-01  0.9821E-02
     10.296  0.1559E-13  0.4292E-13  0.5148E-13
     10.382  0.3239E-01  0.8917E-01  0.1070E+00
     10.469  0.3686E-09  0.1866E-09  0.1204E-10
     10.555  0.1026E+00  0.5194E-01  0.3351E-02
     10.641  0.3402E-09  0.4075E-01  0.1157E+00
     10.727  0.1935E-02  0.1490E-04  0.3344E-05
     10.813  0.4783E-01  0.3684E-03  0.8267E-04
     10.900  0.6548E-07  0.5306E-06  0.2006E-06
     10.986  0.4900E-01  0.1938E+00  0.7507E-01
     11.072  0.1187E-11  0.6990E-01  0.1079E+00
     11.158  0.8780E-03  0.1221E+00  0.5883E-01
     11.244  0.4973E-01  0.2918E+00  0.1500E+00
     11.331  0.1692E+00  0.5017E+00  0.5558E-01
     11.417  0.0000E+00  0.0000E+00  0.0000E+00
     11.503  0.0000E+00  0.0000E+00  0.0000E+00
     11.589  0.1521E-09  0.7469E-09  0.2097E-01
     11.675  0.0000E+00  0.0000E+00  0.0000E+00
     11.762  0.2689E-02  0.1820E+00  0.4341E-01
     11.848  0.3945E-04  0.3332E-04  0.5721E-01
     11.934  0.2827E+00  0.2394E+00  0.7540E-01
     12.020  0.2093E-09  0.7076E-01  0.1562E+00
     12.106  0.4044E-03  0.2301E-03  0.1818E-03
     12.193  0.1470E+00  0.8362E-01  0.6605E-01
     12.279  0.0000E+00  0.0000E+00  0.0000E+00
     12.365  0.0000E+00  0.0000E+00  0.0000E+00
     12.451  0.4006E-04  0.3411E+00  0.1328E+00
     12.538  0.8051E-01  0.2073E+00  0.1471E+00
     12.624  0.2998E-03  0.2817E+00  0.1458E+00
     12.710  0.0000E+00  0.0000E+00  0.0000E+00
     12.796  0.0000E+00  0.0000E+00  0.0000E+00
     12.882  0.1683E-09  0.8916E-01  0.3600E-01
     12.969  0.0000E+00  0.0000E+00  0.0000E+00
     13.055  0.3405E-10  0.3406E-07  0.1787E-07
     13.141  0.0000E+00  0.0000E+00  0.0000E+00
     13.227  0.4532E-20  0.4841E-13  0.1230E-13
     13.313  0.1806E-07  0.1929E+00  0.4902E-01
     13.400  0.1138E-03  0.7042E-01  0.2273E-01
     13.486  0.1975E-03  0.2604E-03  0.2239E-02
     13.572  0.6880E-02  0.9070E-02  0.7802E-01
     13.658  0.4286E-01  0.5752E+00  0.1432E+00
     13.744  0.9648E-09  0.3722E-02  0.7749E-02
     13.831  0.0000E+00  0.0000E+00  0.0000E+00
     13.917  0.0000E+00  0.0000E+00  0.0000E+00
     14.003  0.0000E+00  0.0000E+00  0.0000E+00
     14.089  0.2844E-01  0.9333E-01  0.3069E-02
     14.175  0.0000E+00  0.0000E+00  0.0000E+00
     14.262  0.1909E-13  0.5720E-13  0.1924E-14
     14.348  0.3264E-01  0.9783E-01  0.3290E-02
     14.434  0.0000E+00  0.0000E+00  0.0000E+00
     14.520  0.0000E+00  0.0000E+00  0.0000E+00
     14.606  0.0000E+00  0.0000E+00  0.0000E+00
     14.693  0.0000E+00  0.0000E+00  0.0000E+00
     14.779  0.0000E+00  0.0000E+00  0.0000E+00
     14.865  0.0000E+00  0.0000E+00  0.0000E+00
     14.951  0.0000E+00  0.0000E+00  0.0000E+00
     15.037  0.0000E+00  0.0000E+00  0.0000E+00
     15.124  0.0000E+00  0.0000E+00  0.0000E+00
     15.210  0.0000E+00  0.0000E+00  0.0000E+00
     15.296  0.0000E+00  0.0000E+00  0.0000E+00
     15.382  0.0000E+00  0.0000E+00  0.0000E+00
     15.468  0.0000E+00  0.0000E+00  0.0000E+00
     15.555  0.0000E+00  0.0000E+00  0.0000E+00
     15.641  0.0000E+00  0.0000E+00  0.0000E+00
     15.727  0.0000E+00  0.0000E+00  0.0000E+00
     15.72706163    -10.13415248  301      2.37620985      1.00000000
    -10.134  0.0000E+00  0.0000E+00  0.0000E+00
    -10.048  0.0000E+00  0.0000E+00  0.0000E+00
     -9.962  0.0000E+00  0.0000E+00  0.0000E+00
     -9.876  0.0000E+00  0.0000E+00  0.0000E+00
     -9.789  0.0000E+00  0.0000E+00  0.0000E+00
     -9.703  0.0000E+00  0.0000E+00  0.0000E+00
     -9.617  0.0000E+00  0.0000E+00  0.0000E+00
     -9.531  0.0000E+00  0.0000E+00  0.0000E+00
     -9.445  0.0000E+00  0.0000E+00  0.0000E+00
     -9.358  0.0000E+00  0.0000E+00  0.0000E+00
     -9.272  0.0000E+00  0.0000E+00  0.0000E+00
     -9.186  0.0000E+00  0.0000E+00  0.0000E+00
     -9.100  0.0000E+00  0.0000E+00  0.0000E+00
     -9.013  0.2643E-15  0.3713E-27  0.3824E-27
     -8.927  0.6104E-01  0.8576E-13  0.8832E-13
     -8.841  0.4732E+00  0.1584E-03  0.1134E-05
     -8.755  0.3711E+00  0.1628E-03  0.2123E-06
     -8.669  0.7487E+00  0.3768E-03  0.4703E-05
     -8.582  0.2004E+01  0.9428E-03  0.1610E-04
     -8.496  0.4395E+01  0.1032E-02  0.4609E-04
     -8.410  0.3851E+01  0.2980E-03  0.1418E-04
     -8.324  0.8522E+00  0.2276E-08  0.8519E-06
     -8.238  0.0000E+00  0.0000E+00  0.0000E+00
     -8.151  0.0000E+00  0.0000E+00  0.0000E+00
     -8.065  0.0000E+00  0.0000E+00  0.0000E+00
     -7.979  0.0000E+00  0.0000E+00  0.0000E+00
     -7.893  0.0000E+00  0.0000E+00  0.0000E+00
     -7.807  0.0000E+00  0.0000E+00  0.0000E+00
     -7.720  0.0000E+00  0.0000E+00  0.0000E+00
     -7.634  0.0000E+00  0.0000E+00  0.0000E+00
     -7.548  0.0000E+00  0.0000E+00  0.0000E+00
     -7.462  0.0000E+00  0.0000E+00  0.0000E+00
     -7.376  0.0000E+00  0.0000E+00  0.0000E+00
     -7.289  0.0000E+00  0.0000E+00  0.0000E+00
     -7.203  0.0000E+00  0.0000E+00  0.0000E+00
     -7.117  0.0000E+00  0.0000E+00  0.0000E+00
     -7.031  0.0000E+00  0.0000E+00  0.0000E+00
     -6.945  0.0000E+00  0.0000E+00  0.0000E+00
     -6.858  0.0000E+00  0.0000E+00  0.0000E+00
     -6.772  0.0000E+00  0.0000E+00  0.0000E+00
     -6.686  0.0000E+00  0.0000E+00  0.0000E+00
     -6.600  0.0000E+00  0.0000E+00  0.0000E+00
     -6.514  0.0000E+00  0.0000E+00  0.0000E+00
     -6.427  0.0000E+00  0.0000E+00  0.0000E+00
     -6.341  0.0000E+00  0.0000E+00  0.0000E+00
     -6.255  0.0000E+00  0.0000E+00  0.0000E+00
     -6.169  0.0000E+00  0.0000E+00  0.0000E+00
     -6.083  0.0000E+00  0.0000E+00  0.0000E+00
     -5.996  0.0000E+00  0.0000E+00  0.0000E+00
     -5.910  0.0000E+00  0.0000E+00  0.0000E+00
     -5.824  0.2287E-13  0.6855E-02  0.2270E-03
     -5.738  0.9297E-02  0.4142E+00  0.2164E-01
     -5.652  0.3163E-02  0.3012E+00  0.2402E-01
     -5.565  0.3226E-01  0.7578E-01  0.1695E-01
     -5.479  0.7403E-01  0.3567E-01  0.1874E-01
     -5.393  0.9731E-02  0.1827E-02  0.2915E-03
     -5.307  0.4789E-03  0.7695E-04  0.6188E-05
     -5.221  0.3035E+00  0.4446E-01  0.3818E-02
     -5.134  0.3430E+00  0.1686E-01  0.3397E-02
     -5.048  0.3696E+00  0.7484E-02  0.1647E-02
     -4.962  0.1284E+00  0.7851E-04  0.4222E-03
     -4.876  0.0000E+00  0.0000E+00  0.0000E+00
     -4.790  0.0000E+00  0.0000E+00  0.0000E+00
     -4.703  0.0000E+00  0.0000E+00  0.0000E+00
     -4.617  0.0000E+00  0.0000E+00  0.0000E+00
     -4.531  0.0000E+00  0.0000E+00  0.0000E+00
     -4.445  0.0000E+00  0.0000E+00  0.0000E+00
     -4.358  0.0000E+00  0.0000E+00  0.0000E+00
     -4.272  0.0000E+00  0.0000E+00  0.0000E+00
     -4.186  0.0000E+00  0.0000E+00  0.0000E+00
     -4.100  0.0000E+00  0.0000E+00  0.0000E+00
     -4.014  0.0000E+00  0.0000E+00  0.0000E+00
     -3.927  0.0000E+00  0.0000E+00  0.0000E+00
     -3.841  0.0000E+00  0.0000E+00  0.0000E+00
     -3.755  0.0000E+00  0.0000E+00  0.0000E+00
     -3.669  0.0000E+00  0.0000E+00  0.0000E+00
     -3.583  0.0000E+00  0.0000E+00  0.0000E+00
     -3.496  0.0000E+00  0.0000E+00  0.0000E+00
     -3.410  0.0000E+00  0.0000E+00  0.0000E+00
     -3.324  0.0000E+00  0.0000E+00  0.0000E+00
     -3.238  0.0000E+00  0.0000E+00  0.0000E+00
     -3.152  0.0000E+00  0.0000E+00  0.0000E+00
     -3.065  0.0000E+00  0.0000E+00  0.0000E+00
     -2.979  0.0000E+00  0.0000E+00  0.0000E+00
     -2.893  0.0000E+00  0.0000E+00  0.0000E+00
     -2.807  0.0000E+00  0.0000E+00  0.0000E+00
     -2.721  0.0000E+00  0.0000E+00  0.0000E+00
     -2.634  0.0000E+00  0.0000E+00  0.0000E+00
     -2.548  0.0000E+00  0.0000E+00  0.0000E+00
     -2.462  0.0000E+00  0.0000E+00  0.0000E+00