    2    2    1    1
  0.3405476E+02  0.4583961E-09  0.4583961E-09  0.4583961E-09  0.5000000E-15
  1.000000000000000E-004
  CAR 
 Name                                    
     18    176     16
 
  0.0000000E+00  0.0000000E+00  0.0000000E+00  0.4629630E-02
    1       -8.958643   1.000000
    2       -5.830269   1.000000
    3       -5.830269   1.000000
    4       -5.830269   1.000000
    5       -5.552486   1.000000
    6       -5.552486   1.000000
    7        2.260703   1.000000
    8        2.260703   1.000000
    9        2.260703   1.000000
   10        2.894245   0.000000
   11        6.766274   0.000000
   12        6.766274   0.000000
   13        6.766274   0.000000
   14        9.508640   0.000000
   15       11.575572   0.000000
   16       11.575573   0.000000
 
  0.1666667E+00  0.0000000E+00  0.0000000E+00  0.3703704E-01
    1       -8.853337   1.000000
    2       -5.810451   1.000000
    3       -5.810451   1.000000
    4       -5.751818   1.000000
    5       -5.553843   1.000000
    6       -5.553843   1.000000
    7        0.476580   1.000000
    8        2.026307   1.000000
    9        2.026307   1.000000
   10        4.014582   0.000000
   11        6.868363   0.000000
   12        7.108615   0.000000
   13        7.108615   0.000000
   14       10.509532   0.000000
   15       10.641961   0.000000
   16       10.641961   0.000000
 
  0.3333333E+00  0.0000000E+00  0.0000000E+00  0.3703704E-01
    1       -8.639222   1.000000
    2       -5.776358   1.000000
    3       -5.776358   1.000000
    4       -5.549703   1.000000
    5       -5.549703   1.000000
    6       -5.478808   1.000000
    7       -1.382201   1.000000
    8        1.636124   1.000000
    9        1.636124   1.000000
   10        4.072333   0.000000
   11        7.391447   0.000000
   12        7.391447   0.000000
   13        8.386626   0.000000
   14       10.131086   0.000000
   15       11.051923   0.000000
   16       11.051923   0.000000
 
  0.5000000E+00  0.0000000E+00  0.0000000E+00  0.1851852E-01
    1       -8.532175   1.000000
    2       -5.763135   1.000000
    3       -5.763135   1.000000
    4       -5.543087   1.000000
    5       -5.543087   1.000000
    6       -5.223379   1.000000
    7       -2.243683   1.000000
    8        1.467110   1.000000
    9        1.467110   1.000000
   10        3.960772   0.000000
   11        7.352785   0.000000
   12        7.352785   0.000000
   13        9.144443   0.000000
   14       10.739699   0.000000
   15       12.480181   0.000000
   16       12.480181   0.000000
 
  0.1666667E+00  0.1666667E+00  0.0000000E+00  0.2777778E-01
    1       -8.818483   1.000000
    2       -5.790408   1.000000
    3       -5.790408   1.000000
    4       -5.755202   1.000000
    5       -5.562131   1.000000
    6       -5.544345   1.000000
    7        0.474222   1.000000
    8        1.638462   1.000000
    9        1.638462   1.000000
   10        4.676373   0.000000
   11        5.840217   0.000000
   12        7.726361   0.000000
   13        7.726361   0.000000
   14        9.308321   0.000000
   15       11.286140   0.000000
   16       11.814907   0.000000
 
  0.3333333E+00  0.1666667E+00  0.0000000E+00  0.1111111E+00
    1       -8.641240   1.000000
    2       -5.764427   1.000000
    3       -5.751697   1.000000
    4       -5.615209   1.000000
    5       -5.538207   1.000000
    6       -5.497253   1.000000
    7       -0.917414   1.000000
    8        1.103724   1.000000
    9        1.221403   1.000000
   10        5.037908   0.000000
   11        6.189433   0.000000
   12        7.857383   0.000000
   13        8.293728   0.000000
   14       10.039966   0.000000
   15       11.872965   0.000000
   16       11.946061   0.000000
 
  0.5000000E+00  0.1666667E+00  0.0000000E+00  0.1111111E+00
    1       -8.500138   1.000000
    2       -5.748656   1.000000
    3       -5.735160   1.000000
    4       -5.570911   1.000000
    5       -5.539961   1.000000
    6       -5.202021   1.000000
    7       -2.025385   1.000000
    8        0.567588   1.000000
    9        1.138216   1.000000
   10        4.941010   0.000000
   11        6.845168   0.000000
   12        8.108700   0.000000
   13        8.723000   0.000000
   14       10.931778   0.000000
   15       12.126127   0.000000
   16       12.574908   0.000000
 
 -0.3333333E+00  0.1666667E+00  0.0000000E+00  0.1111111E+00
    1       -8.535037   1.000000
    2       -5.750007   1.000000
    3       -5.749639   1.000000
    4       -5.556563   1.000000
    5       -5.556226   1.000000
    6       -5.287663   1.000000
    7       -1.754270   1.000000
    8        0.429640   1.000000
    9        1.442508   1.000000
   10        4.998080   0.000000
   11        7.086975   0.000000
   12        7.803922   0.000000
   13        8.494120   0.000000
   14       10.644184   0.000000
   15       11.293483   0.000000
   16       12.476145   0.000000
 
 -0.1666667E+00  0.1666667E+00  0.0000000E+00  0.5555556E-01
    1       -8.711722   1.000000
    2       -5.787702   1.000000
    3       -5.772858   1.000000
    4       -5.626074   1.000000
    5       -5.563132   1.000000
    6       -5.532844   1.000000
    7       -0.507065   1.000000
    8        0.973209   1.000000
    9        1.903198   1.000000
   10        4.840382   0.000000
   11        6.839902   0.000000
   12        7.339441   0.000000
   13        7.646332   0.000000
   14        9.885656   0.000000
   15       11.119234   0.000000
   16       11.874626   0.000000
 
  0.3333333E+00  0.3333333E+00  0.0000000E+00  0.2777778E-01
    1       -8.537009   1.000000
    2       -5.703310   1.000000
    3       -5.703310   1.000000
    4       -5.657483   1.000000
    5       -5.528061   1.000000
    6       -5.390230   1.000000
    7       -1.264982   1.000000
    8        0.726822   1.000000
    9        0.726822   1.000000
   10        4.869700   0.000000
   11        5.294187   0.000000
   12        9.473865   0.000000
   13        9.683240   0.000000
   14        9.683240   0.000000
   15       12.477525   0.000000
   16       14.084562   0.000000
 
  0.5000000E+00  0.3333333E+00  0.0000000E+00  0.1111111E+00
    1       -8.433919   1.000000
    2       -5.703752   1.000000
    3       -5.680527   1.000000
    4       -5.625380   1.000000
    5       -5.529249   1.000000
    6       -5.140909   1.000000
    7       -1.901118   1.000000
    8        0.050291   1.000000
    9        0.591051   1.000000
   10        4.962025   0.000000
   11        5.861616   0.000000
   12        9.126870   0.000000
   13        9.873193   0.000000
   14       11.233848   0.000000
   15       12.883302   0.000000
   16       13.654115   0.000000
 
 -0.3333333E+00  0.3333333E+00  0.0000000E+00  0.5555556E-01
    1       -8.434073   1.000000
    2       -5.723945   1.000000
    3       -5.701114   1.000000
    4       -5.582868   1.000000
    5       -5.547822   1.000000
    6       -5.075666   1.000000
    7       -1.943544   1.000000
    8       -0.414034   1.000000
    9        0.906816   1.000000
   10        5.194658   0.000000
   11        7.284346   0.000000
   12        9.019036   0.000000
   13        9.135557   0.000000
   14        9.620061   0.000000
   15       11.176357   0.000000
   16       14.311860   0.000000
 
  0.5000000E+00  0.5000000E+00  0.0000000E+00  0.1388889E-01
    1       -8.399785   1.000000
    2       -5.670131   1.000000
    3       -5.655466   1.000000
    4       -5.655466   1.000000
    5       -5.519883   1.000000
    6       -5.095381   1.000000
    7       -2.108379   1.000000
    8        0.352966   1.000000
    9        0.352966   1.000000
   10        4.708172   0.000000
   11        4.828287   0.000000
   12       10.948273   0.000000
   13       11.298929   0.000000
   14       11.298930   0.000000
   15       13.036232   0.000000
   16       13.746218   0.000000
 
  0.5000000E+00  0.3333333E+00  0.1666667E+00  0.1111111E+00
    1       -8.502026   1.000000
    2       -5.728824   1.000000
    3       -5.721422   1.000000
    4       -5.599170   1.000000
    5       -5.539376   1.000000
    6       -5.265899   1.000000
    7       -1.581439   1.000000
    8        0.136475   1.000000
    9        0.909347   1.000000
   10        5.756396   0.000000
   11        6.276129   0.000000
   12        7.436634   0.000000
   13        9.577958   0.000000
   14       10.346664   0.000000
   15       12.432515   0.000000
   16       13.612326   0.000000
 
 -0.3333333E+00  0.3333333E+00  0.1666667E+00  0.1111111E+00
    1       -8.434072   1.000000
    2       -5.720962   1.000000
    3       -5.705524   1.000000
    4       -5.579472   1.000000
    5       -5.549987   1.000000
    6       -5.074631   1.000000
    7       -1.982056   1.000000
    8       -0.183140   1.000000
    9        0.619846   1.000000
   10        5.886430   0.000000
   11        6.758521   0.000000
   12        7.909971   0.000000
   13        9.421012   0.000000
   14       10.123447   0.000000
   15       12.623100   0.000000
   16       13.404353   0.000000
 
 -0.3333333E+00  0.5000000E+00  0.1666667E+00  0.5555556E-01
    1       -8.400960   1.000000
    2       -5.692749   1.000000
    3       -5.688838   1.000000
    4       -5.604726   1.000000
    5       -5.539380   1.000000
    6       -5.028378   1.000000
    7       -2.023334   1.000000
    8       -0.002120   1.000000
    9        0.081352   1.000000
   10        5.893579   0.000000
   11        5.910825   0.000000
   12        8.834213   0.000000
   13        9.110094   0.000000
   14       11.747068   0.000000
   15       13.278231   0.000000
   16       13.499280   0.000000
 
  0.0000000E+00  0.0000000E+00  0.0000000E+00  0.0000000E+00
    1       -8.958643   1.000000
    2       -5.830269   1.000000
    3       -5.830269   1.000000
    4       -5.830269   1.000000
    5       -5.552486   1.000000
    6       -5.552486   1.000000
    7        2.260703   1.000000
    8        2.260703   1.000000
    9        2.260703   1.000000
   10        2.894245   0.000000
   11        6.766274   0.000000
   12        6.766274   0.000000
   13        6.766274   0.000000
   14        9.508640   0.000000
   15       11.575572   0.000000
   16       11.575603   0.000000
 
  0.3125000E-02  0.0000000E+00  0.3125000E-02  0.0000000E+00
    1       -8.958592   1.000000
    2       -5.830254   1.000000
    3       -5.830254   1.000000
    4       -5.830244   1.000000
    5       -5.552491   1.000000
    6       -5.552482   1.000000
    7        2.258097   1.000000
    8        2.260422   1.000000
    9        2.260422   1.000000
   10        2.896891   0.000000
   11        6.765703   0.000000
   12        6.766673   0.000000
   13        6.766673   0.000000
   14        9.509482   0.000000
   15       11.571281   0.000000
   16       11.575657   0.000000
 
  0.6250000E-02  0.0000000E+00  0.6250000E-02  0.0000000E+00
    1       -8.958434   1.000000
    2       -5.830208   1.000000
    3       -5.830208   1.000000
    4       -5.830168   1.000000
    5       -5.552507   1.000000
    6       -5.552473   1.000000
    7        2.250406   1.000000
    8        2.259580   1.000000
    9        2.259580   1.000000
   10        2.904699   0.000000
   11        6.763991   0.000000
   12        6.767870   0.000000
   13        6.767870   0.000000
   14        9.512006   0.000000
   15       11.558725   0.000000
   16       11.575918   0.000000
 
  0.9375000E-02  0.0000000E+00  0.9375000E-02  0.0000000E+00
    1       -8.958169   1.000000
    2       -5.830133   1.000000
    3       -5.830133   1.000000
    4       -5.830043   1.000000
    5       -5.552534   1.000000
    6       -5.552457   1.000000
    7        2.237981   1.000000
    8        2.258176   1.000000
    9        2.258176   1.000000
   10        2.917315   0.000000
   11        6.761146   0.000000
   12        6.769863   0.000000
   13        6.769863   0.000000
   14        9.516203   0.000000
   15       11.538746   0.000000
   16       11.576357   0.000000
 
  0.1250000E-01  0.0000000E+00  0.1250000E-01  0.0000000E+00
    1       -8.957796   1.000000
    2       -5.830028   1.000000
    3       -5.830028   1.000000
    4       -5.829867   1.000000
    5       -5.552572   1.000000
    6       -5.552434   1.000000
    7        2.221329   1.000000
    8        2.256214   1.000000
    9        2.256214   1.000000
   10        2.934235   0.000000
   11        6.757179   0.000000
   12        6.772652   0.000000
   13        6.772652   0.000000
   14        9.522062   0.000000
   15       11.512444   0.000000
   16       11.576935   0.000000
 
  0.1562500E-01  0.0000000E+00  0.1562500E-01  0.0000000E+00
    1       -8.957316   1.000000
    2       -5.829894   1.000000
    3       -5.829893   1.000000
    4       -5.829641   1.000000
    5       -5.552620   1.000000
    6       -5.552407   1.000000
    7        2.201023   1.000000
    8        2.253695   1.000000
    9        2.253695   1.000000
   10        2.954883   0.000000
   11        6.752106   0.000000
   12        6.776232   0.000000
   13        6.776232   0.000000
   14        9.529563   0.000000
   15       11.481002   0.000000
   16       11.577697   0.000000
 
  0.1875000E-01  0.0000000E+00  0.1875000E-01  0.0000000E+00
    1       -8.956728   1.000000
    2       -5.829729   1.000000
    3       -5.829729   1.000000
    4       -5.829364   1.000000
    5       -5.552679   1.000000
    6       -5.552372   1.000000
    7        2.177634   1.000000
    8        2.250625   1.000000
    9        2.250625   1.000000
   10        2.978689   0.000000
   11        6.745945   0.000000
   12        6.780603   0.000000
   13        6.780603   0.000000
   14        9.538687   0.000000
   15       11.445459   0.000000
   16       11.578631   0.000000
 
  0.2187500E-01  0.0000000E+00  0.2187500E-01  0.0000000E+00
    1       -8.956033   1.000000
    2       -5.829534   1.000000
    3       -5.829534   1.000000
    4       -5.829037   1.000000
    5       -5.552749   1.000000
    6       -5.552331   1.000000
    7        2.151686   1.000000
    8        2.247006   1.000000
    9        2.247006   1.000000
   10        3.005127   0.000000
   11        6.738723   0.000000
   12        6.785760   0.000000
   13        6.785760   0.000000
   14        9.549405   0.000000
   15       11.406683   0.000000
   16       11.579761   0.000000
 
  0.2500000E-01  0.0000000E+00  0.2500000E-01  0.0000000E+00
    1       -8.955230   1.000000
    2       -5.829309   1.000000
    3       -5.829309   1.000000
    4       -5.828660   1.000000
    5       -5.552828   1.000000
    6       -5.552284   1.000000
    7        2.123632   1.000000
    8        2.242843   1.000000
    9        2.242843   1.000000
   10        3.033742   0.000000
   11        6.730463   0.000000
   12        6.791698   0.000000
   13        6.791698   0.000000
   14        9.561687   0.000000
   15       11.365377   0.000000
   16       11.581016   0.000000
 
  0.2812500E-01  0.0000000E+00  0.2812500E-01  0.0000000E+00
    1       -8.954323   1.000000
    2       -5.829055   1.000000
    3       -5.829055   1.000000
    4       -5.828232   1.000000
    5       -5.552919   1.000000
    6       -5.552230   1.000000
    7        2.093853   1.000000
    8        2.238140   1.000000
    9        2.238140   1.000000
   10        3.064149   0.000000
   11        6.721196   0.000000
   12        6.798409   0.000000
   13        6.798410   0.000000
   14        9.575496   0.000000
   15       11.322095   0.000000
   16       11.582467   0.000000
 
  0.3125000E-01  0.0000000E+00  0.3125000E-01  0.0000000E+00
    1       -8.953309   1.000000
    2       -5.828772   1.000000
    3       -5.828771   1.000000
    4       -5.827753   1.000000
    5       -5.553019   1.000000
    6       -5.552171   1.000000
    7        2.062665   1.000000
    8        2.232903   1.000000
    9        2.232903   1.000000
   10        3.096032   0.000000
   11        6.710955   0.000000
   12        6.805891   0.000000
   13        6.805891   0.000000
   14        9.590794   0.000000
   15       11.277273   0.000000
   16       11.584077   0.000000
 
  0.3437500E-01  0.0000000E+00  0.3437500E-01  0.0000000E+00
    1       -8.952190   1.000000
    2       -5.828459   1.000000
    3       -5.828458   1.000000
    4       -5.827223   1.000000
    5       -5.553130   1.000000
    6       -5.552106   1.000000
    7        2.030324   1.000000
    8        2.227140   1.000000
    9        2.227140   1.000000
   10        3.129132   0.000000
   11        6.699775   0.000000
   12        6.814135   0.000000
   13        6.814135   0.000000
   14        9.607537   0.000000
   15       11.231253   0.000000
   16       11.585858   0.000000
 
  0.3750000E-01  0.0000000E+00  0.3750000E-01  0.0000000E+00
    1       -8.950965   1.000000
    2       -5.828116   1.000000
    3       -5.828116   1.000000
    4       -5.826643   1.000000
    5       -5.553251   1.000000
    6       -5.552034   1.000000
    7        1.997035   1.000000
    8        2.220858   1.000000
    9        2.220858   1.000000
   10        3.163239   0.000000
   11        6.687692   0.000000
   12        6.823136   0.000000
   13        6.823136   0.000000
   14        9.625680   0.000000
   15       11.184314   0.000000
   16       11.587811   0.000000
 
  0.4062500E-01  0.0000000E+00  0.4062500E-01  0.0000000E+00
    1       -8.949636   1.000000
    2       -5.827745   1.000000
    3       -5.827745   1.000000
    4       -5.826011   1.000000
    5       -5.553382   1.000000
    6       -5.551957   1.000000
    7        1.962966   1.000000
    8        2.214063   1.000000
    9        2.214063   1.000000
   10        3.198181   0.000000
   11        6.674743   0.000000
   12        6.832884   0.000000
   13        6.832884   0.000000
   14        9.645171   0.000000
   15       11.136678   0.000000
   16       11.589933   0.000000
 
  0.4375000E-01  0.0000000E+00  0.4375000E-01  0.0000000E+00
    1       -8.948202   1.000000
    2       -5.827345   1.000000
    3       -5.827344   1.000000
    4       -5.825327   1.000000
    5       -5.553523   1.000000
    6       -5.551873   1.000000
    7        1.928257   1.000000
    8        2.206765   1.000000
    9        2.206765   1.000000
   10        3.233820   0.000000
   11        6.660971   0.000000
   12        6.843373   0.000000
   13        6.843374   0.000000
   14        9.665957   0.000000
   15       11.088537   0.000000
   16       11.592226   0.000000
 
  0.4687500E-01  0.0000000E+00  0.4687500E-01  0.0000000E+00
    1       -8.946664   1.000000
    2       -5.826915   1.000000
    3       -5.826915   1.000000
    4       -5.824592   1.000000
    5       -5.553674   1.000000
    6       -5.551784   1.000000
    7        1.893016   1.000000
    8        2.198971   1.000000
    9        2.198971   1.000000
   10        3.270039   0.000000
   11        6.646415   0.000000
   12        6.854595   0.000000
   13        6.854595   0.000000
   14        9.687980   0.000000
   15       11.040049   0.000000
   16       11.594687   0.000000
 
  0.5000000E-01  0.0000000E+00  0.5000000E-01  0.0000000E+00
    1       -8.945023   1.000000
    2       -5.826457   1.000000
    3       -5.826456   1.000000
    4       -5.823804   1.000000
    5       -5.553835   1.000000
    6       -5.551688   1.000000
    7        1.857335   1.000000
    8        2.190692   1.000000
    9        2.190692   1.000000
   10        3.306743   0.000000
   11        6.631115   0.000000
   12        6.866539   0.000000
   13        6.866539   0.000000
   14        9.711174   0.000000
   15       10.991359   0.000000
   16       11.597317   0.000000
 
  0.5312500E-01  0.0000000E+00  0.5312500E-01  0.0000000E+00
    1       -8.943280   1.000000
    2       -5.825970   1.000000
    3       -5.825969   1.000000
    4       -5.822964   1.000000
    5       -5.554005   1.000000
    6       -5.551587   1.000000
    7        1.821285   1.000000
    8        2.181934   1.000000
    9        2.181934   1.000000
   10        3.343854   0.000000
   11        6.615110   0.000000
   12        6.879195   0.000000
   13        6.879196   0.000000
   14        9.735470   0.000000
   15       10.942595   0.000000
   16       11.600117   0.000000
 
  0.5624999E-01  0.0000000E+00  0.5624999E-01  0.0000000E+00
    1       -8.941434   1.000000
    2       -5.825454   1.000000
    3       -5.825454   1.000000
    4       -5.822072   1.000000
    5       -5.554184   1.000000
    6       -5.551479   1.000000
    7        1.784933   1.000000
    8        2.172709   1.000000
    9        2.172709   1.000000
   10        3.381303   0.000000
   11        6.598444   0.000000
   12        6.892556   0.000000
   13        6.892556   0.000000
   14        9.760789   0.000000
   15       10.893882   0.000000
   16       11.603087   0.000000
 
  0.5937500E-01  0.0000000E+00  0.5937500E-01  0.0000000E+00
    1       -8.939485   1.000000
    2       -5.824910   1.000000
    3       -5.824909   1.000000
    4       -5.821126   1.000000
    5       -5.554372   1.000000
    6       -5.551365   1.000000
    7        1.748329   1.000000
    8        2.163029   1.000000
    9        2.163029   1.000000
   10        3.419036   0.000000
   11        6.581158   0.000000
   12        6.906611   0.000000
   13        6.906611   0.000000
   14        9.787045   0.000000
   15       10.845348   0.000000
   16       11.606237   0.000000
 
  0.6250000E-01  0.0000000E+00  0.6250000E-01  0.0000000E+00
    1       -8.937437   1.000000
    2       -5.824337   1.000000
    3       -5.824336   1.000000
    4       -5.820128   1.000000
    5       -5.554568   1.000000
    6       -5.551246   1.000000
    7        1.711516   1.000000
    8        2.152902   1.000000
    9        2.152902   1.000000
   10        3.457000   0.000000
   11        6.563287   0.000000
   12        6.921347   0.000000
   13        6.921347   0.000000
   14        9.814128   0.000000
   15       10.797116   0.000000
   16       11.609543   0.000000
 
  0.6562500E-01  0.0000000E+00  0.6562500E-01  0.0000000E+00
    1       -8.935289   1.000000
    2       -5.823735   1.000000
    3       -5.823735   1.000000
    4       -5.819076   1.000000
    5       -5.554773   1.000000
    6       -5.551120   1.000000
    7        1.674531   1.000000
    8        2.142340   1.000000
    9        2.142340   1.000000
   10        3.495152   0.000000
   11        6.544874   0.000000
   12        6.936756   0.000000
   13        6.936756   0.000000
   14        9.841912   0.000000
   15       10.749335   0.000000
   16       11.613019   0.000000
 
  0.6875000E-01  0.0000000E+00  0.6875000E-01  0.0000000E+00
    1       -8.933042   1.000000
    2       -5.823106   1.000000
    3       -5.823106   1.000000
    4       -5.817971   1.000000
    5       -5.554985   1.000000
    6       -5.550989   1.000000
    7        1.637405   1.000000
    8        2.131355   1.000000
    9        2.131355   1.000000
   10        3.533457   0.000000
   11        6.525956   0.000000
   12        6.952825   0.000000
   13        6.952825   0.000000
   14        9.870241   0.000000
   15       10.702177   0.000000
   16       11.616665   0.000000
 
  0.7187500E-01  0.0000000E+00  0.7187500E-01  0.0000000E+00
    1       -8.930696   1.000000
    2       -5.822449   1.000000
    3       -5.822449   1.000000
    4       -5.816812   1.000000
    5       -5.555205   1.000000
    6       -5.550852   1.000000
    7        1.600165   1.000000
    8        2.119957   1.000000
    9        2.119957   1.000000
   10        3.571880   0.000000
   11        6.506570   0.000000
   12        6.969545   0.000000
   13        6.969545   0.000000
   14        9.898909   0.000000
   15       10.655860   0.000000
   16       11.620475   0.000000
 
  0.7500000E-01  0.0000000E+00  0.7500000E-01  0.0000000E+00
    1       -8.928252   1.000000
    2       -5.821764   1.000000
    3       -5.821764   1.000000
    4       -5.815599   1.000000
    5       -5.555430   1.000000
    6       -5.550710   1.000000
    7        1.562833   1.000000
    8        2.108159   1.000000
    9        2.108159   1.000000
   10        3.610391   0.000000
   11        6.486754   0.000000
   12        6.986903   0.000000
   13        6.986903   0.000000
   14        9.927637   0.000000
   15       10.610668   0.000000
   16       11.624455   0.000000
 
  0.7812499E-01  0.0000000E+00  0.7812499E-01  0.0000000E+00
    1       -8.925712   1.000000
    2       -5.821051   1.000000
    3       -5.821051   1.000000
    4       -5.814332   1.000000
    5       -5.555663   1.000000
    6       -5.550562   1.000000
    7        1.525430   1.000000
    8        2.095971   1.000000
    9        2.095971   1.000000
   10        3.648961   0.000000
   11        6.466541   0.000000
   12        7.004887   0.000000
   13        7.004887   0.000000
   14        9.956032   0.000000
   15       10.566998   0.000000
   16       11.628604   0.000000
 
  0.8125000E-01  0.0000000E+00  0.8125000E-01  0.0000000E+00
    1       -8.923076   1.000000
    2       -5.820311   1.000000
    3       -5.820311   1.000000
    4       -5.813010   1.000000
    5       -5.555902   1.000000
    6       -5.550408   1.000000
    7        1.487969   1.000000
    8        2.083406   1.000000
    9        2.083406   1.000000
   10        3.687566   0.000000
   11        6.445966   0.000000
   12        7.023487   0.000000
   13        7.023487   0.000000
   14        9.983525   0.000000
   15       10.525423   0.000000
   16       11.632920   0.000000
 
  0.8437499E-01  0.0000000E+00  0.8437499E-01  0.0000000E+00
    1       -8.920346   1.000000
    2       -5.819544   1.000000
    3       -5.819544   1.000000
    4       -5.811633   1.000000
    5       -5.556147   1.000000
    6       -5.550249   1.000000
    7        1.450469   1.000000
    8        2.070476   1.000000
    9        2.070476   1.000000
   10        3.726183   0.000000
   11        6.425061   0.000000
   12        7.042690   0.000000
   13        7.042690   0.000000
   14       10.009260   0.000000
   15       10.486803   0.000000
   16       11.637405   0.000000
 
  0.8750000E-01  0.0000000E+00  0.8750000E-01  0.0000000E+00
    1       -8.917525   1.000000
    2       -5.818750   1.000000
    3       -5.818749   1.000000
    4       -5.810201   1.000000
    5       -5.556397   1.000000
    6       -5.550085   1.000000
    7        1.412942   1.000000
    8        2.057192   1.000000
    9        2.057192   1.000000
   10        3.764788   0.000000
   11        6.403859   0.000000
   12        7.062485   0.000000
   13        7.062485   0.000000
   14       10.031946   0.000000
   15       10.452427   0.000000
   16       11.642056   0.000000
 
  0.9062500E-01  0.0000000E+00  0.9062500E-01  0.0000000E+00
    1       -8.914612   1.000000
    2       -5.817929   1.000000
    3       -5.817928   1.000000
    4       -5.808713   1.000000
    5       -5.556652   1.000000
    6       -5.549916   1.000000
    7        1.375401   1.000000
    8        2.043567   1.000000
    9        2.043567   1.000000
   10        3.803360   0.000000
   11        6.382388   0.000000
   12        7.082859   0.000000
   13        7.082859   0.000000
   14       10.049706   0.000000
   15       10.424169   0.000000
   16       11.646875   0.000000
 
  0.9375000E-01  0.0000000E+00  0.9375000E-01  0.0000000E+00
    1       -8.911607   1.000000
    2       -5.817081   1.000000
    3       -5.817081   1.000000
    4       -5.807169   1.000000
    5       -5.556910   1.000000
    6       -5.549741   1.000000
    7        1.337855   1.000000
    8        2.029614   1.000000
    9        2.029614   1.000000
   10        3.841876   0.000000
   11        6.360678   0.000000
   12        7.103801   0.000000
   13        7.103801   0.000000
   14       10.060122   0.000000
   15       10.404459   0.000000
   16       11.651862   0.000000
 
  0.9687500E-01  0.0000000E+00  0.9687500E-01  0.0000000E+00
    1       -8.908511   1.000000
    2       -5.816208   1.000000
    3       -5.816207   1.000000
    4       -5.805570   1.000000
    5       -5.557173   1.000000
    6       -5.549561   1.000000
    7        1.300313   1.000000
    8        2.015342   1.000000
    9        2.015342   1.000000
   10        3.880317   0.000000
   11        6.338757   0.000000
   12        7.125296   0.000000
   13        7.125297   0.000000
   14       10.060870   0.000000
   15       10.395611   0.000000
   16       11.657015   0.000000
 
  0.9999999E-01  0.0000000E+00  0.9999999E-01  0.0000000E+00
    1       -8.905327   1.000000
    2       -5.815308   1.000000
    3       -5.815308   1.000000
    4       -5.803915   1.000000
    5       -5.557439   1.000000
    6       -5.549376   1.000000
    7        1.262783   1.000000
    8        2.000765   1.000000
    9        2.000765   1.000000
   10        3.918665   0.000000
   11        6.316652   0.000000
   12        7.147336   0.000000
   13        7.147336   0.000000
   14       10.050970   0.000000
   15       10.398608   0.000000
   16       11.662339   0.000000
 
  0.1031250E+00  0.0000000E+00  0.1031250E+00  0.0000000E+00
    1       -8.902053   1.000000
    2       -5.814383   1.000000
    3       -5.814382   1.000000
    4       -5.802202   1.000000
    5       -5.557708   1.000000
    6       -5.549186   1.000000
    7        1.225274   1.000000
    8        1.985896   1.000000
    9        1.985896   1.000000
   10        3.956901   0.000000
   11        6.294387   0.000000
   12        7.169908   0.000000
   13        7.169908   0.000000
   14       10.031469   0.000000
   15       10.412404   0.000000
   16       11.667820   0.000000
 
  0.1062500E+00  0.0000000E+00  0.1062500E+00  0.0000000E+00
    1       -8.898692   1.000000
    2       -5.813432   1.000000
    3       -5.813432   1.000000
    4       -5.800433   1.000000
    5       -5.557979   1.000000