 vasp.5.4.1 24Jun15 (build Nov 25 2015 16:01:35) complex                        
  
 executed on         CrayXC-Intel date 2016.09.08  17:45:29
 running on   96 total cores
 distrk:  each k-point on   24 cores,    4 groups
 distr:  one band on NCORES_PER_BAND=   6 cores,    4 groups


--------------------------------------------------------------------------------------------------------


 INCAR:
 POTCAR:    PAW_PBE Cd 06Sep2000                  
 POTCAR:    PAW_PBE Te 08Apr2002                  

 ----------------------------------------------------------------------------- 
|                                                                             |
|           W    W    AA    RRRRR   N    N  II  N    N   GGGG   !!!           |
|           W    W   A  A   R    R  NN   N  II  NN   N  G    G  !!!           |
|           W    W  A    A  R    R  N N  N  II  N N  N  G       !!!           |
|           W WW W  AAAAAA  RRRRR   N  N N  II  N  N N  G  GGG   !            |
|           WW  WW  A    A  R   R   N   NN  II  N   NN  G    G                |
|           W    W  A    A  R    R  N    N  II  N    N   GGGG   !!!           |
|                                                                             |
|      You have enabled k-point parallelism (KPAR>1).                         |
|      This developmental code was originally  written by Paul Kent at ORNL,  |
|      and carefully double checked in Vienna.                                |
|      GW as well as linear response parallelism added by Martijn Marsman     |
|      and Georg Kresse.                                                      |
|      Carefully verify results versus KPAR=1.                                |
|      Report problems to Paul Kent and Vienna.                               |
|                                                                             |
 ----------------------------------------------------------------------------- 

 POTCAR:    PAW_PBE Cd 06Sep2000                  
   VRHFIN =Cd : s2 d10                                                          
   LEXCH  = PE                                                                  
   EATOM  =  1293.1815 eV,   95.0462 Ry                                         
                                                                                
   TITEL  = PAW_PBE Cd 06Sep2000                                                
   LULTRA =        F    use ultrasoft PP ?                                      
   IUNSCR =        1    unscreen: 0-lin 1-nonlin 2-no                           
   RPACOR =    2.000    partial core radius                                     
   POMASS =  112.411; ZVAL   =   12.000    mass and valenz                      
   RCORE  =    2.300    outmost cutoff radius                                   
   RWIGS  =    2.980; RWIGS  =    1.577    wigner-seitz radius (au A)           
   ENMAX  =  274.336; ENMIN  =  205.752 eV                                      
   RCLOC  =    2.054    cutoff for local pot                                    
   LCOR   =        T    correct aug charges                                     
   LPAW   =        T    paw PP                                                  
   EAUG   =  456.106                                                            
   DEXC   =    0.000                                                            
   RMAX   =    2.358    core radius for proj-oper                               
   RAUG   =    1.300    factor for augmentation sphere                          
   RDEP   =    2.450    radius for radial grids                                 
   RDEPT  =    1.955    core radius for aug-charge                              
                                                                                
   Atomic configuration                                                         
   12 entries                                                                   
     n  l   j            E        occ.                                          
     1  0  0.50    -26519.7817   2.0000                                         
     2  0  0.50     -3936.9612   2.0000                                         
     2  1  1.50     -3532.2230   6.0000                                         
     3  0  0.50      -733.7908   2.0000                                         
     3  1  1.50      -601.0792   6.0000                                         
     3  2  2.50      -393.5307  10.0000                                         
     4  0  0.50      -105.8977   2.0000                                         
     4  1  1.50       -66.9488   6.0000                                         
     4  2  2.50       -11.7331  10.0000                                         
     5  0  0.50        -5.6592   2.0000                                         
     5  1  0.50        -1.3606   0.0000                                         
     4  3  2.50        -1.3606   0.0000                                         
   Description                                                                  
     l       E           TYP  RCUT    TYP  RCUT                                 
     2    -11.7331479     23  2.300                                             
     2    -13.0937305     23  2.300                                             
     0     -5.6591502     23  2.300                                             
     0     -1.5561433     23  2.300                                             
     1     -2.7211652     23  2.300                                             
     1      8.3548275     23  2.300                                             
  local pseudopotential read in
  partial core-charges read in
  partial kinetic energy density read in
  atomic valenz-charges read in
  non local Contribution for L=           2  read in
    real space projection operators read in
  non local Contribution for L=           2  read in
    real space projection operators read in
  non local Contribution for L=           0  read in
    real space projection operators read in
  non local Contribution for L=           0  read in
    real space projection operators read in
  non local Contribution for L=           1  read in
    real space projection operators read in
  non local Contribution for L=           1  read in
    real space projection operators read in
    PAW grid and wavefunctions read in
 
   number of l-projection  operators is LMAX  =           6
   number of lm-projection operators is LMMAX =          18
 
 POTCAR:    PAW_PBE Te 08Apr2002                  
   VRHFIN =Te: s2p4                                                             
   LEXCH  = PE                                                                  
   EATOM  =   223.2721 eV,   16.4100 Ry                                         
                                                                                
   TITEL  = PAW_PBE Te 08Apr2002                                                
   LULTRA =        F    use ultrasoft PP ?                                      
   IUNSCR =        1    unscreen: 0-lin 1-nonlin 2-no                           
   RPACOR =    2.200    partial core radius                                     
   POMASS =  127.600; ZVAL   =    6.000    mass and valenz                      
   RCORE  =    2.300    outmost cutoff radius                                   
   RWIGS  =    2.900; RWIGS  =    1.535    wigner-seitz radius (au A)           
   ENMAX  =  174.982; ENMIN  =  131.236 eV                                      
   ICORE  =        3    local potential                                         
   LCOR   =        T    correct aug charges                                     
   LPAW   =        T    paw PP                                                  
   EAUG   =  368.792                                                            
   DEXC   =    0.000                                                            
   RMAX   =    2.345    core radius for proj-oper                               
   RAUG   =    1.300    factor for augmentation sphere                          
   RDEP   =    2.397    radius for radial grids                                 
   RDEPT  =    2.174    core radius for aug-charge                              
                                                                                
   Atomic configuration                                                         
   13 entries                                                                   
     n  l   j            E        occ.                                          
     1  0  0.50    -31621.2075   2.0000                                         
     2  0  0.50     -4848.7941   2.0000                                         
     2  1  1.50     -4352.1960   6.0000                                         
     3  0  0.50      -964.9612   2.0000                                         
     3  1  1.50      -803.6179   6.0000                                         
     3  2  2.50      -559.8710  10.0000                                         
     4  0  0.50      -164.3522   2.0000                                         
     4  1  1.50      -114.3756   6.0000                                         
     4  2  2.50       -41.6483  10.0000                                         
     5  0  0.50       -15.1072   2.0000                                         
     5  1  0.50        -5.9526   4.0000                                         
     5  2  1.50        -5.4423   0.0000                                         
     4  3  2.50        -5.4423   0.0000                                         
   Description                                                                  
     l       E           TYP  RCUT    TYP  RCUT                                 
     0    -15.1072389     23  2.300                                             
     0    -16.4678215     23  2.300                                             
     1     -5.9526306     23  2.300                                             
     1     -2.4873968     23  2.300                                             
     2     -5.4423304     23  2.300                                             
     3     -1.3605826     23  2.300                                             
  local pseudopotential read in
  partial core-charges read in
  partial kinetic energy density read in
  atomic valenz-charges read in
  non local Contribution for L=           0  read in
    real space projection operators read in
  non local Contribution for L=           0  read in
    real space projection operators read in
  non local Contribution for L=           1  read in
    real space projection operators read in
  non local Contribution for L=           1  read in
    real space projection operators read in
  non local Contribution for L=           2  read in
    real space projection operators read in
    PAW grid and wavefunctions read in
 
   number of l-projection  operators is LMAX  =           5
   number of lm-projection operators is LMMAX =          13
 

 ----------------------------------------------------------------------------- 
|                                                                             |
|  ADVICE TO THIS USER RUNNING 'VASP/VAMP'   (HEAR YOUR MASTER'S VOICE ...):  |
|                                                                             |
|      You enforced a specific xc-type in the INCAR file,                     |
|      a different type was found on the POTCAR file                          |
|          I HOPE YOU KNOW, WHAT YOU ARE  DOING                               |
|                                                                             |
 ----------------------------------------------------------------------------- 

  PAW_PBE Cd 06Sep2000                  :
 energy of atom  1       EATOM=-1293.1815
 kinetic energy error for atom=    0.0063 (will be added to EATOM!!)
  PAW_PBE Te 08Apr2002                  :
 energy of atom  2       EATOM= -223.2721
 kinetic energy error for atom=    0.0007 (will be added to EATOM!!)
 
 
 POSCAR: CdTe (ICSD, 295K, Rabadanov 2001)       
  positions in direct lattice
  velocities in cartesian coordinates
 exchange correlation table for  LEXCH =       14
   RHO(1)=    0.500       N(1)  =     2000
   RHO(2)=  100.500       N(2)  =     4000
 


--------------------------------------------------------------------------------------------------------


 ion  position               nearest neighbor table
   1  0.000  0.000  0.000-   2 2.81   2 2.81   2 2.81   2 2.81
   2  0.250  0.250  0.250-   1 2.81   1 2.81   1 2.81   1 2.81
 
  LATTYP: Found a face centered cubic cell.
 ALAT       =     6.4827000000
  
  Lattice vectors:
  
 A1 = (   3.2413500000,   3.2413500000,   0.0000000000)
 A2 = (   3.2413500000,   0.0000000000,  -3.2413500000)
 A3 = (   0.0000000000,   3.2413500000,  -3.2413500000)


Analysis of symmetry for initial positions (statically):
=====================================================================
 Subroutine PRICEL returns:
 Original cell was already a primitive cell.
 

 Routine SETGRP: Setting up the symmetry group for a 
 face centered cubic supercell.


 Subroutine GETGRP returns: Found 24 space group operations
 (whereof 24 operations were pure point group operations)
 out of a pool of 48 trial point group operations.


The static configuration has the point symmetry T_d .


Analysis of symmetry for dynamics (positions and initial velocities):
=====================================================================
 Subroutine PRICEL returns:
 Original cell was already a primitive cell.
 

 Routine SETGRP: Setting up the symmetry group for a 
 face centered cubic supercell.


 Subroutine GETGRP returns: Found 24 space group operations
 (whereof 24 operations were pure point group operations)
 out of a pool of 48 trial point group operations.


The dynamic configuration has the point symmetry T_d .


 Subroutine INISYM returns: Found 24 space group operations
 (whereof 24 operations are pure point group operations),
 and found     1 'primitive' translations

 
 
 KPOINTS: Automatically generated mesh SCF: 16 ste
  k-points in reciprocal lattice
Space group operators:
 irot       det(A)        alpha          n_x          n_y          n_z        tau_x        tau_y        tau_z
    1     1.000000     0.000000     1.000000     0.000000     0.000000     0.000000     0.000000     0.000000
    2     1.000000   120.000000    -0.577350    -0.577350     0.577350     0.000000     0.000000     0.000000
    3     1.000000   120.000000     0.577350     0.577350    -0.577350     0.000000     0.000000     0.000000
    4    -1.000000    90.000000    -1.000000     0.000000     0.000000     0.000000     0.000000     0.000000
    5    -1.000000   180.000000     0.707107     0.707107     0.000000     0.000000     0.000000     0.000000
    6    -1.000000    90.000000     0.000000     1.000000     0.000000     0.000000     0.000000     0.000000
    7     1.000000   180.000000     1.000000     0.000000     0.000000     0.000000     0.000000     0.000000
    8     1.000000   120.000000     0.577350     0.577350     0.577350     0.000000     0.000000     0.000000
    9     1.000000   120.000000    -0.577350     0.577350     0.577350     0.000000     0.000000     0.000000
   10    -1.000000    90.000000     1.000000     0.000000     0.000000     0.000000     0.000000     0.000000
   11    -1.000000    90.000000     0.000000     0.000000     1.000000     0.000000     0.000000     0.000000
   12    -1.000000   180.000000     0.707107     0.000000    -0.707107     0.000000     0.000000     0.000000
   13     1.000000   120.000000     0.577350    -0.577350    -0.577350     0.000000     0.000000     0.000000
   14     1.000000   120.000000     0.577350    -0.577350     0.577350     0.000000     0.000000     0.000000
   15     1.000000   180.000000     0.000000     0.000000     1.000000     0.000000     0.000000     0.000000
   16    -1.000000    90.000000     0.000000    -1.000000     0.000000     0.000000     0.000000     0.000000
   17    -1.000000   180.000000     0.000000    -0.707107     0.707107     0.000000     0.000000     0.000000
   18    -1.000000    90.000000     0.000000     0.000000    -1.000000     0.000000     0.000000     0.000000
   19     1.000000   120.000000    -0.577350    -0.577350    -0.577350     0.000000     0.000000     0.000000
   20     1.000000   180.000000     0.000000     1.000000     0.000000     0.000000     0.000000     0.000000
   21     1.000000   120.000000    -0.577350     0.577350    -0.577350     0.000000     0.000000     0.000000
   22    -1.000000   180.000000     0.707107    -0.707107     0.000000     0.000000     0.000000     0.000000
   23    -1.000000   180.000000     0.000000     0.707107     0.707107     0.000000     0.000000     0.000000
   24    -1.000000   180.000000     0.707107     0.000000     0.707107     0.000000     0.000000     0.000000


--------------------------------------------------------------------------------------------------------




 Dimension of arrays:
   k-points           NKPTS =    176   k-points in BZ     NKDIM =    176   number of bands    NBANDS=     16
   number of dos      NEDOS =    301   number of ions     NIONS =      2
   non local maximal  LDIM  =      6   non local SUM 2l+1 LMDIM =     18
   total plane-waves  NPLWV =  46656
   max r-space proj   IRMAX =      1   max aug-charges    IRDMAX=  40037
   dimension x,y,z NGX =    36 NGY =   36 NGZ =   36
   dimension x,y,z NGXF=    72 NGYF=   72 NGZF=   72
   support grid    NGXF=    72 NGYF=   72 NGZF=   72
   ions per type =               1   1
 NGX,Y,Z   is equivalent  to a cutoff of  13.06, 13.06, 13.06 a.u.
 NGXF,Y,Z  is equivalent  to a cutoff of  26.11, 26.11, 26.11 a.u.


 I would recommend the setting:
   dimension x,y,z NGX =    33 NGY =   33 NGZ =   33
 SYSTEM =  Name                                    
 POSCAR =  CdTe (ICSD, 295K, Rabadanov 2001)       

 Startparameter for this run:
   NWRITE =      2    write-flag & timer
   PREC   = accura    normal or accurate (medium, high low for compatibility)
   ISTART =      0    job   : 0-new  1-cont  2-samecut
   ICHARG =     11    charge: 1-file 2-atom 10-const
   ISPIN  =      1    spin polarized calculation?
   LNONCOLLINEAR =      F non collinear calculations
   LSORBIT =      F    spin-orbit coupling
   INIWAV =      1    electr: 0-lowe 1-rand  2-diag
   LASPH  =      F    aspherical Exc in radial PAW
   METAGGA=      F    non-selfconsistent MetaGGA calc.

 Electronic Relaxation 1
   ENCUT  =  500.0 eV  36.75 Ry    6.06 a.u.   8.36  8.36  8.36*2*pi/ulx,y,z
   ENINI  =  500.0     initial cutoff
   ENAUG  =  456.1 eV  augmentation charge cutoff
   NELM   =     60;   NELMIN=  2; NELMDL=  0     # of ELM steps 
   EDIFF  = 0.1E-05   stopping-criterion for ELM
   LREAL  =      F    real-space projection
   NLSPLINE    = F    spline interpolate recip. space projectors
   LCOMPAT=      F    compatible to vasp.4.4
   GGA_COMPAT  = T    GGA compatible to vasp.4.4-vasp.4.6
   LMAXPAW     = -100 max onsite density
   LMAXMIX     =    2 max onsite mixed and CHGCAR
   VOSKOWN=      0    Vosko Wilk Nusair interpolation
   ROPT   =    0.00000   0.00000
 Ionic relaxation
   EDIFFG = -.5E-02   stopping-criterion for IOM
   NSW    =      1    number of steps for IOM
   NBLOCK =      1;   KBLOCK =      1    inner block; outer block 
   IBRION =      2    ionic relax: 0-MD 1-quasi-New 2-CG
   NFREE  =      1    steps in history (QN), initial steepest desc. (CG)
   ISIF   =      3    stress and relaxation
   IWAVPR =     11    prediction:  0-non 1-charg 2-wave 3-comb
   ISYM   =      2    0-nonsym 1-usesym 2-fastsym
   LCORR  =      T    Harris-Foulkes like correction to forces

   POTIM  = 0.5000    time-step for ionic-motion
   TEIN   =    0.0    initial temperature
   TEBEG  =    0.0;   TEEND  =   0.0 temperature during run
   SMASS  =  -3.00    Nose mass-parameter (am)
   estimated Nose-frequenzy (Omega)   =  0.10E-29 period in steps =****** mass=  -0.480E-27a.u.
   SCALEE = 1.0000    scale energy and forces
   NPACO  =    256;   APACO  = 16.0  distance and # of slots for P.C.
   PSTRESS=    0.0 pullay stress

  Mass of Ions in am
   POMASS = 112.41127.60
  Ionic Valenz
   ZVAL   =  12.00  6.00
  Atomic Wigner-Seitz radii
   RWIGS  =  -1.00 -1.00
  virtual crystal weights 
   VCA    =   1.00  1.00
   NELECT =      18.0000    total number of electrons
   NUPDOWN=      -1.0000    fix difference up-down

 DOS related values:
   EMIN   =  10.00;   EMAX   =-10.00  energy-range for DOS
   EFERMI =   0.00
   ISMEAR =     0;   SIGMA  =   0.01  broadening in eV -4-tet -1-fermi 0-gaus

 Electronic relaxation 2 (details)
   IALGO  =     38    algorithm
   LDIAG  =      T    sub-space diagonalisation (order eigenvalues)
   LSUBROT=      F    optimize rotation matrix (better conditioning)
   TURBO    =      0    0=normal 1=particle mesh
   IRESTART =      0    0=no restart 2=restart with 2 vectors
   NREBOOT  =      0    no. of reboots
   NMIN     =      0    reboot dimension
   EREF     =   0.00    reference energy to select bands
   IMIX   =      4    mixing-type and parameters
     AMIX     =   0.40;   BMIX     =  1.00
     AMIX_MAG =   1.60;   BMIX_MAG =  1.00
     AMIN     =   0.01
     WC   =   100.;   INIMIX=   1;  MIXPRE=   1;  MAXMIX= -45

 Intra band minimization:
   WEIMIN = 0.0010     energy-eigenvalue tresh-hold
   EBREAK =  0.16E-07  absolut break condition
   DEPER  =   0.30     relativ break condition  

   TIME   =   0.40     timestep for ELM

  volume/ion in A,a.u.               =      34.05       229.81
  Fermi-wavevector in a.u.,A,eV,Ry     =   1.050581  1.985311 15.017042  1.103721
  Thomas-Fermi vector in A             =   2.185590
 
 Write flags
   LWAVE  =      T    write WAVECAR
   LCHARG =      T    write CHGCAR
   LVTOT  =      F    write LOCPOT, total local potential
   LVHAR  =      F    write LOCPOT, Hartree potential only
   LELF   =      F    write electronic localiz. function (ELF)
   LORBIT =     10    0 simple, 1 ext, 2 COOP (PROOUT)


 Dipole corrections
   LMONO  =      F    monopole corrections only (constant potential shift)
   LDIPOL =      F    correct potential (dipole corrections)
   IDIPOL =      0    1-x, 2-y, 3-z, 4-all directions 
   EPSILON=  1.0000000 bulk dielectric constant

 Core level calculations are selected ICORELEVEL =  1
 Exchange correlation treatment:
   GGA     =    PS    GGA type
   LEXCH   =    14    internal setting for exchange type
   VOSKOWN=      0    Vosko Wilk Nusair interpolation
   LHFCALC =     F    Hartree Fock is set to
   LHFONE  =     F    Hartree Fock one center treatment
   AEXX    =    0.0000 exact exchange contribution

 Linear response parameters
   LEPSILON=     F    determine dielectric tensor
   LRPA    =     F    only Hartree local field effects (RPA)
   LNABLA  =     F    use nabla operator in PAW spheres
   LVEL    =     F    velocity operator in full k-point grid
   LINTERFAST=   F  fast interpolation
   KINTER  =     0    interpolate to denser k-point grid
   CSHIFT  =0.1000    complex shift for real part using Kramers Kronig
   OMEGAMAX=  -1.0    maximum frequency
   DEG_THRESHOLD= 0.2000000E-02 threshold for treating states as degnerate
   RTIME   =    0.100 relaxation time in fs

 Orbital magnetization related:
   ORBITALMAG=     F  switch on orbital magnetization
   LCHIMAG   =     F  perturbation theory with respect to B field
   DQ        =  0.001000  dq finite difference perturbation B field



--------------------------------------------------------------------------------------------------------


 conjugate gradient relaxation of ions
 charge density and potential remain constant during run
 non-spin polarized calculation
 Variant of blocked Davidson
 Davidson routine will perform the subspace rotation
 perform sub-space diagonalisation
    after iterative eigenvector-optimisation
 no mixing
 using additional bands            7
 reciprocal scheme for non local part
 use partial core corrections
 calculate Harris-corrections to forces 
   (improved forces if not selfconsistent)
 use gradient corrections 
 WARNING: stress and forces are not correct
  (second derivative of E(xc) not defined)
 use of overlap-Matrix (Vanderbilt PP)
 Gauss-broadening in eV      SIGMA  =   0.01


--------------------------------------------------------------------------------------------------------


  energy-cutoff  :      500.00
  volume of cell :       68.11
      direct lattice vectors                 reciprocal lattice vectors
     3.241350000  3.241350000  0.000000000     0.154256714  0.154256714  0.154256714
     3.241350000  0.000000000 -3.241350000     0.154256714 -0.154256714 -0.154256714
     0.000000000  3.241350000 -3.241350000    -0.154256714  0.154256714 -0.154256714

  length of vectors
     4.583961130  4.583961130  4.583961130     0.267180466  0.267180466  0.267180466


 
 k-points in units of 2pi/SCALE and weight: Automatically generated mesh SCF: 16 ste
   0.00000000  0.00000000  0.00000000       0.005
   0.16666667  0.16666667  0.16666667       0.037
   0.33333333  0.33333333  0.33333333       0.037
   0.50000000  0.50000000  0.50000000       0.019
   0.33333333  0.00000000  0.00000000       0.028
   0.50000000  0.16666667  0.16666667       0.111
   0.66666667  0.33333333  0.33333333       0.111
  -0.16666667 -0.50000000 -0.50000000       0.111
   0.00000000 -0.33333333 -0.33333333       0.056
   0.66666667  0.00000000  0.00000000       0.028
   0.83333333  0.16666667  0.16666667       0.111
   0.00000000 -0.66666667 -0.66666667       0.056
   1.00000000  0.00000000  0.00000000       0.014
   0.66666667  0.33333333  0.00000000       0.111
  -0.16666667 -0.50000000 -0.83333333       0.111
   0.00000000 -0.66666667 -1.00000000       0.056
   0.00000000  0.00000000  0.00000000       0.000
   0.00000000  0.00625000  0.00000000       0.000
   0.00000000  0.01250000  0.00000000       0.000
   0.00000000  0.01875000  0.00000000       0.000
   0.00000000  0.02500000  0.00000000       0.000
   0.00000000  0.03125000  0.00000000       0.000
   0.00000000  0.03750000  0.00000000       0.000
   0.00000000  0.04375000  0.00000000       0.000
   0.00000000  0.05000000  0.00000000       0.000
   0.00000000  0.05625000  0.00000000       0.000
   0.00000000  0.06250000  0.00000000       0.000
   0.00000000  0.06875000  0.00000000       0.000
   0.00000000  0.07500000  0.00000000       0.000
   0.00000000  0.08125000  0.00000000       0.000
   0.00000000  0.08750000  0.00000000       0.000
   0.00000000  0.09375000  0.00000000       0.000
   0.00000000  0.10000000  0.00000000       0.000
   0.00000000  0.10625000  0.00000000       0.000
   0.00000000  0.11249998  0.00000000       0.000
   0.00000000  0.11875000  0.00000000       0.000
   0.00000000  0.12500000  0.00000000       0.000
   0.00000000  0.13125000  0.00000000       0.000
   0.00000000  0.13750000  0.00000000       0.000
   0.00000000  0.14375000  0.00000000       0.000
   0.00000000  0.15000000  0.00000000       0.000
   0.00000000  0.15624998  0.00000000       0.000
   0.00000000  0.16250000  0.00000000       0.000
   0.00000000  0.16874998  0.00000000       0.000
   0.00000000  0.17500000  0.00000000       0.000
   0.00000000  0.18125000  0.00000000       0.000
   0.00000000  0.18750000  0.00000000       0.000
   0.00000000  0.19375000  0.00000000       0.000
   0.00000000  0.19999998  0.00000000       0.000
   0.00000000  0.20625000  0.00000000       0.000
   0.00000000  0.21250000  0.00000000       0.000
   0.00000000  0.21874998  0.00000000       0.000
   0.00000000  0.22499998  0.00000000       0.000
   0.00000000  0.23124998  0.00000000       0.000
   0.00000000  0.23749998  0.00000000       0.000
   0.00000000  0.24374998  0.00000000       0.000
   0.00000000  0.24999998  0.00000000       0.000
   0.00000000  0.25625000  0.00000000       0.000
   0.00000000  0.26249998  0.00000000       0.000
   0.00000000  0.26874998  0.00000000       0.000
   0.00000000  0.27500000  0.00000000       0.000
   0.00000000  0.28125000  0.00000000       0.000
   0.00000000  0.28750000  0.00000000       0.000
   0.00000000  0.29374998  0.00000000       0.000
   0.00000000  0.29999998  0.00000000       0.000
   0.00000000  0.30624998  0.00000000       0.000
   0.00000000  0.31249998  0.00000000       0.000
   0.00000000  0.31875000  0.00000000       0.000
   0.00000000  0.32499998  0.00000000       0.000
   0.00000000  0.33124998  0.00000000       0.000
   0.00000000  0.33749998  0.00000000       0.000
   0.00000000  0.34374998  0.00000000       0.000
   0.00000000  0.35000000  0.00000000       0.000
   0.00000000  0.35624998  0.00000000       0.000
   0.00000000  0.36249998  0.00000000       0.000
   0.00000000  0.36874998  0.00000000       0.000
   0.00000000  0.37500000  0.00000000       0.000
   0.00000000  0.38125000  0.00000000       0.000
   0.00000000  0.38749998  0.00000000       0.000
   0.00000000  0.39374998  0.00000000       0.000
   0.00000000  0.39999998  0.00000000       0.000
   0.00000000  0.40624998  0.00000000       0.000
   0.00000000  0.41250000  0.00000000       0.000
   0.00000000  0.41874998  0.00000000       0.000
   0.00000000  0.42499998  0.00000000       0.000
   0.00000000  0.43124998  0.00000000       0.000
   0.00000000  0.43749998  0.00000000       0.000
   0.00000000  0.44374996  0.00000000       0.000
   0.00000000  0.44999996  0.00000000       0.000
   0.00000000  0.45624998  0.00000000       0.000
   0.00000000  0.46249998  0.00000000       0.000
   0.00000000  0.46874998  0.00000000       0.000
   0.00000000  0.47499996  0.00000000       0.000
   0.00000000  0.48124996  0.00000000       0.000
   0.00000000  0.48749996  0.00000000       0.000
   0.00000000  0.49374994  0.00000000       0.000
   0.00000000  0.49999998  0.00000000       0.000
   0.00000000  0.50625002  0.00000000       0.000
   0.00000000  0.51249998  0.00000000       0.000
   0.00000000  0.51875002  0.00000000       0.000
   0.00000000  0.52499998  0.00000000       0.000
   0.00000000  0.53125000  0.00000000       0.000
   0.00000000  0.53749996  0.00000000       0.000
   0.00000000  0.54374998  0.00000000       0.000
   0.00000000  0.55000002  0.00000000       0.000
   0.00000000  0.55624998  0.00000000       0.000
   0.00000000  0.56250000  0.00000000       0.000
   0.00000000  0.56874996  0.00000000       0.000
   0.00000000  0.57499998  0.00000000       0.000
   0.00000000  0.58124996  0.00000000       0.000
   0.00000000  0.58749998  0.00000000       0.000
   0.00000000  0.59375000  0.00000000       0.000
   0.00000000  0.59999996  0.00000000       0.000
   0.00000000  0.60624998  0.00000000       0.000
   0.00000000  0.61249996  0.00000000       0.000
   0.00000000  0.61874998  0.00000000       0.000
   0.00000000  0.62499994  0.00000000       0.000
   0.00000000  0.63124996  0.00000000       0.000
   0.00000000  0.63749998  0.00000000       0.000
   0.00000000  0.64374996  0.00000000       0.000
   0.00000000  0.64999998  0.00000000       0.000
   0.00000000  0.65624994  0.00000000       0.000
   0.00000000  0.66249996  0.00000000       0.000
   0.00000000  0.66874992  0.00000000       0.000
   0.00000000  0.67499996  0.00000000       0.000
   0.00000000  0.68124998  0.00000000       0.000
   0.00000000  0.68749994  0.00000000       0.000
   0.00000000  0.69374996  0.00000000       0.000
   0.00000000  0.69999998  0.00000000       0.000
   0.00000000  0.70625002  0.00000000       0.000
   0.00000000  0.71249998  0.00000000       0.000
   0.00000000  0.71874994  0.00000000       0.000
   0.00000000  0.72499996  0.00000000       0.000
   0.00000000  0.73124992  0.00000000       0.000
   0.00000000  0.73749996  0.00000000       0.000
   0.00000000  0.74374992  0.00000000       0.000
   0.00000000  0.75000000  0.00000000       0.000
   0.00000000  0.75624996  0.00000000       0.000
   0.00000000  0.76249998  0.00000000       0.000
   0.00000000  0.76874996  0.00000000       0.000
   0.00000000  0.77499998  0.00000000       0.000
   0.00000000  0.78124994  0.00000000       0.000
   0.00000000  0.78749996  0.00000000       0.000
   0.00000000  0.79374992  0.00000000       0.000
   0.00000000  0.79999996  0.00000000       0.000
   0.00000000  0.80625004  0.00000000       0.000
   0.00000000  0.81249994  0.00000000       0.000
   0.00000000  0.81875002  0.00000000       0.000
   0.00000000  0.82499998  0.00000000       0.000
   0.00000000  0.83125002  0.00000000       0.000
   0.00000000  0.83749998  0.00000000       0.000
   0.00000000  0.84375000  0.00000000       0.000
   0.00000000  0.84999996  0.00000000       0.000
   0.00000000  0.85624998  0.00000000       0.000
   0.00000000  0.86249996  0.00000000       0.000
   0.00000000  0.86874998  0.00000000       0.000
   0.00000000  0.87499994  0.00000000       0.000
   0.00000000  0.88124996  0.00000000       0.000
   0.00000000  0.88749992  0.00000000       0.000
   0.00000000  0.89375002  0.00000000       0.000
   0.00000000  0.89999992  0.00000000       0.000
   0.00000000  0.90625000  0.00000000       0.000
   0.00000000  0.91249996  0.00000000       0.000
   0.00000000  0.91874998  0.00000000       0.000
   0.00000000  0.92499996  0.00000000       0.000
   0.00000000  0.93124998  0.00000000       0.000
   0.00000000  0.93749994  0.00000000       0.000
   0.00000000  0.94374996  0.00000000       0.000
   0.00000000  0.94999992  0.00000000       0.000
   0.00000000  0.95624996  0.00000000       0.000
   0.00000000  0.96249992  0.00000000       0.000
   0.00000000  0.96874994  0.00000000       0.000
   0.00000000  0.97499990  0.00000000       0.000
   0.00000000  0.98124998  0.00000000       0.000
   0.00000000  0.98749990  0.00000000       0.000
   0.00000000  0.99374998  0.00000000       0.000
 
 k-points in reciprocal lattice and weights: Automatically generated mesh SCF: 16 ste
   0.00000000  0.00000000  0.00000000       0.005
   0.16666667  0.00000000  0.00000000       0.037
   0.33333333  0.00000000  0.00000000       0.037
   0.50000000  0.00000000  0.00000000       0.019
   0.16666667  0.16666667  0.00000000       0.028
   0.33333333  0.16666667  0.00000000       0.111
   0.50000000  0.16666667  0.00000000       0.111
  -0.33333333  0.16666667  0.00000000       0.111
  -0.16666667  0.16666667  0.00000000       0.056
   0.33333333  0.33333333  0.00000000       0.028
   0.50000000  0.33333333  0.00000000       0.111
  -0.33333333  0.33333333  0.00000000       0.056
   0.50000000  0.50000000  0.00000000       0.014
   0.50000000  0.33333333  0.16666667       0.111
  -0.33333333  0.33333333  0.16666667       0.111
  -0.33333333  0.50000000  0.16666667       0.056
   0.00000000  0.00000000  0.00000000       0.000
   0.00312500  0.00000000  0.00312500       0.000
   0.00625000  0.00000000  0.00625000       0.000
   0.00937500  0.00000000  0.00937500       0.000
   0.01250000  0.00000000  0.01250000       0.000
   0.01562500  0.00000000  0.01562500       0.000
   0.01875000  0.00000000  0.01875000       0.000
   0.02187500  0.00000000  0.02187500       0.000
   0.02500000  0.00000000  0.02500000       0.000
   0.02812500  0.00000000  0.02812500       0.000
   0.03125000  0.00000000  0.03125000       0.000
   0.03437500  0.00000000  0.03437500       0.000
   0.03750000  0.00000000  0.03750000       0.000
   0.04062500  0.00000000  0.04062500       0.000
   0.04375000  0.00000000  0.04375000       0.000
   0.04687500  0.00000000  0.04687500       0.000
   0.05000000  0.00000000  0.05000000       0.000
   0.05312500  0.00000000  0.05312500       0.000
   0.05624999  0.00000000  0.05624999       0.000
   0.05937500  0.00000000  0.05937500       0.000
   0.06250000  0.00000000  0.06250000       0.000
   0.06562500  0.00000000  0.06562500       0.000
   0.06875000  0.00000000  0.06875000       0.000
   0.07187500  0.00000000  0.07187500       0.000
   0.07500000  0.00000000  0.07500000       0.000
   0.07812499  0.00000000  0.07812499       0.000
   0.08125000  0.00000000  0.08125000       0.000
   0.08437499  0.00000000  0.08437499       0.000
   0.08750000  0.00000000  0.08750000       0.000
   0.09062500  0.00000000  0.09062500       0.000
   0.09375000  0.00000000  0.09375000       0.000
   0.09687500  0.00000000  0.09687500       0.000
   0.09999999  0.00000000  0.09999999       0.000
   0.10312500  0.00000000  0.10312500       0.000
   0.10625000  0.00000000  0.10625000       0.000
   0.10937499  0.00000000  0.10937499       0.000
   0.11249999  0.00000000  0.11249999       0.000
   0.11562499  0.00000000  0.11562499       0.000
   0.11874999  0.00000000  0.11874999       0.000
   0.12187499  0.00000000  0.12187499       0.000
   0.12499999  0.00000000  0.12499999       0.000
   0.12812500  0.00000000  0.12812500       0.000
   0.13124999  0.00000000  0.13124999       0.000
   0.13437499  0.00000000  0.13437499       0.000
   0.13750000  0.00000000  0.13750000       0.000
   0.14062500  0.00000000  0.14062500       0.000
   0.14375000  0.00000000  0.14375000       0.000
   0.14687499  0.00000000  0.14687499       0.000
   0.14999999  0.00000000  0.14999999       0.000
   0.15312499  0.00000000  0.15312499       0.000
   0.15624999  0.00000000  0.15624999       0.000
   0.15937500  0.00000000  0.15937500       0.000
   0.16249999  0.00000000  0.16249999       0.000
   0.16562499  0.00000000  0.16562499       0.000
   0.16874999  0.00000000  0.16874999       0.000
   0.17187499  0.00000000  0.17187499       0.000
   0.17500000  0.00000000  0.17500000       0.000
   0.17812499  0.00000000  0.17812499       0.000
   0.18124999  0.00000000  0.18124999       0.000
   0.18437499  0.00000000  0.18437499       0.000
   0.18750000  0.00000000  0.18750000       0.000
   0.19062500  0.00000000  0.19062500       0.000
   0.19374999  0.00000000  0.19374999       0.000
   0.19687499  0.00000000  0.19687499       0.000
   0.19999999  0.00000000  0.19999999       0.000
   0.20312499  0.00000000  0.20312499       0.000
   0.20625000  0.00000000  0.20625000       0.000
   0.20937499  0.00000000  0.20937499       0.000
   0.21249999  0.00000000  0.21249999       0.000
   0.21562499  0.00000000  0.21562499       0.000
   0.21874999  0.00000000  0.21874999       0.000
   0.22187498  0.00000000  0.22187498       0.000
   0.22499998  0.00000000  0.22499998       0.000
   0.22812499  0.00000000  0.22812499       0.000
   0.23124999  0.00000000  0.23124999       0.000
   0.23437499  0.00000000  0.23437499       0.000
   0.23749998  0.00000000  0.23749998       0.000
   0.24062498  0.00000000  0.24062498       0.000
   0.24374998  0.00000000  0.24374998       0.000
   0.24687497  0.00000000  0.24687497       0.000
   0.24999999  0.00000000  0.24999999       0.000
   0.25312501  0.00000000  0.25312501       0.000
   0.25624999  0.00000000  0.25624999       0.000
   0.25937501  0.00000000  0.25937501       0.000
   0.26249999  0.00000000  0.26249999       0.000
   0.26562500  0.00000000  0.26562500       0.000
   0.26874998  0.00000000  0.26874998       0.000
   0.27187499  0.00000000  0.27187499       0.000
   0.27500001  0.00000000  0.27500001       0.000
   0.27812499  0.00000000  0.27812499       0.000
   0.28125000  0.00000000  0.28125000       0.000
   0.28437498  0.00000000  0.28437498       0.000
   0.28749999  0.00000000  0.28749999       0.000
   0.29062498  0.00000000  0.29062498       0.000
   0.29374999  0.00000000  0.29374999       0.000
   0.29687500  0.00000000  0.29687500       0.000
   0.29999998  0.00000000  0.29999998       0.000
   0.30312499  0.00000000  0.30312499       0.000
   0.30624998  0.00000000  0.30624998       0.000
   0.30937499  0.00000000  0.30937499       0.000
   0.31249997  0.00000000  0.31249997       0.000
   0.31562498  0.00000000  0.31562498       0.000
   0.31874999  0.00000000  0.31874999       0.000
   0.32187498  0.00000000  0.32187498       0.000
   0.32499999  0.00000000  0.32499999       0.000
   0.32812497  0.00000000  0.32812497       0.000
   0.33124998  0.00000000  0.33124998       0.000
   0.33437496  0.00000000  0.33437496       0.000
   0.33749998  0.00000000  0.33749998       0.000
   0.34062499  0.00000000  0.34062499       0.000
   0.34374997  0.00000000  0.34374997       0.000
   0.34687498  0.00000000  0.34687498       0.000
   0.34999999  0.00000000  0.34999999       0.000
   0.35312501  0.00000000  0.35312501       0.000
   0.35624999  0.00000000  0.35624999       0.000
   0.35937497  0.00000000  0.35937497       0.000
   0.36249998  0.00000000  0.36249998       0.000
   0.36562496  0.00000000  0.36562496       0.000
   0.36874998  0.00000000  0.36874998       0.000
   0.37187496  0.00000000  0.37187496       0.000
   0.37500000  0.00000000  0.37500000       0.000
   0.37812498  0.00000000  0.37812498       0.000
   0.38124999  0.00000000  0.38124999       0.000
   0.38437498  0.00000000  0.38437498       0.000
   0.38749999  0.00000000  0.38749999       0.000
   0.39062497  0.00000000  0.39062497       0.000
   0.39374998  0.00000000  0.39374998       0.000
   0.39687496  0.00000000  0.39687496       0.000
   0.39999998  0.00000000  0.39999998       0.000
   0.40312502  0.00000000  0.40312502       0.000
   0.40624997  0.00000000  0.40624997       0.000
   0.40937501  0.00000000  0.40937501       0.000
   0.41249999  0.00000000  0.41249999       0.000
   0.41562501  0.00000000  0.41562501       0.000
   0.41874999  0.00000000  0.41874999       0.000
   0.42187500  0.00000000  0.42187500       0.000
   0.42499998  0.00000000  0.42499998       0.000
   0.42812499  0.00000000  0.42812499       0.000
   0.43124998  0.00000000  0.43124998       0.000
   0.43437499  0.00000000  0.43437499       0.000
   0.43749997  0.00000000  0.43749997       0.000
   0.44062498  0.00000000  0.44062498       0.000
   0.44374996  0.00000000  0.44374996       0.000
   0.44687501  0.00000000  0.44687501       0.000
   0.44999996  0.00000000  0.44999996       0.000
   0.45312500  0.00000000  0.45312500       0.000
   0.45624998  0.00000000  0.45624998       0.000
   0.45937499  0.00000000  0.45937499       0.000
   0.46249998  0.00000000  0.46249998       0.000
   0.46562499  0.00000000  0.46562499       0.000
   0.46874997  0.00000000  0.46874997       0.000
   0.47187498  0.00000000  0.47187498       0.000
   0.47499996  0.00000000  0.47499996       0.000
   0.47812498  0.00000000  0.47812498       0.000
   0.48124996  0.00000000  0.48124996       0.000
   0.48437497  0.00000000  0.48437497       0.000
   0.48749995  0.00000000  0.48749995       0.000
   0.49062499  0.00000000  0.49062499       0.000
   0.49374995  0.00000000  0.49374995       0.000
   0.49687499  0.00000000  0.49687499       0.000
 
 position of ions in fractional coordinates (direct lattice) 
   0.00000000  0.00000000  0.00000000
   0.25000000  0.25000000  0.25000000
 
 position of ions in cartesian coordinates  (Angst):
   0.00000000  0.00000000  0.00000000
   1.62067500  1.62067500 -1.62067500
 


--------------------------------------------------------------------------------------------------------


 k-point  1 :   0.0000 0.0000 0.0000  plane waves:    1759
 k-point  2 :   0.1667 0.0000 0.0000  plane waves:    1747
 k-point  3 :   0.3333 0.0000 0.0000  plane waves:    1730
 k-point  4 :   0.5000 0.0000 0.0000  plane waves:    1718
 k-point  5 :   0.1667 0.1667 0.0000  plane waves:    1736
 k-point  6 :   0.3333 0.1667 0.0000  plane waves:    1729
 k-point  7 :   0.5000 0.1667 0.0000  plane waves:    1739
 k-point  8 :  -0.3333 0.1667 0.0000  plane waves:    1732
 k-point  9 :  -0.1667 0.1667 0.0000  plane waves:    1735
 k-point 10 :   0.3333 0.3333 0.0000  plane waves:    1728
 k-point 11 :   0.5000 0.3333 0.0000  plane waves:    1723
 k-point 12 :  -0.3333 0.3333 0.0000  plane waves:    1726
 k-point 13 :   0.5000 0.5000 0.0000  plane waves:    1724
 k-point 14 :   0.5000 0.3333 0.1667  plane waves:    1724
 k-point 15 :  -0.3333 0.3333 0.1667  plane waves:    1726
 k-point 16 :  -0.3333 0.5000 0.1667  plane waves:    1722
 k-point 17 :   0.0000 0.0000 0.0000  plane waves:    1759
 k-point 18 :   0.0031 0.0000 0.0031  plane waves:    1759
 k-point 19 :   0.0063 0.0000 0.0063  plane waves:    1759
 k-point 20 :   0.0094 0.0000 0.0094  plane waves:    1767
 k-point 21 :   0.0125 0.0000 0.0125  plane waves:    1767
 k-point 22 :   0.0156 0.0000 0.0156  plane waves:    1775
 k-point 23 :   0.0187 0.0000 0.0187  plane waves:    1771
 k-point 24 :   0.0219 0.0000 0.0219  plane waves:    1763
 k-point 25 :   0.0250 0.0000 0.0250  plane waves:    1755
 k-point 26 :   0.0281 0.0000 0.0281  plane waves:    1755
 k-point 27 :   0.0312 0.0000 0.0312  plane waves:    1755
 k-point 28 :   0.0344 0.0000 0.0344  plane waves:    1755
 k-point 29 :   0.0375 0.0000 0.0375  plane waves:    1755
 k-point 30 :   0.0406 0.0000 0.0406  plane waves:    1763
 k-point 31 :   0.0437 0.0000 0.0437  plane waves:    1763
 k-point 32 :   0.0469 0.0000 0.0469  plane waves:    1763
 k-point 33 :   0.0500 0.0000 0.0500  plane waves:    1763
 k-point 34 :   0.0531 0.0000 0.0531  plane waves:    1763
 k-point 35 :   0.0562 0.0000 0.0562  plane waves:    1763
 k-point 36 :   0.0594 0.0000 0.0594  plane waves:    1747
 k-point 37 :   0.0625 0.0000 0.0625  plane waves:    1747
 k-point 38 :   0.0656 0.0000 0.0656  plane waves:    1747
 k-point 39 :   0.0688 0.0000 0.0688  plane waves:    1747
 k-point 40 :   0.0719 0.0000 0.0719  plane waves:    1747
 k-point 41 :   0.0750 0.0000 0.0750  plane waves:    1747
 k-point 42 :   0.0781 0.0000 0.0781  plane waves:    1747
 k-point 43 :   0.0813 0.0000 0.0813  plane waves:    1747
 k-point 44 :   0.0844 0.0000 0.0844  plane waves:    1747
 k-point 45 :   0.0875 0.0000 0.0875  plane waves:    1747
 k-point 46 :   0.0906 0.0000 0.0906  plane waves:    1748
 k-point 47 :   0.0938 0.0000 0.0938  plane waves:    1744
 k-point 48 :   0.0969 0.0000 0.0969  plane waves:    1744
 k-point 49 :   0.1000 0.0000 0.1000  plane waves:    1744
 k-point 50 :   0.1031 0.0000 0.1031  plane waves:    1744
 k-point 51 :   0.1062 0.0000 0.1062  plane waves:    1744
 k-point 52 :   0.1094 0.0000 0.1094  plane waves:    1744
 k-point 53 :   0.1125 0.0000 0.1125  plane waves:    1744
 k-point 54 :   0.1156 0.0000 0.1156  plane waves:    1740
 k-point 55 :   0.1187 0.0000 0.1187  plane waves:    1740
 k-point 56 :   0.1219 0.0000 0.1219  plane waves:    1740
 k-point 57 :   0.1250 0.0000 0.1250  plane waves:    1740
 k-point 58 :   0.1281 0.0000 0.1281  plane waves:    1740
 k-point 59 :   0.1312 0.0000 0.1312  plane waves:    1740
 k-point 60 :   0.1344 0.0000 0.1344  plane waves:    1740
 k-point 61 :   0.1375 0.0000 0.1375  plane waves:    1748
 k-point 62 :   0.1406 0.0000 0.1406  plane waves:    1748
 k-point 63 :   0.1437 0.0000 0.1437  plane waves:    1748
 k-point 64 :   0.1469 0.0000 0.1469  plane waves:    1748
 k-point 65 :   0.1500 0.0000 0.1500  plane waves:    1748
 k-point 66 :   0.1531 0.0000 0.1531  plane waves:    1736
 k-point 67 :   0.1562 0.0000 0.1562  plane waves:    1736
 k-point 68 :   0.1594 0.0000 0.1594  plane waves:    1736
 k-point 69 :   0.1625 0.0000 0.1625  plane waves:    1736
 k-point 70 :   0.1656 0.0000 0.1656  plane waves:    1736
 k-point 71 :   0.1687 0.0000 0.1687  plane waves:    1744
 k-point 72 :   0.1719 0.0000 0.1719  plane waves:    1744
 k-point 73 :   0.1750 0.0000 0.1750  plane waves:    1744
 k-point 74 :   0.1781 0.0000 0.1781  plane waves:    1748
 k-point 75 :   0.1812 0.0000 0.1812  plane waves:    1748
 k-point 76 :   0.1844 0.0000 0.1844  plane waves:    1748
 k-point 77 :   0.1875 0.0000 0.1875  plane waves:    1748
 k-point 78 :   0.1906 0.0000 0.1906  plane waves:    1744
 k-point 79 :   0.1937 0.0000 0.1937  plane waves:    1744
 k-point 80 :   0.1969 0.0000 0.1969  plane waves:    1736
 k-point 81 :   0.2000 0.0000 0.2000  plane waves:    1736
 k-point 82 :   0.2031 0.0000 0.2031  plane waves:    1736
 k-point 83 :   0.2062 0.0000 0.2062  plane waves:    1736
 k-point 84 :   0.2094 0.0000 0.2094  plane waves:    1736
 k-point 85 :   0.2125 0.0000 0.2125  plane waves:    1736
 k-point 86 :   0.2156 0.0000 0.2156  plane waves:    1736
 k-point 87 :   0.2187 0.0000 0.2187  plane waves:    1736
 k-point 88 :   0.2219 0.0000 0.2219  plane waves:    1736
 k-point 89 :   0.2250 0.0000 0.2250  plane waves:    1736
 k-point 90 :   0.2281 0.0000 0.2281  plane waves:    1736
 k-point 91 :   0.2312 0.0000 0.2312  plane waves:    1736
 k-point 92 :   0.2344 0.0000 0.2344  plane waves:    1728
 k-point 93 :   0.2375 0.0000 0.2375  plane waves:    1716
 k-point 94 :   0.2406 0.0000 0.2406  plane waves:    1716
 k-point 95 :   0.2437 0.0000 0.2437  plane waves:    1716
 k-point 96 :   0.2469 0.0000 0.2469  plane waves:    1716
 k-point 97 :   0.2500 0.0000 0.2500  plane waves:    1716
 k-point 98 :   0.2531 0.0000 0.2531  plane waves:    1716
 k-point 99 :   0.2562 0.0000 0.2562  plane waves:    1716
 k-point ** :   0.2594 0.0000 0.2594  plane waves:    1716
 k-point ** :   0.2625 0.0000 0.2625  plane waves:    1720
 k-point ** :   0.2656 0.0000 0.2656  plane waves:    1720
 k-point ** :   0.2687 0.0000 0.2687  plane waves:    1720
 k-point ** :   0.2719 0.0000 0.2719  plane waves:    1724
 k-point ** :   0.2750 0.0000 0.2750  plane waves:    1724
 k-point ** :   0.2781 0.0000 0.2781  plane waves:    1724
 k-point ** :   0.2812 0.0000 0.2812  plane waves:    1724
 k-point ** :   0.2844 0.0000 0.2844  plane waves:    1724
 k-point ** :   0.2875 0.0000 0.2875  plane waves:    1724
 k-point ** :   0.2906 0.0000 0.2906  plane waves:    1728
 k-point ** :   0.2937 0.0000 0.2937  plane waves:    1728
 k-point ** :   0.2969 0.0000 0.2969  plane waves:    1728
 k-point ** :   0.3000 0.0000 0.3000  plane waves:    1720
 k-point ** :   0.3031 0.0000 0.3031  plane waves:    1720
 k-point ** :   0.3062 0.0000 0.3062  plane waves:    1720
 k-point ** :   0.3094 0.0000 0.3094  plane waves:    1720
 k-point ** :   0.3125 0.0000 0.3125  plane waves:    1720
 k-point ** :   0.3156 0.0000 0.3156  plane waves:    1720
 k-point ** :   0.3187 0.0000 0.3187  plane waves:    1728
 k-point ** :   0.3219 0.0000 0.3219  plane waves:    1728
 k-point ** :   0.3250 0.0000 0.3250  plane waves:    1728
 k-point ** :   0.3281 0.0000 0.3281  plane waves:    1728
 k-point ** :   0.3312 0.0000 0.3312  plane waves:    1728
 k-point ** :   0.3344 0.0000 0.3344  plane waves:    1728
 k-point ** :   0.3375 0.0000 0.3375  plane waves:    1728
 k-point ** :   0.3406 0.0000 0.3406  plane waves:    1728
 k-point ** :   0.3437 0.0000 0.3437  plane waves:    1728
 k-point ** :   0.3469 0.0000 0.3469  plane waves:    1728
 k-point ** :   0.3500 0.0000 0.3500  plane waves:    1728
 k-point ** :   0.3531 0.0000 0.3531  plane waves:    1724
 k-point ** :   0.3562 0.0000 0.3562  plane waves:    1724
 k-point ** :   0.3594 0.0000 0.3594  plane waves:    1724
 k-point ** :   0.3625 0.0000 0.3625  plane waves:    1732
 k-point ** :   0.3656 0.0000 0.3656  plane waves:    1732
 k-point ** :   0.3687 0.0000 0.3687  plane waves:    1728
 k-point ** :   0.3719 0.0000 0.3719  plane waves:    1728
 k-point ** :   0.3750 0.0000 0.3750  plane waves:    1728
 k-point ** :   0.3781 0.0000 0.3781  plane waves:    1728
 k-point ** :   0.3812 0.0000 0.3812  plane waves:    1728
 k-point ** :   0.3844 0.0000 0.3844  plane waves:    1728
 k-point ** :   0.3875 0.0000 0.3875  plane waves:    1728
 k-point ** :   0.3906 0.0000 0.3906  plane waves:    1728
 k-point ** :   0.3937 0.0000 0.3937  plane waves:    1728
 k-point ** :   0.3969 0.0000 0.3969  plane waves:    1736
 k-point ** :   0.4000 0.0000 0.4000  plane waves:    1736
 k-point ** :   0.4031 0.0000 0.4031  plane waves:    1728
 k-point ** :   0.4062 0.0000 0.4062  plane waves:    1728
 k-point ** :   0.4094 0.0000 0.4094  plane waves:    1728
 k-point ** :   0.4125 0.0000 0.4125  plane waves:    1728
 k-point ** :   0.4156 0.0000 0.4156  plane waves:    1728
 k-point ** :   0.4187 0.0000 0.4187  plane waves:    1728
 k-point ** :   0.4219 0.0000 0.4219  plane waves:    1728
 k-point ** :   0.4250 0.0000 0.4250  plane waves:    1728
 k-point ** :   0.4281 0.0000 0.4281  plane waves:    1728
 k-point ** :   0.4312 0.0000 0.4312  plane waves:    1728
 k-point ** :   0.4344 0.0000 0.4344  plane waves:    1720
 k-point ** :   0.4375 0.0000 0.4375  plane waves:    1720
 k-point ** :   0.4406 0.0000 0.4406  plane waves:    1724
 k-point ** :   0.4437 0.0000 0.4437  plane waves:    1724
 k-point ** :   0.4469 0.0000 0.4469  plane waves:    1724
 k-point ** :   0.4500 0.0000 0.4500  plane waves:    1732
 k-point ** :   0.4531 0.0000 0.4531  plane waves:    1732
 k-point ** :   0.4562 0.0000 0.4562  plane waves:    1732
 k-point ** :   0.4594 0.0000 0.4594  plane waves:    1732
 k-point ** :   0.4625 0.0000 0.4625  plane waves:    1732
 k-point ** :   0.4656 0.0000 0.4656  plane waves:    1732
 k-point ** :   0.4687 0.0000 0.4687  plane waves:    1732
 k-point ** :   0.4719 0.0000 0.4719  plane waves:    1724
 k-point ** :   0.4750 0.0000 0.4750  plane waves:    1724
 k-point ** :   0.4781 0.0000 0.4781  plane waves:    1724
 k-point ** :   0.4812 0.0000 0.4812  plane waves:    1724
 k-point ** :   0.4844 0.0000 0.4844  plane waves:    1724
 k-point ** :   0.4875 0.0000 0.4875  plane waves:    1724
 k-point ** :   0.4906 0.0000 0.4906  plane waves:    1724
 k-point ** :   0.4937 0.0000 0.4937  plane waves:    1724
 k-point ** :   0.4969 0.0000 0.4969  plane waves:    1724

 maximum and minimum number of plane-waves per node :       303      271

 maximum number of plane-waves:      1775
 maximum index in each direction: 
   IXMAX=    8   IYMAX=    8   IZMAX=    8
   IXMIN=   -8   IYMIN=   -8   IZMIN=   -8

 NGX is ok and might be reduce to  34
 NGY is ok and might be reduce to  34
 NGZ is ok and might be reduce to  34

 parallel 3D FFT for wavefunctions:
    minimum data exchange during FFTs selected (reduces bandwidth)
 parallel 3D FFT for charge:
    minimum data exchange during FFTs selected (reduces bandwidth)


 total amount of memory used by VASP on root node    50805. kBytes
========================================================================

   base      :      30000. kBytes
   nonl-proj :      15216. kBytes
   fftplans  :        768. kBytes
   grid      :       1202. kBytes
   one-center:         15. kBytes
   wavefun   :       3604. kBytes
 
     INWAV:  cpu time    0.0000: real time    0.0003
 initial charge density was supplied:
 number of electron      18.0000000 magnetization 
 keeping initial charge density in first step


--------------------------------------------------------------------------------------------------------


 Maximum index for augmentation-charges         1676 (set IRDMAX)


--------------------------------------------------------------------------------------------------------


 First call to EWALD:  gamma=   0.434
 Maximum number of real-space cells 3x 3x 3
 Maximum number of reciprocal cells 3x 3x 3

 FEWALD executed in parallel
    FEWALD:  cpu time    0.0040: real time    0.0016


----------------------------------------- Iteration    1(   1)  ---------------------------------------


    POTLOK:  cpu time    0.0080: real time    0.0089
    SETDIJ:  cpu time    0.0000: real time    0.0021
     EDDAV:  cpu time    0.2760: real time    0.2760
       DOS:  cpu time    0.0000: real time    0.0019
    --------------------------------------------
      LOOP:  cpu time    0.2920: real time    0.3180

 eigenvalue-minimisations  :  5688
 total energy-change (2. order) : 0.9747822E+02  (-0.8222084E+03)
 number of electron      18.0000000 magnetization 
 augmentation part       18.0000000 magnetization 

 Free energy of the ion-electron system (eV)
  ---------------------------------------------------
  alpha Z        PSCENC =        50.17222034
  Ewald energy   TEWEN  =     -1044.83138452
  -Hartree energ DENC   =      -504.99582460
  -exchange      EXHF   =         0.00000000
  -V(xc)+E(xc)   XCENC  =       -20.59894587
  PAW double counting   =      1708.54112970    -1637.28476310
  entropy T*S    EENTRO =        -0.00059585
  eigenvalues    EBANDS =        30.27096869
  atomic energy  EATOM  =      1516.20541573
  Solvation  Ediel_sol  =         0.00000000
  ---------------------------------------------------
  free energy    TOTEN  =        97.47822052 eV

  energy without entropy =       97.47881637  energy(sigma->0) =       97.47851844


--------------------------------------------------------------------------------------------------------




----------------------------------------- Iteration    1(   2)  ---------------------------------------


     EDDAV:  cpu time    0.2760: real time    0.2773
       DOS:  cpu time    0.0000: real time    0.0008
    --------------------------------------------
      LOOP:  cpu time    0.2800: real time    0.2863

 eigenvalue-minimisations  :  6424
 total energy-change (2. order) :-0.9948794E+02  (-0.9497123E+02)
 number of electron      18.0000000 magnetization 
 augmentation part       18.0000000 magnetization 

 Free energy of the ion-electron system (eV)
  ---------------------------------------------------
  alpha Z        PSCENC =        50.17222034
  Ewald energy   TEWEN  =     -1044.83138452
  -Hartree energ DENC   =      -504.99582460
  -exchange      EXHF   =         0.00000000
  -V(xc)+E(xc)   XCENC  =       -20.59894587
  PAW double counting   =      1708.54112970    -1637.28476310
  entropy T*S    EENTRO =        -0.00000000
  eigenvalues    EBANDS =       -69.21756541
  atomic energy  EATOM  =      1516.20541573
  Solvation  Ediel_sol  =         0.00000000
  ---------------------------------------------------
  free energy    TOTEN  =        -2.00971774 eV

  energy without entropy =       -2.00971774  energy(sigma->0) =       -2.00971774


--------------------------------------------------------------------------------------------------------




----------------------------------------- Iteration    1(   3)  ---------------------------------------


     EDDAV:  cpu time    0.3040: real time    0.3052
       DOS:  cpu time    0.0000: real time    0.0011
    --------------------------------------------
      LOOP:  cpu time    0.3080: real time    0.3139

 eigenvalue-minimisations  :  7104
 total energy-change (2. order) :-0.3454948E+01  (-0.3451042E+01)
 number of electron      18.0000000 magnetization 
 augmentation part       18.0000000 magnetization 

 Free energy of the ion-electron system (eV)
  ---------------------------------------------------
  alpha Z        PSCENC =        50.17222034
  Ewald energy   TEWEN  =     -1044.83138452
  -Hartree energ DENC   =      -504.99582460
  -exchange      EXHF   =         0.00000000
  -V(xc)+E(xc)   XCENC  =       -20.59894587
  PAW double counting   =      1708.54112970    -1637.28476310
  entropy T*S    EENTRO =        -0.00000000
  eigenvalues    EBANDS =       -72.67251357
  atomic energy  EATOM  =      1516.20541573
  Solvation  Ediel_sol  =         0.00000000
  ---------------------------------------------------
  free energy    TOTEN  =        -5.46466589 eV

  energy without entropy =       -5.46466589  energy(sigma->0) =       -5.46466589


--------------------------------------------------------------------------------------------------------




----------------------------------------- Iteration    1(   4)  ---------------------------------------


     EDDAV:  cpu time    0.3560: real time    0.3594
       DOS:  cpu time    0.0000: real time    0.0009
    --------------------------------------------
      LOOP:  cpu time    0.3640: real time    0.3688

 eigenvalue-minimisations  :  8456
 total energy-change (2. order) :-0.2853325E-01  (-0.2853194E-01)
 number of electron      18.0000000 magnetization 
 augmentation part       18.0000000 magnetization 

 Free energy of the ion-electron system (eV)
  ---------------------------------------------------
  alpha Z        PSCENC =        50.17222034
  Ewald energy   TEWEN  =     -1044.83138452
  -Hartree energ DENC   =      -504.99582460
  -exchange      EXHF   =         0.00000000
  -V(xc)+E(xc)   XCENC  =       -20.59894587
  PAW double counting   =      1708.54112970    -1637.28476310
  entropy T*S    EENTRO =        -0.00000000
  eigenvalues    EBANDS =       -72.70104682
  atomic energy  EATOM  =      1516.20541573
  Solvation  Ediel_sol  =         0.00000000
  ---------------------------------------------------
  free energy    TOTEN  =        -5.49319914 eV

  energy without entropy =       -5.49319914  energy(sigma->0) =       -5.49319914


--------------------------------------------------------------------------------------------------------




----------------------------------------- Iteration    1(   5)  ---------------------------------------


     EDDAV:  cpu time    0.3320: real time    0.3320
       DOS:  cpu time    0.0000: real time    0.0011
    --------------------------------------------
      LOOP:  cpu time    0.3320: real time    0.3412

 eigenvalue-minimisations  :  7576
 total energy-change (2. order) :-0.5778701E-04  (-0.5778685E-04)
 number of electron      18.0000000 magnetization 
 augmentation part       18.0000000 magnetization 

 Free energy of the ion-electron system (eV)
  ---------------------------------------------------
  alpha Z        PSCENC =        50.17222034
  Ewald energy   TEWEN  =     -1044.83138452
  -Hartree energ DENC   =      -504.99582460
  -exchange      EXHF   =         0.00000000
  -V(xc)+E(xc)   XCENC  =       -20.59894587
  PAW double counting   =      1708.54112970    -1637.28476310
  entropy T*S    EENTRO =        -0.00000000
  eigenvalues    EBANDS =       -72.70110460
  atomic energy  EATOM  =      1516.20541573
  Solvation  Ediel_sol  =         0.00000000
  ---------------------------------------------------
  free energy    TOTEN  =        -5.49325693 eV

  energy without entropy =       -5.49325693  energy(sigma->0) =       -5.49325693


--------------------------------------------------------------------------------------------------------




----------------------------------------- Iteration    1(   6)  ---------------------------------------


     EDDAV:  cpu time    0.3480: real time    0.3504
       DOS:  cpu time    0.0040: real time    0.0010
    --------------------------------------------
      LOOP:  cpu time    0.3560: real time    0.3598

 eigenvalue-minimisations  :  8200
 total energy-change (2. order) :-0.1046978E-05  (-0.1046939E-05)
 number of electron      18.0000000 magnetization 
 augmentation part       18.0000000 magnetization 

 Free energy of the ion-electron system (eV)
  ---------------------------------------------------
  alpha Z        PSCENC =        50.17222034
  Ewald energy   TEWEN  =     -1044.83138452
  -Hartree energ DENC   =      -504.99582460
  -exchange      EXHF   =         0.00000000
  -V(xc)+E(xc)   XCENC  =       -20.59894587
  PAW double counting   =      1708.54112970    -1637.28476310
  entropy T*S    EENTRO =        -0.00000000
  eigenvalues    EBANDS =       -72.70110565
  atomic energy  EATOM  =      1516.20541573
  Solvation  Ediel_sol  =         0.00000000
  ---------------------------------------------------
  free energy    TOTEN  =        -5.49325797 eV

  energy without entropy =       -5.49325797  energy(sigma->0) =       -5.49325797


--------------------------------------------------------------------------------------------------------




----------------------------------------- Iteration    1(   7)  ---------------------------------------


     EDDAV:  cpu time    0.3040: real time    0.3046
       DOS:  cpu time    0.0040: real time    0.0038
    --------------------------------------------
      LOOP:  cpu time    0.3560: real time    0.3632

 eigenvalue-minimisations  :  6416
 total energy-change (2. order) :-0.1660783E-07  (-0.1663876E-07)
 number of electron      18.0000000 magnetization 
 augmentation part       18.0000000 magnetization 

 Free energy of the ion-electron system (eV)
  ---------------------------------------------------
  alpha Z        PSCENC =        50.17222034
  Ewald energy   TEWEN  =     -1044.83138452
  -Hartree energ DENC   =      -504.99582460
  -exchange      EXHF   =         0.00000000
  -V(xc)+E(xc)   XCENC  =       -20.59894587
  PAW double counting   =      1708.54112970    -1637.28476310
  entropy T*S    EENTRO =        -0.00000000
  eigenvalues    EBANDS =       -72.70110567
  atomic energy  EATOM  =      1516.20541573
  Solvation  Ediel_sol  =         0.00000000
  ---------------------------------------------------
  free energy    TOTEN  =        -5.49325799 eV

  energy without entropy =       -5.49325799  energy(sigma->0) =       -5.49325799


--------------------------------------------------------------------------------------------------------




 the core state eigenenergies are
   1-  1s -26513.5706  2s  -3930.7399  2p  -3525.9966  3s   -727.5628  3p   -594.8522
       3d   -387.3088  4s    -99.6505  4p    -60.6945
   2-  1s -31612.8737  2s  -4840.4554  2p  -4343.8509  3s   -956.6729  3p   -795.3307
       3d   -551.5808  4s   -156.1800  4p   -106.2196  4d    -33.5453
 
 E-fermi :   2.3762     XC(G=0):  -8.7634     alpha+bet : -7.4227


 k-point     1 :       0.0000    0.0000    0.0000
  band No.  band energies     occupation 
      1      -8.9586      2.00000
      2      -5.8303      2.00000
      3      -5.8303      2.00000
      4      -5.8303      2.00000
      5      -5.5525      2.00000
      6      -5.5525      2.00000
      7       2.2607      2.00000
      8       2.2607      2.00000
      9       2.2607      2.00000
     10       2.8942      0.00000
     11       6.7663      0.00000
     12       6.7663      0.00000
     13       6.7663      0.00000
     14       9.5086      0.00000
     15      11.5756      0.00000
     16      11.5756      0.00000

 k-point     2 :       0.1667    0.0000    0.0000
  band No.  band energies     occupation 
      1      -8.8533      2.00000
      2      -5.8105      2.00000
      3      -5.8105      2.00000
      4      -5.7518      2.00000
      5      -5.5538      2.00000
      6      -5.5538      2.00000
      7       0.4766      2.00000
      8       2.0263      2.00000
      9       2.0263      2.00000
     10       4.0146      0.00000
     11       6.8684      0.00000
     12       7.1086      0.00000
     13       7.1086      0.00000
     14      10.5095      0.00000
     15      10.6420      0.00000
     16      10.6420      0.00000

 k-point     3 :       0.3333    0.0000    0.0000
  band No.  band energies     occupation 
      1      -8.6392      2.00000
      2      -5.7764      2.00000
      3      -5.7764      2.00000
      4      -5.5497      2.00000
      5      -5.5497      2.00000
      6      -5.4788      2.00000
      7      -1.3822      2.00000
      8       1.6361      2.00000
      9       1.6361      2.00000
     10       4.0723      0.00000
     11       7.3914      0.00000
     12       7.3914      0.00000
     13       8.3866      0.00000
     14      10.1311      0.00000
     15      11.0519      0.00000
     16      11.0519      0.00000

 k-point     4 :       0.5000    0.0000    0.0000
  band No.  band energies     occupation 
      1      -8.5322      2.00000
      2      -5.7631      2.00000
      3      -5.7631      2.00000
      4      -5.5431      2.00000
      5      -5.5431      2.00000
      6      -5.2234      2.00000
      7      -2.2437      2.00000
      8       1.4671      2.00000
      9       1.4671      2.00000
     10       3.9608      0.00000
     11       7.3528      0.00000
     12       7.3528      0.00000
     13       9.1444      0.00000
     14      10.7397      0.00000
     15      12.4802      0.00000
     16      12.4802      0.00000

 k-point     5 :       0.1667    0.1667    0.0000
  band No.  band energies     occupation 
      1      -8.8185      2.00000
      2      -5.7904      2.00000
      3      -5.7904      2.00000
      4      -5.7552      2.00000
      5      -5.5621      2.00000
      6      -5.5443      2.00000
      7       0.4742      2.00000
      8       1.6385      2.00000
      9       1.6385      2.00000
     10       4.6764      0.00000
     11       5.8402      0.00000
     12       7.7264      0.00000
     13       7.7264      0.00000
     14       9.3083      0.00000
     15      11.2861      0.00000
     16      11.8149      0.00000

 k-point     6 :       0.3333    0.1667    0.0000
  band No.  band energies     occupation 
      1      -8.6412      2.00000
      2      -5.7644      2.00000
      3      -5.7517      2.00000
      4      -5.6152      2.00000
      5      -5.5382      2.00000
      6      -5.4973      2.00000
      7      -0.9174      2.00000
      8       1.1037      2.00000
      9       1.2214      2.00000
     10       5.0379      0.00000
     11       6.1894      0.00000
     12       7.8574      0.00000
     13       8.2937      0.00000
     14      10.0400      0.00000
     15      11.8730      0.00000
     16      11.9461      0.00000

 k-point     7 :       0.5000    0.1667    0.0000
  band No.  band energies     occupation 
      1      -8.5001      2.00000
      2      -5.7487      2.00000
      3      -5.7352      2.00000
      4      -5.5709      2.00000
      5      -5.5400      2.00000
      6      -5.2020      2.00000
      7      -2.0254      2.00000
      8       0.5676      2.00000
      9       1.1382      2.00000
     10       4.9410      0.00000
     11       6.8452      0.00000
     12       8.1087      0.00000
     13       8.7230      0.00000
     14      10.9318      0.00000
     15      12.1261      0.00000
     16      12.5749      0.00000

 k-point     8 :      -0.3333    0.1667    0.0000
  band No.  band energies     occupation 
      1      -8.5350      2.00000
      2      -5.7500      2.00000
      3      -5.7496      2.00000
      4      -5.5566      2.00000
      5      -5.5562      2.00000
      6      -5.2877      2.00000
      7      -1.7543      2.00000
      8       0.4296      2.00000
      9       1.4425      2.00000
     10       4.9981      0.00000
     11       7.0870      0.00000
     12       7.8039      0.00000
     13       8.4941      0.00000
     14      10.6442      0.00000
     15      11.2935      0.00000
     16      12.4761      0.00000

 k-point     9 :      -0.1667    0.1667    0.0000
  band No.  band energies     occupation 
      1      -8.7117      2.00000
      2      -5.7877      2.00000
      3      -5.7729      2.00000
      4      -5.6261      2.00000
      5      -5.5631      2.00000
      6      -5.5328      2.00000
      7      -0.5071      2.00000
      8       0.9732      2.00000
      9       1.9032      2.00000
     10       4.8404      0.00000
     11       6.8399      0.00000
     12       7.3394      0.00000
     13       7.6463      0.00000
     14       9.8857      0.00000
     15      11.1192      0.00000
     16      11.8746      0.00000

 k-point    10 :       0.3333    0.3333    0.0000
  band No.  band energies     occupation 
      1      -8.5370      2.00000
      2      -5.7033      2.00000
      3      -5.7033      2.00000
      4      -5.6575      2.00000
      5      -5.5281      2.00000
      6      -5.3902      2.00000
      7      -1.2650      2.00000
      8       0.7268      2.00000
      9       0.7268      2.00000
     10       4.8697      0.00000
     11       5.2942      0.00000
     12       9.4739      0.00000
     13       9.6832      0.00000
     14       9.6832      0.00000
     15      12.4775      0.00000
     16      14.0846      0.00000

 k-point    11 :       0.5000    0.3333    0.0000
  band No.  band energies     occupation 
      1      -8.4339      2.00000
      2      -5.7038      2.00000
      3      -5.6805      2.00000
      4      -5.6254      2.00000
      5      -5.5292      2.00000
      6      -5.1409      2.00000
      7      -1.9011      2.00000
      8       0.0503      2.00000
      9       0.5911      2.00000
     10       4.9620      0.00000
     11       5.8616      0.00000
     12       9.1269      0.00000
     13       9.8732      0.00000
     14      11.2338      0.00000
     15      12.8833      0.00000
     16      13.6541      0.00000

 k-point    12 :      -0.3333    0.3333    0.0000
  band No.  band energies     occupation 
      1      -8.4341      2.00000
      2      -5.7239      2.00000
      3      -5.7011      2.00000
      4      -5.5829      2.00000
      5      -5.5478      2.00000
      6      -5.0757      2.00000
      7      -1.9435      2.00000
      8      -0.4140      2.00000
      9       0.9068      2.00000
     10       5.1947      0.00000
     11       7.2843      0.00000
     12       9.0190      0.00000
     13       9.1356      0.00000
     14       9.6201      0.00000
     15      11.1764      0.00000
     16      14.3119      0.00000

 k-point    13 :       0.5000    0.5000    0.0000
  band No.  band energies     occupation 
      1      -8.3998      2.00000
      2      -5.6701      2.00000
      3      -5.6555      2.00000
      4      -5.6555      2.00000
      5      -5.5199      2.00000
      6      -5.0954      2.00000
      7      -2.1084      2.00000
      8       0.3530      2.00000
      9       0.3530      2.00000
     10       4.7082      0.00000
     11       4.8283      0.00000
     12      10.9483      0.00000
     13      11.2989      0.00000
     14      11.2989      0.00000
     15      13.0362      0.00000
     16      13.7462      0.00000

 k-point    14 :       0.5000    0.3333    0.1667
  band No.  band energies     occupation 
      1      -8.5020      2.00000
      2      -5.7288      2.00000
      3      -5.7214      2.00000
      4      -5.5992      2.00000
      5      -5.5394      2.00000
      6      -5.2659      2.00000
      7      -1.5814      2.00000
      8       0.1365      2.00000
      9       0.9093      2.00000
     10       5.7564      0.00000
     11       6.2761      0.00000
     12       7.4366      0.00000
     13       9.5780      0.00000
     14      10.3467      0.00000
     15      12.4325      0.00000
     16      13.6123      0.00000

 k-point    15 :      -0.3333    0.3333    0.1667
  band No.  band energies     occupation 
      1      -8.4341      2.00000
      2      -5.7210      2.00000
      3      -5.7055      2.00000
      4      -5.5795      2.00000
      5      -5.5500      2.00000
      6      -5.0746      2.00000
      7      -1.9821      2.00000
      8      -0.1831      2.00000
      9       0.6198      2.00000
     10       5.8864      0.00000
     11       6.7585      0.00000
     12       7.9100      0.00000
     13       9.4210      0.00000
     14      10.1234      0.00000
     15      12.6231      0.00000
     16      13.4044      0.00000

 k-point    16 :      -0.3333    0.5000    0.1667
  band No.  band energies     occupation 
      1      -8.4010      2.00000
      2      -5.6927      2.00000
      3      -5.6888      2.00000
      4      -5.6047      2.00000
      5      -5.5394      2.00000
      6      -5.0284      2.00000
      7      -2.0233      2.00000
      8      -0.0021      2.00000
      9       0.0814      2.00000
     10       5.8936      0.00000
     11       5.9108      0.00000
     12       8.8342      0.00000
     13       9.1101      0.00000
     14      11.7471      0.00000
     15      13.2782      0.00000
     16      13.4993      0.00000

 k-point    17 :       0.0000    0.0000    0.0000
  band No.  band energies     occupation 
      1      -8.9586      2.00000
      2      -5.8303      2.00000
      3      -5.8303      2.00000
      4      -5.8303      2.00000
      5      -5.5525      2.00000
      6      -5.5525      2.00000
      7       2.2607      2.00000
      8       2.2607      2.00000
      9       2.2607      2.00000
     10       2.8942      0.00000
     11       6.7663      0.00000
     12       6.7663      0.00000
     13       6.7663      0.00000
     14       9.5086      0.00000
     15      11.5756      0.00000
     16      11.5756      0.00000

 k-point    18 :       0.0031    0.0000    0.0031
  band No.  band energies     occupation 
      1      -8.9586      2.00000
      2      -5.8303      2.00000
      3      -5.8303      2.00000
      4      -5.8302      2.00000
      5      -5.5525      2.00000
      6      -5.5525      2.00000
      7       2.2581      2.00000
      8       2.2604      2.00000
      9       2.2604      2.00000
     10       2.8969      0.00000
     11       6.7657      0.00000
     12       6.7667      0.00000
     13       6.7667      0.00000
     14       9.5095      0.00000
     15      11.5713      0.00000
     16      11.5757      0.00000

 k-point    19 :       0.0063    0.0000    0.0063
  band No.  band energies     occupation 
      1      -8.9584      2.00000
      2      -5.8302      2.00000
      3      -5.8302      2.00000
      4      -5.8302      2.00000
      5      -5.5525      2.00000
      6      -5.5525      2.00000
      7       2.2504      2.00000
      8       2.2596      2.00000
      9       2.2596      2.00000
     10       2.9047      0.00000
     11       6.7640      0.00000
     12       6.7679      0.00000
     13       6.7679      0.00000
     14       9.5120      0.00000
     15      11.5587      0.00000
     16      11.5759      0.00000

 k-point    20 :       0.0094    0.0000    0.0094
  band No.  band energies     occupation 
      1      -8.9582      2.00000
      2      -5.8301      2.00000
      3      -5.8301      2.00000
      4      -5.8300      2.00000
      5      -5.5525      2.00000
      6      -5.5525      2.00000
      7       2.2380      2.00000
      8       2.2582      2.00000
      9       2.2582      2.00000
     10       2.9173      0.00000
     11       6.7611      0.00000
     12       6.7699      0.00000
     13       6.7699      0.00000
     14       9.5162      0.00000
     15      11.5387      0.00000
     16      11.5764      0.00000

 k-point    21 :       0.0125    0.0000    0.0125
  band No.  band energies     occupation 
      1      -8.9578      2.00000
      2      -5.8300      2.00000
      3      -5.8300      2.00000
      4      -5.8299      2.00000
      5      -5.5526      2.00000
      6      -5.5524      2.00000
      7       2.2213      2.00000
      8       2.2562      2.00000
      9       2.2562      2.00000
     10       2.9342      0.00000
     11       6.7572      0.00000
     12       6.7727      0.00000
     13       6.7727      0.00000
     14       9.5221      0.00000
     15      11.5124      0.00000
     16      11.5769      0.00000

 k-point    22 :       0.0156    0.0000    0.0156
  band No.  band energies     occupation 
      1      -8.9573      2.00000
      2      -5.8299      2.00000
      3      -5.8299      2.00000
      4      -5.8296      2.00000
      5      -5.5526      2.00000
      6      -5.5524      2.00000
      7       2.2010      2.00000
      8       2.2537      2.00000
      9       2.2537      2.00000
     10       2.9549      0.00000
     11       6.7521      0.00000
     12       6.7762      0.00000
     13       6.7762      0.00000
     14       9.5296      0.00000
     15      11.4810      0.00000
     16      11.5777      0.00000

 k-point    23 :       0.0187    0.0000    0.0187
  band No.  band energies     occupation 
      1      -8.9567      2.00000
      2      -5.8297      2.00000
      3      -5.8297      2.00000
      4      -5.8294      2.00000
      5      -5.5527      2.00000
      6      -5.5524      2.00000
      7       2.1776      2.00000
      8       2.2506      2.00000
      9       2.2506      2.00000
     10       2.9787      0.00000
     11       6.7459      0.00000
     12       6.7806      0.00000
     13       6.7806      0.00000
     14       9.5387      0.00000
     15      11.4455      0.00000
     16      11.5786      0.00000

[...]
      1      -8.4130      2.00000
      2      -5.6684      2.00000
      3      -5.6603      2.00000
      4      -5.6603      2.00000
      5      -5.5207      2.00000
      6      -5.1331      2.00000
      7      -2.0202      2.00000
      8       0.3880      2.00000
      9       0.3880      2.00000
     10       4.7007      0.00000
     11       4.9001      0.00000
     12      10.7358      0.00000
     13      11.0565      0.00000
     14      11.0565      0.00000
     15      12.9658      0.00000
     16      14.0303      0.00000

 k-point   162 :       0.4531    0.0000    0.4531
  band No.  band energies     occupation 
      1      -8.4114      2.00000
      2      -5.6686      2.00000
      3      -5.6597      2.00000
      4      -5.6597      2.00000
      5      -5.5206      2.00000
      6      -5.1287      2.00000
      7      -2.0307      2.00000
      8       0.3838      2.00000
      9       0.3838      2.00000
     10       4.7007      0.00000
     11       4.8925      0.00000
     12      10.7599      0.00000
     13      11.0833      0.00000
     14      11.0833      0.00000
     15      12.9740      0.00000
     16      13.9983      0.00000

 k-point   163 :       0.4562    0.0000    0.4562
  band No.  band energies     occupation 
      1      -8.4099      2.00000
      2      -5.6688      2.00000
      3      -5.6592      2.00000
      4      -5.6592      2.00000
      5      -5.5205      2.00000
      6      -5.1245      2.00000
      7      -2.0406      2.00000
      8       0.3798      2.00000
      9       0.3798      2.00000
     10       4.7008      0.00000
     11       4.8851      0.00000
     12      10.7829      0.00000
     13      11.1090      0.00000
     14      11.1090      0.00000
     15      12.9817      0.00000
     16      13.9680      0.00000

 k-point   164 :       0.4594    0.0000    0.4594
  band No.  band energies     occupation 
      1      -8.4085      2.00000
      2      -5.6690      2.00000
      3      -5.6587      2.00000
      4      -5.6587      2.00000
      5      -5.5204      2.00000
      6      -5.1206      2.00000
      7      -2.0498      2.00000
      8       0.3761      2.00000
      9       0.3761      2.00000
     10       4.7010      0.00000
     11       4.8781      0.00000
     12      10.8046      0.00000
     13      11.1333      0.00000
     14      11.1333      0.00000
     15      12.9890      0.00000
     16      13.9393      0.00000

 k-point   165 :       0.4625    0.0000    0.4625
  band No.  band energies     occupation 
      1      -8.4073      2.00000
      2      -5.6692      2.00000
      3      -5.6582      2.00000
      4      -5.6582      2.00000
      5      -5.5203      2.00000
      6      -5.1170      2.00000
      7      -2.0584      2.00000
      8       0.3727      2.00000
      9       0.3727      2.00000
     10       4.7014      0.00000
     11       4.8714      0.00000
     12      10.8250      0.00000
     13      11.1564      0.00000
     14      11.1564      0.00000
     15      12.9958      0.00000
     16      13.9123      0.00000

 k-point   166 :       0.4656    0.0000    0.4656
  band No.  band energies     occupation 
      1      -8.4061      2.00000
      2      -5.6693      2.00000
      3      -5.6578      2.00000
      4      -5.6578      2.00000
      5      -5.5203      2.00000
      6      -5.1136      2.00000
      7      -2.0663      2.00000
      8       0.3695      2.00000
      9       0.3695      2.00000
     10       4.7020      0.00000
     11       4.8651      0.00000
     12      10.8440      0.00000
     13      11.1779      0.00000
     14      11.1779      0.00000
     15      13.0021      0.00000
     16      13.8868      0.00000

 k-point   167 :       0.4687    0.0000    0.4687
  band No.  band energies     occupation 
      1      -8.4050      2.00000
      2      -5.6695      2.00000
      3      -5.6574      2.00000
      4      -5.6574      2.00000
      5      -5.5202      2.00000
      6      -5.1105      2.00000
      7      -2.0735      2.00000
      8       0.3667      2.00000
      9       0.3667      2.00000
     10       4.7026      0.00000
     11       4.8592      0.00000
     12      10.8615      0.00000
     13      11.1980      0.00000
     14      11.1980      0.00000
     15      13.0079      0.00000
     16      13.8633      0.00000

 k-point   168 :       0.4719    0.0000    0.4719
  band No.  band energies     occupation 
      1      -8.4040      2.00000
      2      -5.6696      2.00000
      3      -5.6570      2.00000
      4      -5.6570      2.00000
      5      -5.5201      2.00000
      6      -5.1077      2.00000
      7      -2.0801      2.00000
      8       0.3641      2.00000
      9       0.3641      2.00000
     10       4.7033      0.00000
     11       4.8537      0.00000
     12      10.8776      0.00000
     13      11.2165      0.00000
     14      11.2165      0.00000
     15      13.0132      0.00000
     16      13.8418      0.00000

 k-point   169 :       0.4750    0.0000    0.4750
  band No.  band energies     occupation 
      1      -8.4031      2.00000
      2      -5.6697      2.00000
      3      -5.6567      2.00000
      4      -5.6567      2.00000
      5      -5.5201      2.00000
      6      -5.1051      2.00000
      7      -2.0860      2.00000
      8       0.3617      2.00000
      9       0.3617      2.00000
     10       4.7040      0.00000
     11       4.8487      0.00000
     12      10.8922      0.00000
     13      11.2333      0.00000
     14      11.2333      0.00000
     15      13.0180      0.00000
     16      13.8222      0.00000

 k-point   170 :       0.4781    0.0000    0.4781
  band No.  band energies     occupation 
      1      -8.4023      2.00000
      2      -5.6698      2.00000
      3      -5.6564      2.00000
      4      -5.6564      2.00000
      5      -5.5200      2.00000
      6      -5.1029      2.00000
      7      -2.0912      2.00000
      8       0.3597      2.00000
      9       0.3597      2.00000
     10       4.7048      0.00000
     11       4.8441      0.00000
     12      10.9051      0.00000
     13      11.2483      0.00000
     14      11.2483      0.00000
     15      13.0222      0.00000
     16      13.8048      0.00000

 k-point   171 :       0.4812    0.0000    0.4812
  band No.  band energies     occupation 
      1      -8.4017      2.00000
      2      -5.6699      2.00000
      3      -5.6562      2.00000
      4      -5.6562      2.00000
      5      -5.5200      2.00000
      6      -5.1009      2.00000
      7      -2.0958      2.00000
      8       0.3579      2.00000
      9       0.3579      2.00000
     10       4.7055      0.00000
     11       4.8401      0.00000
     12      10.9164      0.00000
     13      11.2615      0.00000
     14      11.2615      0.00000
     15      13.0259      0.00000
     16      13.7894      0.00000

 k-point   172 :       0.4844    0.0000    0.4844
  band No.  band energies     occupation 
      1      -8.4011      2.00000
      2      -5.6700      2.00000
      3      -5.6559      2.00000
      4      -5.6559      2.00000
      5      -5.5200      2.00000
      6      -5.0992      2.00000
      7      -2.0996      2.00000
      8       0.3564      2.00000
      9       0.3564      2.00000
     10       4.7063      0.00000
     11       4.8365      0.00000
     12      10.9261      0.00000
     13      11.2728      0.00000
     14      11.2728      0.00000
     15      13.0291      0.00000
     16      13.7763      0.00000

 k-point   173 :       0.4875    0.0000    0.4875
  band No.  band energies     occupation 
      1      -8.4006      2.00000
      2      -5.6700      2.00000
      3      -5.6558      2.00000
      4      -5.6558      2.00000
      5      -5.5199      2.00000
      6      -5.0978      2.00000
      7      -2.1028      2.00000
      8       0.3552      2.00000
      9       0.3552      2.00000
     10       4.7069      0.00000
     11       4.8336      0.00000
     12      10.9340      0.00000
     13      11.2821      0.00000
     14      11.2821      0.00000
     15      13.0316      0.00000
     16      13.7656      0.00000

 k-point   174 :       0.4906    0.0000    0.4906
  band No.  band energies     occupation 
      1      -8.4003      2.00000
      2      -5.6701      2.00000
      3      -5.6556      2.00000
      4      -5.6556      2.00000
      5      -5.5199      2.00000
      6      -5.0968      2.00000
      7      -2.1052      2.00000
      8       0.3542      2.00000
      9       0.3542      2.00000
     10       4.7074      0.00000
     11       4.8313      0.00000
     12      10.9402      0.00000
     13      11.2895      0.00000
     14      11.2895      0.00000
     15      13.0336      0.00000
     16      13.7571      0.00000

 k-point   175 :       0.4937    0.0000    0.4937
  band No.  band energies     occupation 
      1      -8.4000      2.00000
      2      -5.6701      2.00000
      3      -5.6555      2.00000
      4      -5.6555      2.00000
      5      -5.5199      2.00000
      6      -5.0960      2.00000
      7      -2.1070      2.00000
      8       0.3535      2.00000
      9       0.3535      2.00000
     10       4.7078      0.00000
     11       4.8296      0.00000
     12      10.9447      0.00000
     13      11.2947      0.00000
     14      11.2947      0.00000
     15      13.0351      0.00000
     16      13.7511      0.00000

 k-point   176 :       0.4969    0.0000    0.4969
  band No.  band energies     occupation 
      1      -8.3998      2.00000
      2      -5.6701      2.00000
      3      -5.6555      2.00000
      4      -5.6555      2.00000
      5      -5.5199      2.00000
      6      -5.0955      2.00000
      7      -2.1080      2.00000
      8       0.3531      2.00000
      9       0.3531      2.00000
     10       4.7081      0.00000
     11       4.8286      0.00000
     12      10.9474      0.00000
     13      11.2979      0.00000
     14      11.2979      0.00000
     15      13.0359      0.00000
     16      13.7474      0.00000


--------------------------------------------------------------------------------------------------------


 soft charge-density along one line, spin component           1
         0         1         2         3         4         5         6         7         8         9
 total charge-density along one line
 
 pseudopotential strength for first ion, spin component:           1
-17.748   0.000   0.000   0.000   0.000 -17.795   0.000   0.000
  0.000 -17.748   0.000  -0.000  -0.000   0.000 -17.795   0.000
  0.000   0.000 -17.747   0.000  -0.000   0.000   0.000 -17.794
  0.000  -0.000   0.000 -17.748   0.000   0.000  -0.000   0.000
  0.000  -0.000  -0.000   0.000 -17.747   0.000  -0.000  -0.000
-17.795   0.000   0.000   0.000   0.000 -17.822   0.000   0.000
  0.000 -17.795   0.000  -0.000  -0.000   0.000 -17.822   0.000
  0.000   0.000 -17.794   0.000  -0.000   0.000   0.000 -17.821
  0.000  -0.000   0.000 -17.795   0.000   0.000  -0.000   0.000
  0.000  -0.000  -0.000   0.000 -17.794   0.000  -0.000  -0.000
  0.000  -0.000  -0.000  -0.000  -0.000   0.000  -0.000  -0.000
  0.000  -0.000  -0.000  -0.000  -0.000   0.000  -0.000  -0.000
 -0.000   0.000  -0.000  -0.001  -0.000  -0.000   0.000  -0.000
 -0.001  -0.000  -0.000  -0.000  -0.000  -0.001  -0.000  -0.000
 -0.000  -0.001  -0.000   0.000   0.000  -0.000  -0.001  -0.000
 -0.000   0.000  -0.000  -0.001  -0.000  -0.000   0.000  -0.000
 -0.001  -0.000  -0.000  -0.000  -0.000  -0.001  -0.000  -0.000
 -0.000  -0.001  -0.000   0.000   0.000  -0.000  -0.001  -0.000
 total augmentation occupancy for first ion, spin component:           1
  2.000   0.000   0.000   0.000   0.000   0.000   0.000   0.000   0.000   0.000   0.000   0.000   0.000   0.000   0.000   0.000
  0.000   2.000   0.000   0.000   0.000   0.000   0.000   0.000   0.000   0.000   0.000   0.000   0.000   0.000   0.000   0.000
  0.000   0.000   2.000   0.000   0.000   0.000   0.000   0.000   0.000   0.000   0.000   0.000   0.000   0.000   0.000   0.000
  0.000   0.000   0.000   2.000   0.000   0.000   0.000   0.000   0.000   0.000   0.000   0.000   0.000   0.000   0.000   0.000
  0.000   0.000   0.000   0.000   2.000   0.000   0.000   0.000   0.000   0.000   0.000   0.000   0.000   0.000   0.000   0.000
  0.000   0.000   0.000   0.000   0.000   0.000   0.000   0.000   0.000   0.000   0.000   0.000   0.000   0.000   0.000   0.000
  0.000   0.000   0.000   0.000   0.000   0.000   0.000   0.000   0.000   0.000   0.000   0.000   0.000   0.000   0.000   0.000
  0.000   0.000   0.000   0.000   0.000   0.000   0.000   0.000   0.000   0.000   0.000   0.000   0.000   0.000   0.000   0.000
  0.000   0.000   0.000   0.000   0.000   0.000   0.000   0.000   0.000   0.000   0.000   0.000   0.000   0.000   0.000   0.000
  0.000   0.000   0.000   0.000   0.000   0.000   0.000   0.000   0.000   0.000   0.000   0.000   0.000   0.000   0.000   0.000
  0.000   0.000   0.000   0.000   0.000   0.000   0.000   0.000   0.000   0.000   2.000   0.000   0.000   0.000   0.000   0.000
  0.000   0.000   0.000   0.000   0.000   0.000   0.000   0.000   0.000   0.000   0.000   0.000   0.000   0.000   0.000   0.000
  0.000   0.000   0.000   0.000   0.000   0.000   0.000   0.000   0.000   0.000   0.000   0.000   0.000   0.000   0.000   0.000
  0.000   0.000   0.000   0.000   0.000   0.000   0.000   0.000   0.000   0.000   0.000   0.000   0.000   0.000   0.000   0.000
  0.000   0.000   0.000   0.000   0.000   0.000   0.000   0.000   0.000   0.000   0.000   0.000   0.000   0.000   0.000   0.000
  0.000   0.000   0.000   0.000   0.000   0.000   0.000   0.000   0.000   0.000   0.000   0.000   0.000   0.000   0.000   0.000
  0.000   0.000   0.000   0.000   0.000   0.000   0.000   0.000   0.000   0.000   0.000   0.000   0.000   0.000   0.000   0.000
  0.000   0.000   0.000   0.000   0.000   0.000   0.000   0.000   0.000   0.000   0.000   0.000   0.000   0.000   0.000   0.000


------------------------ aborting loop because EDIFF is reached ----------------------------------------


 


 total charge     
 
# of ion     s       p       d       tot
----------------------------------------
  1        0.473   0.320   9.522  10.315
  2        1.351   2.041   0.022   3.414
------------------------------------------------
tot        1.824   2.361   9.544  13.729
 
    CHARGE:  cpu time    0.0120: real time    0.0093
    FORLOC:  cpu time    0.0000: real time    0.0006
    FORNL :  cpu time    0.0200: real time    0.0223
    STRESS:  cpu time    0.2440: real time    0.2426
    FORCOR:  cpu time    0.0080: real time    0.0092
    FORHAR:  cpu time    0.0040: real time    0.0021
    OFIELD:  cpu time    0.0000: real time    0.0001

  FORCE on cell =-STRESS in cart. coord.  units (eV):
  Direction    XX          YY          ZZ          XY          YZ          ZX
  --------------------------------------------------------------------------------------
  Alpha Z    50.17222    50.17222    50.17222
  Ewald    -348.27726  -348.27726  -348.27726     0.00000     0.00000     0.00000
  Hartree   166.39054   166.39054   166.39054     0.00000    -0.00000    -0.00000
  E(xc)     -86.51613   -86.51613   -86.51613    -0.00000     0.00000     0.00000
  Local     -18.13000   -18.13000   -18.13000     0.00001    -0.00001    -0.00001
  n-local    21.77380    27.04899    26.17482    -1.74284    -3.04445    -1.13548
  augment     5.57736     5.57736     5.57736    -0.00001     0.00001     0.00001
  Kinetic   200.21809   203.72155   203.96489    -1.61817    -3.08908    -1.23070
  Fock        0.00000     0.00000     0.00000     0.00000     0.00000     0.00000
  -------------------------------------------------------------------------------------
  Total      -3.14923    -3.14923    -3.14923    -0.00000    -0.00000     0.00000
  in kB     -74.08111   -74.08111   -74.08111    -0.00000    -0.00000     0.00000
  external pressure =      -74.08 kB  Pullay stress =        0.00 kB


 VOLUME and BASIS-vectors are now :
 -----------------------------------------------------------------------------
  energy-cutoff  :      500.00
  volume of cell :       68.11
      direct lattice vectors                 reciprocal lattice vectors
     3.241350000  3.241350000  0.000000000     0.154256714  0.154256714  0.154256714
     3.241350000  0.000000000 -3.241350000     0.154256714 -0.154256714 -0.154256714
     0.000000000  3.241350000 -3.241350000    -0.154256714  0.154256714 -0.154256714

  length of vectors
     4.583961130  4.583961130  4.583961130     0.267180466  0.267180466  0.267180466


 FORCES acting on ions
    electron-ion (+dipol)            ewald-force                    non-local-force                 convergence-correction
 -----------------------------------------------------------------------------------------------
   -.322E-06 -.323E-06 0.323E-06   -.744E-14 -.454E-14 0.998E-14   0.347E-17 0.347E-17 0.104E-16   0.552E-06 0.552E-06 0.550E-06
   0.157E-06 0.163E-06 -.163E-06   0.759E-14 0.606E-14 -.102E-13   0.137E-15 0.167E-15 -.153E-15   0.131E-06 0.131E-06 0.131E-06
 -----------------------------------------------------------------------------------------------
   -.165E-06 -.160E-06 0.160E-06   0.152E-15 0.152E-14 -.238E-15   0.141E-15 0.170E-15 -.142E-15   0.683E-06 0.683E-06 0.680E-06
 
 
 POSITION                                       TOTAL-FORCE (eV/Angst)
 -----------------------------------------------------------------------------------
      0.00000      0.00000      0.00000        -0.000000     -0.000000      0.000000
      1.62068      1.62068     -1.62068         0.000000      0.000000     -0.000000
 -----------------------------------------------------------------------------------
    total drift:                                0.000001      0.000001      0.000001


--------------------------------------------------------------------------------------------------------



  FREE ENERGIE OF THE ION-ELECTRON SYSTEM (eV)
  ---------------------------------------------------
  free  energy   TOTEN  =        -5.49325799 eV

  energy  without entropy=       -5.49325799  energy(sigma->0) =       -5.49325799
 


--------------------------------------------------------------------------------------------------------


    POTLOK:  cpu time    0.0160: real time    0.0123


--------------------------------------------------------------------------------------------------------




--------------------------------------------------------------------------------------------------------


 writing wavefunctions
     LOOP+:  cpu time    3.8842: real time    6.1068
    4ORBIT:  cpu time    0.0000: real time    0.0000
 


 total charge     
 
# of ion     s       p       d       tot
----------------------------------------
  1        0.473   0.320   9.522  10.315
  2        1.351   2.041   0.022   3.414
------------------------------------------------
tot        1.824   2.361   9.544  13.729
 

 total amount of memory used by VASP on root node    50805. kBytes
========================================================================

   base      :      30000. kBytes
   nonl-proj :      15216. kBytes
   fftplans  :        768. kBytes
   grid      :       1202. kBytes
   one-center:         15. kBytes
   wavefun   :       3604. kBytes
 
  
  
 General timing and accounting informations for this job:
 ========================================================
  
                  Total CPU time used (sec):        7.544
                            User time (sec):        5.264
                          System time (sec):        2.280
                         Elapsed time (sec):       10.673
  
                   Maximum memory used (kb):       45400.
                   Average memory used (kb):           0.
  
                          Minor page faults:        11760
                          Major page faults:            0
                 Voluntary context switches:         1011
