Name                                    
   5.65360000000000     
     0.500000    0.500000    0.000000
     0.500000    0.000000   -0.500000
     0.000000    0.500000   -0.500000
   Ga   As
     1     1
Direct
  0.000000  0.000000  0.000000
  0.250000  0.250000  0.250000
 
   60   60   60
 0.74921517358E+03 0.73671255639E+03 0.70035570900E+03 0.64341976633E+03 0.57081326218E+03
 0.48838974167E+03 0.40221334775E+03 0.31791720452E+03 0.24023724056E+03 0.17273121508E+03
 0.11763985978E+03 0.75839281464E+02 0.46866347722E+02 0.29040163043E+02 0.19715838979E+02
 0.15678534999E+02 0.13699322301E+02 0.12222883426E+02 0.11110533365E+02 0.10265740933E+02
 0.96085076780E+01 0.90838109786E+01 0.86580119440E+01 0.83114486287E+01 0.80318376539E+01
 0.78101348295E+01 0.76387869087E+01 0.75115054462E+01 0.74235503994E+01 0.73718470550E+01
 0.73547758469E+01 0.73718470550E+01 0.74235503994E+01 0.75115054462E+01 0.76387869087E+01
 0.78101348295E+01 0.80318376539E+01 0.83114486287E+01 0.86580119440E+01 0.90838109786E+01
 0.96085076780E+01 0.10265740933E+02 0.11110533365E+02 0.12222883426E+02 0.13699322301E+02
 0.15678534999E+02 0.19715838979E+02 0.29040163043E+02 0.46866347722E+02 0.75839281464E+02
 0.11763985978E+03 0.17273121508E+03 0.24023724056E+03 0.31791720452E+03 0.40221334775E+03
 0.48838974167E+03 0.57081326218E+03 0.64341976633E+03 0.70035570900E+03 0.73671255639E+03
 0.73671255639E+03 0.71222976710E+03 0.66551038343E+03 0.60070204070E+03 0.52324687769E+03
 0.43915198083E+03 0.35428879744E+03 0.27383624603E+03 0.20191325146E+03 0.14137949494E+03
 0.93751414803E+02 0.59195220097E+02 0.36599960009E+02 0.23763783695E+02 0.17718962018E+02
 0.15178149056E+02 0.13543459295E+02 0.12311040767E+02 0.11385877178E+02 0.10678434967E+02
 0.10122240117E+02 0.96748199425E+01 0.93112812520E+01 0.90169160882E+01 0.87817818908E+01
 0.85978939170E+01 0.84584453653E+01 0.83580112399E+01 0.82928243024E+01 0.82607019913E+01
 0.82607019913E+01 0.82928243024E+01 0.83580112399E+01 0.84584453653E+01 0.85978939170E+01
 0.87817818908E+01 0.90169160882E+01 0.93112812520E+01 0.96748199425E+01 0.10122240117E+02
 0.10678434967E+02 0.11385877178E+02 0.12311040767E+02 0.13543459295E+02 0.15178149056E+02
 0.17718962018E+02 0.23763783695E+02 0.36599960009E+02 0.59195220097E+02 0.93751414803E+02
 0.14137949494E+03 0.20191325146E+03 0.27383624603E+03 0.35428879744E+03 0.43915198083E+03
 0.52324687769E+03 0.60070204070E+03 0.66551038343E+03 0.71222976710E+03 0.73671255639E+03
 0.70035570900E+03 0.66551038343E+03 0.61097331950E+03 0.54148827325E+03 0.46270672506E+03
 0.38047545332E+03 0.30021447706E+03 0.22646453227E+03 0.16261351481E+03 0.11076177905E+03
 0.71679417091E+02 0.44839165353E+02 0.28545823302E+02 0.20193467628E+02 0.16654013661E+02
 0.14859136656E+02 0.13518027302E+02 0.12518785565E+02 0.11767322540E+02 0.11187249203E+02
 0.10726893997E+02 0.10355197736E+02 0.10054257620E+02 0.98128687302E+01 0.96225982319E+01
 0.94762628625E+01 0.93678824118E+01 0.92930509628E+01 0.92490387587E+01 0.92344968178E+01
 0.92490387587E+01 0.92930509628E+01 0.93678824118E+01 0.94762628625E+01 0.96225982319E+01
 0.98128687302E+01 0.10054257620E+02 0.10355197736E+02 0.10726893997E+02 0.11187249203E+02
 0.11767322540E+02 0.12518785565E+02 0.13518027302E+02 0.14859136656E+02 0.16654013661E+02
 0.20193467628E+02 0.28545823302E+02 0.44839165353E+02 0.71679417091E+02 0.11076177905E+03
 0.16261351481E+03 0.22646453227E+03 0.30021447706E+03 0.38047545332E+03 0.46270672506E+03
 0.54148827325E+03 0.61097331950E+03 0.66551038343E+03 0.70035570900E+03 0.71234198133E+03
 0.64341976633E+03 0.60070204070E+03 0.54148827325E+03 0.47080029040E+03 0.39418306348E+03
 0.31705784563E+03 0.24420343745E+03 0.17940659125E+03 0.12526461510E+03 0.83097766207E+02
 0.52943103026E+02 0.33635579329E+02 0.23003893766E+02 0.18196877542E+02 0.16122373948E+02
 0.14694081853E+02 0.13633564373E+02 0.12848040272E+02 0.12254082080E+02 0.11791426820E+02
 0.11422372786E+02 0.11125140383E+02 0.10886807169E+02 0.10698354635E+02 0.10552294536E+02
 0.10442208566E+02 0.10363115240E+02 0.10311753025E+02 0.10286402903E+02 0.10286402903E+02
 0.10311753025E+02 0.10363115240E+02 0.10442208566E+02 0.10552294536E+02 0.10698354635E+02
 0.10886807169E+02 0.11125140383E+02 0.11422372786E+02 0.11791426820E+02 0.12254082080E+02
 0.12848040272E+02 0.13633564373E+02 0.14694081853E+02 0.16122373948E+02 0.18196877542E+02
 0.23003893766E+02 0.33635579329E+02 0.52943103026E+02 0.83097766207E+02 0.12526461510E+03
 0.17940659125E+03 0.24420343745E+03 0.31705784563E+03 0.39418306348E+03 0.47080029040E+03
 0.54148827325E+03 0.60070204070E+03 0.64341976633E+03 0.66581478273E+03 0.66581478273E+03
 0.57081326218E+03 0.52324687769E+03 0.46270672506E+03 0.39418306348E+03 0.32284857516E+03
 0.25350613597E+03 0.19017615658E+03 0.13583344245E+03 0.92266200529E+02 0.60027004500E+02
 0.38469696989E+02 0.25891016796E+02 0.19796472057E+02 0.17281383639E+02 0.15796292121E+02
 0.14694209567E+02 0.13888916124E+02 0.13293688776E+02 0.12841251134E+02 0.12487407256E+02
 0.12206068163E+02 0.11982140867E+02 0.11805784015E+02 0.11669180376E+02 0.11565540866E+02
 0.11489352402E+02 0.11436815866E+02 0.11405844850E+02 0.11395587522E+02 0.11405844850E+02
 0.11436815866E+02 0.11489352402E+02 0.11565540866E+02 0.11669180376E+02 0.11805784015E+02
 0.11982140867E+02 0.12206068163E+02 0.12487407256E+02 0.12841251134E+02 0.13293688776E+02
 0.13888916124E+02 0.14694209567E+02 0.15796292121E+02 0.17281383639E+02 0.19796472057E+02
 0.25891016796E+02 0.38469696989E+02 0.60027004500E+02 0.92266200529E+02 0.13583344245E+03
 0.19017615658E+03 0.25350613597E+03 0.32284857516E+03 0.39418306348E+03 0.46270672506E+03
 0.52324687769E+03 0.57081326218E+03 0.60122330068E+03 0.61168681863E+03 0.60122330068E+03
 0.48838974167E+03 0.43915198083E+03 0.38047545332E+03 0.31705784563E+03 0.25350613597E+03
 0.19388616753E+03 0.14140248957E+03 0.98201581305E+02 0.65275693307E+02 0.42456208153E+02
 0.28506417913E+02 0.21331249378E+02 0.18303692591E+02 0.16779204113E+02 0.15661456386E+02
 0.14855003773E+02 0.14273751081E+02 0.13845737897E+02 0.13521095625E+02 0.13269370321E+02
 0.13072953633E+02 0.12920894854E+02 0.12804927570E+02 0.12717883341E+02 0.12653715706E+02
 0.12608040653E+02 0.12578349254E+02 0.12563623304E+02 0.12563623304E+02 0.12578349254E+02
 0.12608040653E+02 0.12653715706E+02 0.12717883341E+02 0.12804927570E+02 0.12920894854E+02
 0.13072953633E+02 0.13269370321E+02 0.13521095625E+02 0.13845737897E+02 0.14273751081E+02
 0.14855003773E+02 0.15661456386E+02 0.16779204113E+02 0.18303692591E+02 0.21331249378E+02
 0.28506417913E+02 0.42456208153E+02 0.65275693307E+02 0.98201581305E+02 0.14140248957E+03
 0.19388616753E+03 0.25350613597E+03 0.31705784563E+03 0.38047545332E+03 0.43915198083E+03
 0.48838974167E+03 0.52394679353E+03 0.54259763047E+03 0.54259763047E+03 0.52394679353E+03
 0.40221334775E+03 0.35428879744E+03 0.30021447706E+03 0.24420343745E+03 0.19017615658E+03
 0.14140248957E+03 0.10025547129E+03 0.68067703596E+02 0.45081097983E+02 0.30494253100E+02
 0.22620803525E+02 0.19162036903E+02 0.17598533302E+02 0.16495443743E+02 0.15710022374E+02
 0.15160229178E+02 0.14772130938E+02 0.14491597270E+02 0.14284192442E+02 0.14129649753E+02
 0.14015639922E+02 0.13933253958E+02 0.13874850610E+02 0.13833784145E+02 0.13804982400E+02
 0.13785385368E+02 0.13773738764E+02 0.13769841160E+02 0.13773738764E+02 0.13785385368E+02
 0.13804982400E+02 0.13833784145E+02 0.13874850610E+02 0.13933253958E+02 0.14015639922E+02
 0.14129649753E+02 0.14284192442E+02 0.14491597270E+02 0.14772130938E+02 0.15160229178E+02
 0.15710022374E+02 0.16495443743E+02 0.17598533302E+02 0.19162036903E+02 0.22620803525E+02
 0.30494253100E+02 0.45081097983E+02 0.68067703596E+02 0.10025547129E+03 0.14140248957E+03
 0.19017615658E+03 0.24420343745E+03 0.30021447706E+03 0.35428879744E+03 0.40221334775E+03
 0.43993883441E+03 0.46408282535E+03 0.47239420962E+03 0.46408282535E+03 0.43993883441E+03
 0.31791720452E+03 0.27383624603E+03 0.22646453227E+03 0.17940659125E+03 0.13583344245E+03
 0.98201581305E+02 0.68067703596E+02 0.45996923095E+02 0.31567754581E+02 0.23483453968E+02
 0.19793535593E+02 0.18215039750E+02 0.17158889232E+02 0.16418841981E+02 0.15919382386E+02
 0.15587293739E+02 0.15365994937E+02 0.15217872181E+02 0.15120118950E+02 0.15058843017E+02
 0.15024267080E+02 0.15008108565E+02 0.15002986369E+02 0.15002975358E+02 0.15004258751E+02
 0.15005167570E+02 0.15005495200E+02 0.15005495200E+02 0.15005167570E+02 0.15004258751E+02
 0.15002975358E+02 0.15002986369E+02 0.15008108565E+02 0.15024267080E+02 0.15058843017E+02
 0.15120118950E+02 0.15217872181E+02 0.15365994937E+02 0.15587293739E+02 0.15919382386E+02
 0.16418841981E+02 0.17158889232E+02 0.18215039750E+02 0.19793535593E+02 0.23483453968E+02
 0.31567754581E+02 0.45996923095E+02 0.68067703596E+02 0.98201581305E+02 0.13583344245E+03
 0.17940659125E+03 0.22646453227E+03 0.27383624603E+03 0.31791720452E+03 0.35504015344E+03
 0.38190575760E+03 0.39601340996E+03 0.39601340996E+03 0.38190575760E+03 0.35504015344E+03
 0.24023724056E+03 0.20191325146E+03 0.16261351481E+03 0.12526461510E+03 0.92266200529E+02
 0.65275693307E+02 0.45081097983E+02 0.31567754581E+02 0.23787043011E+02 0.20130445229E+02
 0.18598002606E+02 0.17620337514E+02 0.16950248565E+02 0.16520113618E+02 0.16259776256E+02
 0.16112178364E+02 0.16037662313E+02 0.16011275219E+02 0.16017516583E+02 0.16045532800E+02
 0.16086183371E+02 0.16131153565E+02 0.16173442936E+02 0.16208203081E+02 0.16233065716E+02
 0.16247632834E+02 0.16252386831E+02 0.16247632834E+02 0.16233065716E+02 0.16208203081E+02
 0.16173442936E+02 0.16131153565E+02 0.16086183371E+02 0.16045532800E+02 0.16017516583E+02
 0.16011275219E+02 0.16037662313E+02 0.16112178364E+02 0.16259776256E+02 0.16520113618E+02
 0.16950248565E+02 0.17620337514E+02 0.18598002606E+02 0.20130445229E+02 0.23787043011E+02
 0.31567754581E+02 0.45081097983E+02 0.65275693307E+02 0.92266200529E+02 0.12526461510E+03
 0.16261351481E+03 0.20191325146E+03 0.24023724056E+03 0.27442803276E+03 0.30145503427E+03
 0.31879406316E+03 0.32476951035E+03 0.31879406316E+03 0.30145503427E+03 0.27442803276E+03
 0.17273121508E+03 0.14137949494E+03 0.11076177905E+03 0.83097766207E+02 0.60027004500E+02
 0.42456208153E+02 0.30494253100E+02 0.23483453968E+02 0.20130445229E+02 0.18727888832E+02
 0.17857031163E+02 0.17279633457E+02 0.16936391612E+02 0.16762031533E+02 0.16700929366E+02
 0.16712711816E+02 0.16770914406E+02 0.16858552545E+02 0.16963556087E+02 0.17075702229E+02
 0.17185504858E+02 0.17284622378E+02 0.17366846424E+02 0.17428337726E+02 0.17467828443E+02
 0.17486772247E+02 0.17486772247E+02 0.17467828443E+02 0.17428337726E+02 0.17366846424E+02
 0.17284622378E+02 0.17185504858E+02 0.17075702229E+02 0.16963556087E+02 0.16858552545E+02
 0.16770914406E+02 0.16712711816E+02 0.16700929366E+02 0.16762031533E+02 0.16936391612E+02
 0.17279633457E+02 0.17857031163E+02 0.18727888832E+02 0.20130445229E+02 0.23483453968E+02
 0.30494253100E+02 0.42456208153E+02 0.60027004500E+02 0.83097766207E+02 0.11076177905E+03
 0.14137949494E+03 0.17273121508E+03 0.20224675412E+03 0.22729591552E+03 0.24551151963E+03
 0.25510209483E+03 0.25510209483E+03 0.24551151963E+03 0.22729591552E+03 0.20224675412E+03
 0.11763985978E+03 0.93751414803E+02 0.71679417091E+02 0.52943103026E+02 0.38469696989E+02
 0.28506417913E+02 0.22620803525E+02 0.19793535593E+02 0.18598002606E+02 0.17857031163E+02
 0.17391237108E+02 0.17149448125E+02 0.17072546223E+02 0.17108020865E+02 0.17216153699E+02
 0.17369773245E+02 0.17550706051E+02 0.17745634167E+02 0.17943068400E+02 0.18132110729E+02
 0.18302715444E+02 0.18444549420E+02 0.18550634318E+02 0.18621260421E+02 0.18660642671E+02
 0.18673169757E+02 0.18660642671E+02 0.18621260421E+02 0.18550634318E+02 0.18444549420E+02
 0.18302715444E+02 0.18132110729E+02 0.17943068400E+02 0.17745634167E+02 0.17550706051E+02
 0.17369773245E+02 0.17216153699E+02 0.17108020865E+02 0.17072546223E+02 0.17149448125E+02
 0.17391237108E+02 0.17857031163E+02 0.18598002606E+02 0.19793535593E+02 0.22620803525E+02
 0.28506417913E+02 0.38469696989E+02 0.52943103026E+02 0.71679417091E+02 0.93751414803E+02
 0.11763985978E+03 0.14139919664E+03 0.16288520571E+03 0.18002191541E+03 0.19107547781E+03
 0.19489449607E+03 0.19107547781E+03 0.18002191541E+03 0.16288520571E+03 0.14139919664E+03
 0.75839281464E+02 0.59195220097E+02 0.44839165353E+02 0.33635579329E+02 0.25891016796E+02
 0.21331249378E+02 0.19162036903E+02 0.18215039750E+02 0.17620337514E+02 0.17279633457E+02
 0.17149448125E+02 0.17177619537E+02 0.17316097312E+02 0.17527092493E+02 0.17783606943E+02
 0.18066717410E+02 0.18361960448E+02 0.18656485038E+02 0.18937784722E+02 0.19191304831E+02
 0.19399912383E+02 0.19556372480E+02 0.19662856395E+02 0.19726744405E+02 0.19756138014E+02
 0.19756138014E+02 0.19726744405E+02 0.19662856395E+02 0.19556372480E+02 0.19399912383E+02
 0.19191304831E+02 0.18937784722E+02 0.18656485038E+02 0.18361960448E+02 0.18066717410E+02
 0.17783606943E+02 0.17527092493E+02 0.17316097312E+02 0.17177619537E+02 0.17149448125E+02
 0.17279633457E+02 0.17620337514E+02 0.18215039750E+02 0.19162036903E+02 0.21331249378E+02
 0.25891016796E+02 0.33635579329E+02 0.44839165353E+02 0.59195220097E+02 0.75839281464E+02
 0.93449853130E+02 0.11041416821E+03 0.12503940251E+03 0.13578330425E+03 0.14147222982E+03
 0.14147222982E+03 0.13578330425E+03 0.12503940251E+03 0.11041416821E+03 0.93449853130E+02
 0.46866347722E+02 0.36599960009E+02 0.28545823302E+02 0.23003893766E+02 0.19796472057E+02
 0.18303692591E+02 0.17598533302E+02 0.17158889232E+02 0.16950248565E+02 0.16936391612E+02
 0.17072546223E+02 0.17316097312E+02 0.17632256144E+02 0.17995054878E+02 0.18385352400E+02
 0.18787777792E+02 0.19188150424E+02 0.19571834331E+02 0.19916052277E+02 0.20198842500E+02
 0.20412195172E+02 0.20559639537E+02 0.20651640100E+02 0.20700456318E+02 0.20715552875E+02
 0.20700456318E+02 0.20651640100E+02 0.20559639537E+02 0.20412195172E+02 0.20198842500E+02
 0.19916052277E+02 0.19571834331E+02 0.19188150424E+02 0.18787777792E+02 0.18385352400E+02
 0.17995054878E+02 0.17632256144E+02 0.17316097312E+02 0.17072546223E+02 0.16936391612E+02
 0.16950248565E+02 0.17158889232E+02 0.17598533302E+02 0.18303692591E+02 0.19796472057E+02
 0.23003893766E+02 0.28545823302E+02 0.36599960009E+02 0.46866347722E+02 0.58605094341E+02
 0.70739981965E+02 0.82012943357E+02 0.91168174535E+02 0.97139716834E+02 0.99213884544E+02
 0.97139716834E+02 0.91168174535E+02 0.82012943357E+02 0.70739981965E+02 0.58605094341E+02
 0.29040163043E+02 0.23763783695E+02 0.20193467628E+02 0.18196877542E+02 0.17281383639E+02
 0.16779204113E+02 0.16495443743E+02 0.16418841981E+02 0.16520113618E+02 0.16762031533E+02
 0.17108020865E+02 0.17527092493E+02 0.17995054878E+02 0.18493108672E+02 0.19005326626E+02
 0.19516377677E+02 0.20008729037E+02 0.20451083636E+02 0.20816554100E+02 0.21094984336E+02
 0.21290206876E+02 0.21415151160E+02 0.21486133639E+02 0.21517491472E+02 0.21517491472E+02
 0.21486133639E+02 0.21415151160E+02 0.21290206876E+02 0.21094984336E+02 0.20816554100E+02
 0.20451083636E+02 0.20008729037E+02 0.19516377677E+02 0.19005326626E+02 0.18493108672E+02
 0.17995054878E+02 0.17527092493E+02 0.17108020865E+02 0.16762031533E+02 0.16520113618E+02
 0.16418841981E+02 0.16495443743E+02 0.16779204113E+02 0.17281383639E+02 0.18196877542E+02
 0.20193467628E+02 0.23763783695E+02 0.29040163043E+02 0.35777396534E+02 0.43397184525E+02
 0.51085622960E+02 0.57927922334E+02 0.63059315594E+02 0.65808241883E+02 0.65808241883E+02
 0.63059315594E+02 0.57927922334E+02 0.51085622960E+02 0.43397184525E+02 0.35777396534E+02
 0.19715838979E+02 0.17718962018E+02 0.16654013661E+02 0.16122373948E+02 0.15796292121E+02
 0.15661456386E+02 0.15710022374E+02 0.15919382386E+02 0.16259776256E+02 0.16700929366E+02
 0.17216153699E+02 0.17783606943E+02 0.18385352400E+02 0.19005326626E+02 0.19627366017E+02
 0.20231399136E+02 0.20778814618E+02 0.21236460458E+02 0.21590238386E+02 0.21842692428E+02
 0.22008026482E+02 0.22105935464E+02 0.22155540773E+02 0.22170443268E+02 0.22155540773E+02
 0.22105935464E+02 0.22008026482E+02 0.21842692428E+02 0.21590238386E+02 0.21236460458E+02
 0.20778814618E+02 0.20231399136E+02 0.19627366017E+02 0.19005326626E+02 0.18385352400E+02
 0.17783606943E+02 0.17216153699E+02 0.16700929366E+02 0.16259776256E+02 0.15919382386E+02
 0.15710022374E+02 0.15661456386E+02 0.15796292121E+02 0.16122373948E+02 0.16654013661E+02
 0.17718962018E+02 0.19715838979E+02 0.22768877937E+02 0.26715872496E+02 0.31152345743E+02
 0.35516284542E+02 0.39198067079E+02 0.41656358766E+02 0.42519791017E+02 0.41656358766E+02
 0.39198067079E+02 0.35516284542E+02 0.31152345743E+02 0.26715872496E+02 0.22768877937E+02
 0.15678534999E+02 0.15178149056E+02 0.14859136656E+02 0.14694081853E+02 0.14694209567E+02
 0.14855003773E+02 0.15160229178E+02 0.15587293739E+02 0.16112178364E+02 0.16712711816E+02
 0.17369773245E+02 0.18066717410E+02 0.18787777792E+02 0.19516377677E+02 0.20231399136E+02
 0.20889150927E+02 0.21448682058E+02 0.21889883976E+02 0.22211942734E+02 0.22428571177E+02
 0.22561565713E+02 0.22634137546E+02 0.22665177856E+02 0.22665177856E+02 0.22634137546E+02
 0.22561565713E+02 0.22428571177E+02 0.22211942734E+02 0.21889883976E+02 0.21448682058E+02
 0.20889150927E+02 0.20231399136E+02 0.19516377677E+02 0.18787777792E+02 0.18066717410E+02
 0.17369773245E+02 0.16712711816E+02 0.16112178364E+02 0.15587293739E+02 0.15160229178E+02
 0.14855003773E+02 0.14694209567E+02 0.14694081853E+02 0.14859136656E+02 0.15178149056E+02
 0.15678534999E+02 0.16599843269E+02 0.18080212071E+02 0.20049315817E+02 0.22266860493E+02
 0.24390568414E+02 0.26059651282E+02 0.26977473107E+02 0.26977473107E+02 0.26059651282E+02
 0.24390568414E+02 0.22266860493E+02 0.20049315817E+02 0.18080212071E+02 0.16599843269E+02
 0.13699322301E+02 0.13543459295E+02 0.13518027302E+02 0.13633564373E+02 0.13888916124E+02
 0.14273751081E+02 0.14772130938E+02 0.15365994937E+02 0.16037662313E+02 0.16770914406E+02
 0.17550706051E+02 0.18361960448E+02 0.19188150424E+02 0.20008729037E+02 0.20778814618E+02
 0.21448682058E+02 0.21990124681E+02 0.22396576041E+02 0.22678972003E+02 0.22859331482E+02
 0.22963646097E+02 0.23015428045E+02 0.23030787548E+02 0.23015428045E+02 0.22963646097E+02
 0.22859331482E+02 0.22678972003E+02 0.22396576041E+02 0.21990124681E+02 0.21448682058E+02
 0.20778814618E+02 0.20008729037E+02 0.19188150424E+02 0.18361960448E+02 0.17550706051E+02
 0.16770914406E+02 0.16037662313E+02 0.15365994937E+02 0.14772130938E+02 0.14273751081E+02
 0.13888916124E+02 0.13633564373E+02 0.13518027302E+02 0.13543459295E+02 0.13699322301E+02
 0.13962913613E+02 0.14328894976E+02 0.14891097205E+02 0.15663321916E+02 0.16543086690E+02
 0.17361404804E+02 0.17941062096E+02 0.18150411273E+02 0.17941062096E+02 0.17361404804E+02
 0.16543086690E+02 0.15663321916E+02 0.14891097205E+02 0.14328894976E+02 0.13962913613E+02
 0.12222883426E+02 0.12311040767E+02 0.12518785565E+02 0.12848040272E+02 0.13293688776E+02
 0.13845737897E+02 0.14491597270E+02 0.15217872181E+02 0.16011275219E+02 0.16858552545E+02
 0.17745634167E+02 0.18656485038E+02 0.19571834331E+02 0.20451083636E+02 0.21236460458E+02
 0.21889883976E+02 0.22396576041E+02 0.22762038653E+02 0.23006080318E+02 0.23155543742E+02
 0.23237269135E+02 0.23272373315E+02 0.23272373315E+02 0.23237269135E+02 0.23155543742E+02
 0.23006080318E+02 0.22762038653E+02 0.22396576041E+02 0.21889883976E+02 0.21236460458E+02
 0.20451083636E+02 0.19571834331E+02 0.18656485038E+02 0.17745634167E+02 0.16858552545E+02
 0.16011275219E+02 0.15217872181E+02 0.14491597270E+02 0.13845737897E+02 0.13293688776E+02
 0.12848040272E+02 0.12518785565E+02 0.12311040767E+02 0.12222883426E+02 0.12243980528E+02
 0.12355534932E+02 0.12531733605E+02 0.12742748602E+02 0.12977673451E+02 0.13228885804E+02
 0.13448184162E+02 0.13576910372E+02 0.13576910372E+02 0.13448184162E+02 0.13228885804E+02
 0.12977673451E+02 0.12742748602E+02 0.12531733605E+02 0.12355534932E+02 0.12243980528E+02
 0.11110533365E+02 0.11385877178E+02 0.11767322540E+02 0.12254082080E+02 0.12841251134E+02
 0.13521095625E+02 0.14284192442E+02 0.15120118950E+02 0.16017516583E+02 0.16963556087E+02
 0.17943068400E+02 0.18937784722E+02 0.19916052277E+02 0.20816554100E+02 0.21590238386E+02
 0.22211942734E+02 0.22678972003E+02 0.23006080318E+02 0.23218451884E+02 0.23344330754E+02
 0.23408600472E+02 0.23428055714E+02 0.23408600472E+02 0.23344330754E+02 0.23218451884E+02
 0.23006080318E+02 0.22678972003E+02 0.22211942734E+02 0.21590238386E+02 0.20816554100E+02
 0.19916052277E+02 0.18937784722E+02 0.17943068400E+02 0.16963556087E+02 0.16017516583E+02
 0.15120118950E+02 0.14284192442E+02 0.13521095625E+02 0.12841251134E+02 0.12254082080E+02
 0.11767322540E+02 0.11385877178E+02 0.11110533365E+02 0.10936881899E+02 0.10854782782E+02
 0.10848615622E+02 0.10898386526E+02 0.10981566171E+02 0.11075372628E+02 0.11159141035E+02
 0.11216449435E+02 0.11236761393E+02 0.11216449435E+02 0.11159141035E+02 0.11075372628E+02
 0.10981566171E+02 0.10898386526E+02 0.10848615622E+02 0.10854782782E+02 0.10936881899E+02
 0.10265740933E+02 0.10678434967E+02 0.11187249203E+02 0.11791426820E+02 0.12487407256E+02
 0.13269370321E+02 0.14129649753E+02 0.15058843017E+02 0.16045532800E+02 0.17075702229E+02
 0.18132110729E+02 0.19191304831E+02 0.20198842500E+02 0.21094984336E+02 0.21842692428E+02
 0.22428571177E+02 0.22859331482E+02 0.23155543742E+02 0.23344330754E+02 0.23452464654E+02
 0.23500853030E+02 0.23500853030E+02 0.23452464654E+02 0.23344330754E+02 0.23155543742E+02
 0.22859331482E+02 0.22428571177E+02 0.21842692428E+02 0.21094984336E+02 0.20198842500E+02
 0.19191304831E+02 0.18132110729E+02 0.17075702229E+02 0.16045532800E+02 0.15058843017E+02
 0.14129649753E+02 0.13269370321E+02 0.12487407256E+02 0.11791426820E+02 0.11187249203E+02
 0.10678434967E+02 0.10265740933E+02 0.99466286780E+01 0.97149768667E+01 0.95611095306E+01
 0.94722152492E+01 0.94331872387E+01 0.94278525848E+01 0.94404845750E+01 0.94574217693E+01
 0.94685716549E+01 0.94685716549E+01 0.94574217693E+01 0.94404845750E+01 0.94278525848E+01
 0.94331872387E+01 0.94722152492E+01 0.95611095306E+01 0.97149768667E+01 0.99466286780E+01
 0.96085076780E+01 0.10122240117E+02 0.10726893997E+02 0.11422372786E+02 0.12206068163E+02
 0.13072953633E+02 0.14015639922E+02 0.15024267080E+02 0.16086183371E+02 0.17185504858E+02
 0.18302715444E+02 0.19399912383E+02 0.20412195172E+02 0.21290206876E+02 0.22008026482E+02
 0.22561565713E+02 0.22963646097E+02 0.23237269135E+02 0.23408600472E+02 0.23500853030E+02
 0.23529757137E+02 0.23500853030E+02 0.23408600472E+02 0.23237269135E+02 0.22963646097E+02
 0.22561565713E+02 0.22008026482E+02 0.21290206876E+02 0.20412195172E+02 0.19399912383E+02
 0.18302715444E+02 0.17185504858E+02 0.16086183371E+02 0.15024267080E+02 0.14015639922E+02
 0.13072953633E+02 0.12206068163E+02 0.11422372786E+02 0.10726893997E+02 0.10122240117E+02
 0.96085076780E+01 0.91832640337E+01 0.88416593111E+01 0.85766634685E+01 0.83794075066E+01
 0.82396308493E+01 0.81462687469E+01 0.80882171106E+01 0.80552684347E+01 0.80391333051E+01
 0.80343850718E+01 0.80391333051E+01 0.80552684347E+01 0.80882171106E+01 0.81462687469E+01
 0.82396308493E+01 0.83794075066E+01 0.85766634685E+01 0.88416593111E+01 0.91832640337E+01
 0.90838109786E+01 0.96748199425E+01 0.10355197736E+02 0.11125140383E+02 0.11982140867E+02
 0.12920894854E+02 0.13933253958E+02 0.15008108565E+02 0.16131153565E+02 0.17284622378E+02
 0.18444549420E+02 0.19556372480E+02 0.20559639537E+02 0.21415151160E+02 0.22105935464E+02
 0.22634137546E+02 0.23015428045E+02 0.23272373315E+02 0.23428055714E+02 0.23500853030E+02
 0.23500853030E+02 0.23428055714E+02 0.23272373315E+02 0.23015428045E+02 0.22634137546E+02
 0.22105935464E+02 0.21415151160E+02 0.20559639537E+02 0.19556372480E+02 0.18444549420E+02
 0.17284622378E+02 0.16131153565E+02 0.15008108565E+02 0.13933253958E+02 0.12920894854E+02
 0.11982140867E+02 0.11125140383E+02 0.10355197736E+02 0.96748199425E+01 0.90838109786E+01
 0.85795149742E+01 0.81572298101E+01 0.78107262816E+01 0.75327680741E+01 0.73155543276E+01
 0.71510787863E+01 0.70314699208E+01 0.69493983942E+01 0.68985940088E+01 0.68744267583E+01
 0.68744267583E+01 0.68985940088E+01 0.69493983942E+01 0.70314699208E+01 0.71510787863E+01
 0.73155543276E+01 0.75327680741E+01 0.78107262816E+01 0.81572298101E+01 0.85795149742E+01
 0.86580119440E+01 0.93112812520E+01 0.10054257620E+02 0.10886807169E+02 0.11805784015E+02
 0.12804927570E+02 0.13874850610E+02 0.15002986369E+02 0.16173442936E+02 0.17366846424E+02
 0.18550634318E+02 0.19662856395E+02 0.20651640100E+02 0.21486133639E+02 0.22155540773E+02
 0.22665177856E+02 0.23030787548E+02 0.23272373315E+02 0.23408600472E+02 0.23452464654E+02
 0.23408600472E+02 0.23272373315E+02 0.23030787548E+02 0.22665177856E+02 0.22155540773E+02
 0.21486133639E+02 0.20651640100E+02 0.19662856395E+02 0.18550634318E+02 0.17366846424E+02
 0.16173442936E+02 0.15002986369E+02 0.13874850610E+02 0.12804927570E+02 0.11805784015E+02
 0.10886807169E+02 0.10054257620E+02 0.93112812520E+01 0.86580119440E+01 0.80918848490E+01
 0.76081919716E+01 0.72008015105E+01 0.68628906036E+01 0.65875433879E+01 0.63681384933E+01
 0.61985522858E+01 0.60732811395E+01 0.59875966366E+01 0.59377889121E+01 0.59214632395E+01
 0.59377889121E+01 0.59875966366E+01 0.60732811395E+01 0.61985522858E+01 0.63681384933E+01
 0.65875433879E+01 0.68628906036E+01 0.72008015105E+01 0.76081919716E+01 0.80918848490E+01
 0.83114486287E+01 0.90169160882E+01 0.98128687302E+01 0.10698354635E+02 0.11669180376E+02
 0.12717883341E+02 0.13833784145E+02 0.15002975358E+02 0.16208203081E+02 0.17428337726E+02
 0.18621260421E+02 0.19726744405E+02 0.20700456318E+02 0.21517491472E+02 0.22170443268E+02
 0.22665177856E+02 0.23015428045E+02 0.23237269135E+02 0.23344330754E+02 0.23344330754E+02
 0.23237269135E+02 0.23015428045E+02 0.22665177856E+02 0.22170443268E+02 0.21517491472E+02
 0.20700456318E+02 0.19726744405E+02 0.18621260421E+02 0.17428337726E+02 0.16208203081E+02
 0.15002975358E+02 0.13833784145E+02 0.12717883341E+02 0.11669180376E+02 0.10698354635E+02
 0.98128687302E+01 0.90169160882E+01 0.83114486287E+01 0.76944354241E+01 0.71614198025E+01
 0.67063172914E+01 0.63222950393E+01 0.60025425571E+01 0.57407947925E+01 0.55315743411E+01
 0.53702278942E+01 0.52528904723E+01 0.51764944503E+01 0.51388657587E+01 0.51388657587E+01
 0.51764944503E+01 0.52528904723E+01 0.53702278942E+01 0.55315743411E+01 0.57407947925E+01
 0.60025425571E+01 0.63222950393E+01 0.67063172914E+01 0.71614198025E+01 0.76944354241E+01
 0.80318376539E+01 0.87817818908E+01 0.96225982319E+01 0.10552294536E+02 0.11565540866E+02
 0.12653715706E+02 0.13804982400E+02 0.15004258751E+02 0.16233065716E+02 0.17467828443E+02
 0.18660642671E+02 0.19756138014E+02 0.20715552875E+02 0.21517491472E+02 0.22155540773E+02
 0.22634137546E+02 0.22963646097E+02 0.23155543742E+02 0.23218451884E+02 0.23155543742E+02
 0.22963646097E+02 0.22634137546E+02 0.22155540773E+02 0.21517491472E+02 0.20715552875E+02
 0.19756138014E+02 0.18660642671E+02 0.17467828443E+02 0.16233065716E+02 0.15004258751E+02
 0.13804982400E+02 0.12653715706E+02 0.11565540866E+02 0.10552294536E+02 0.96225982319E+01
 0.87817818908E+01 0.80318376539E+01 0.73715777808E+01 0.67971072587E+01 0.63025959931E+01
 0.58812121878E+01 0.55260147343E+01 0.52306229948E+01 0.49895736549E+01 0.47983926851E+01
 0.46535014104E+01 0.45520995149E+01 0.44921208812E+01 0.44722752062E+01 0.44921208812E+01
 0.45520995149E+01 0.46535014104E+01 0.47983926851E+01 0.49895736549E+01 0.52306229948E+01
 0.55260147343E+01 0.58812121878E+01 0.63025959931E+01 0.67971072587E+01 0.73715777808E+01
 0.78101348295E+01 0.85978939170E+01 0.94762628625E+01 0.10442208566E+02 0.11489352402E+02
 0.12608040653E+02 0.13785385368E+02 0.15005167570E+02 0.16247632834E+02 0.17486772247E+02
 0.18673169757E+02 0.19756138014E+02 0.20700456318E+02 0.21486133639E+02 0.22105935464E+02
 0.22561565713E+02 0.22859331482E+02 0.23006080318E+02 0.23006080318E+02 0.22859331482E+02
 0.22561565713E+02 0.22105935464E+02 0.21486133639E+02 0.20700456318E+02 0.19756138014E+02
 0.18673169757E+02 0.17486772247E+02 0.16247632834E+02 0.15005167570E+02 0.13785385368E+02
 0.12608040653E+02 0.11489352402E+02 0.10442208566E+02 0.94762628625E+01 0.85978939170E+01
 0.78101348295E+01 0.71127489831E+01 0.65025953076E+01 0.59743153158E+01 0.55212431755E+01
 0.51363504812E+01 0.48130258575E+01 0.45455561444E+01 0.43292882444E+01 0.41605582323E+01
 0.40365301662E+01 0.39550710256E+01 0.39147183033E+01 0.39147183033E+01 0.39550710256E+01
 0.40365301662E+01 0.41605582323E+01 0.43292882444E+01 0.45455561444E+01 0.48130258575E+01
 0.51363504812E+01 0.55212431755E+01 0.59743153158E+01 0.65025953076E+01 0.71127489831E+01
 0.76387869087E+01 0.84584453653E+01 0.93678824118E+01 0.10363115240E+02 0.11436815866E+02
 0.12578349254E+02 0.13773738764E+02 0.15005495200E+02 0.16252386831E+02 0.17486772247E+02
 0.18660642671E+02 0.19726744405E+02 0.20651640100E+02 0.21415151160E+02 0.22008026482E+02
 0.22428571177E+02 0.22678972003E+02 0.22762038653E+02 0.22678972003E+02 0.22428571177E+02
 0.22008026482E+02 0.21415151160E+02 0.20651640100E+02 0.19726744405E+02 0.18660642671E+02
 0.17486772247E+02 0.16252386831E+02 0.15005495200E+02 0.13773738764E+02 0.12578349254E+02
 0.11436815866E+02 0.10363115240E+02 0.93678824118E+01 0.84584453653E+01 0.76387869087E+01
 0.69095891407E+01 0.62685160632E+01 0.57108045360E+01 0.52301091841E+01 0.48194431928E+01
 0.44720184483E+01 0.41818273990E+01 0.39439050091E+01 0.37543195324E+01 0.36100178454E+01
 0.35086635686E+01 0.34485561133E+01 0.34286403804E+01 0.34485561133E+01 0.35086635686E+01
 0.36100178454E+01 0.37543195324E+01 0.39439050091E+01 0.41818273990E+01 0.44720184483E+01
 0.48194431928E+01 0.52301091841E+01 0.57108045360E+01 0.62685160632E+01 0.69095891407E+01
 0.75115054462E+01 0.83580112399E+01 0.92930509628E+01 0.10311753025E+02 0.11405844850E+02
 0.12563623304E+02 0.13769841160E+02 0.15005495200E+02 0.16247632834E+02 0.17467828443E+02