    2    2    1    1
  0.2258839E+02  0.3997699E-09  0.3997699E-09  0.3997699E-09  0.5000000E-15
  1.000000000000000E-004
  CAR 
 Name                                    
     18     16     16
 
  0.0000000E+00  0.0000000E+00  0.0000000E+00  0.4629630E-02
    1      -13.864354   1.000000
    2      -13.864354   1.000000
    3      -13.864353   1.000000
    4      -13.784084   1.000000
    5      -13.784084   1.000000
    6      -10.457475   1.000000
    7        3.508480   1.000000
    8        3.508484   1.000000
    9        3.508484   1.000000
   10        4.922885   0.000000
   11        8.045735   0.000000
   12        8.045745   0.000000
   13        8.045745   0.000000
   14       12.084075   0.000000
   15       14.601666   0.000000
   16       14.601706   0.000000
 
  0.1666667E+00  0.0000000E+00  0.0000000E+00  0.3703704E-01
    1      -13.878291   1.000000
    2      -13.858983   1.000000
    3      -13.858983   1.000000
    4      -13.784316   1.000000
    5      -13.784316   1.000000
    6      -10.113166   1.000000
    7        0.720658   1.000000
    8        3.107663   1.000000
    9        3.107667   1.000000
   10        5.964385   0.000000
   11        8.627290   0.000000
   12        8.627299   0.000000
   13        9.051838   0.000000
   14       13.460859   0.000000
   15       13.460859   0.000000
   16       13.482649   0.000000
 
  0.3333333E+00  0.0000000E+00  0.0000000E+00  0.3703704E-01
    1      -13.904806   1.000000
    2      -13.849757   1.000000
    3      -13.849757   1.000000
    4      -13.783146   1.000000
    5      -13.783145   1.000000
    6       -9.213503   1.000000
    7       -2.282437   1.000000
    8        2.515415   1.000000
    9        2.515419   1.000000
   10        5.505819   0.000000
   11        9.049308   0.000000
   12        9.049316   0.000000
   13       11.777270   0.000000
   14       13.243876   0.000000
   15       14.156677   0.000000
   16       14.156682   0.000000
 
  0.5000000E+00  0.0000000E+00  0.0000000E+00  0.1851852E-01
    1      -13.917523   1.000000
    2      -13.846126   1.000000
    3      -13.846126   1.000000
    4      -13.781552   1.000000
    5      -13.781550   1.000000
    6       -8.537567   1.000000
    7       -3.698148   1.000000
    8        2.278602   1.000000
    9        2.278606   1.000000
   10        5.271334   0.000000
   11        8.964949   0.000000
   12        8.964957   0.000000
   13       12.158916   0.000000
   14       15.092702   0.000000
   15       16.545142   0.000000
   16       16.545180   0.000000
 
  0.1666667E+00  0.1666667E+00  0.0000000E+00  0.2777778E-01
    1      -13.888085   1.000000
    2      -13.853648   1.000000
    3      -13.853648   1.000000
    4      -13.788602   1.000000
    5      -13.781354   1.000000
    6       -9.997102   1.000000
    7        0.765256   1.000000
    8        2.433967   1.000000
    9        2.433970   1.000000
   10        6.795701   0.000000
   11        7.447170   0.000000
   12        9.689252   0.000000
   13        9.689258   0.000000
   14       11.819932   0.000000
   15       14.252737   0.000000
   16       15.075480   0.000000
 
  0.3333333E+00  0.1666667E+00  0.0000000E+00  0.1111111E+00
    1      -13.909268   1.000000
    2      -13.845556   1.000000
    3      -13.843510   1.000000
    4      -13.791185   1.000000
    5      -13.779398   1.000000
    6       -9.266429   1.000000
    7       -1.544896   1.000000
    8        1.558135   1.000000
    9        1.823981   1.000000
   10        6.748674   0.000000
   11        8.176880   0.000000
   12        9.975867   0.000000
   13       10.529584   0.000000
   14       13.392478   0.000000
   15       15.334309   0.000000
   16       15.468322   0.000000
 
  0.5000000E+00  0.1666667E+00  0.0000000E+00  0.1111111E+00
    1      -13.922074   1.000000
    2      -13.842365   1.000000
    3      -13.839057   1.000000
    4      -13.787899   1.000000
    5      -13.780126   1.000000
    6       -8.391735   1.000000
    7       -3.407656   1.000000
    8        0.718004   1.000000
    9        1.742547   1.000000
   10        6.595326   0.000000
   11        8.811955   0.000000
   12       10.186948   0.000000
   13       11.522850   0.000000
   14       14.391589   0.000000
   15       16.222307   0.000000
   16       16.548211   0.000000
 
 -0.3333333E+00  0.1666667E+00  0.0000000E+00  0.1111111E+00
    1      -13.916638   1.000000
    2      -13.843580   1.000000
    3      -13.842841   1.000000
    4      -13.784752   1.000000
    5      -13.783539   1.000000
    6       -8.640294   1.000000
    7       -2.938030   1.000000
    8        0.491826   1.000000
    9        2.218433   1.000000
   10        6.787017   0.000000
   11        9.049207   0.000000
   12        9.725706   0.000000
   13       11.666485   0.000000
   14       13.503304   0.000000
   15       14.607951   0.000000
   16       16.375768   0.000000
 
 -0.1666667E+00  0.1666667E+00  0.0000000E+00  0.5555556E-01
    1      -13.896698   1.000000
    2      -13.852848   1.000000
    3      -13.849509   1.000000
    4      -13.786781   1.000000
    5      -13.782505   1.000000
    6       -9.573655   1.000000
    7       -0.845946   1.000000
    8        1.291548   1.000000
    9        2.945995   1.000000
   10        6.970740   0.000000
   11        8.793264   0.000000
   12        8.969157   0.000000
   13       10.059617   0.000000
   14       12.374958   0.000000
   15       14.439431   0.000000
   16       15.271034   0.000000
 
  0.3333333E+00  0.3333333E+00  0.0000000E+00  0.2777778E-01
    1      -13.929146   1.000000
    2      -13.831567   1.000000
    3      -13.831567   1.000000
    4      -13.799797   1.000000
    5      -13.775854   1.000000
    6       -8.758779   1.000000
    7       -2.225626   1.000000
    8        1.103846   1.000000
    9        1.103849   1.000000
   10        5.729808   0.000000
   11        6.883841   0.000000
   12       12.650287   0.000000
   13       12.650293   0.000000
   14       13.256940   0.000000
   15       16.461012   0.000000
   16       17.830926   0.000000
 
  0.5000000E+00  0.3333333E+00  0.0000000E+00  0.1111111E+00
    1      -13.937811   1.000000
    2      -13.828950   1.000000
    3      -13.825970   1.000000
    4      -13.799851   1.000000
    5      -13.776027   1.000000
    6       -7.998711   1.000000
    7       -3.408200   1.000000
    8       -0.019876   1.000000
    9        0.933331   1.000000
   10        6.021823   0.000000
   11        7.610310   0.000000
   12       12.222238   0.000000
   13       12.923887   0.000000
   14       15.384476   0.000000
   15       16.922855   0.000000
   16       17.701744   0.000000
 
 -0.3333333E+00  0.3333333E+00  0.0000000E+00  0.5555556E-01
    1      -13.930234   1.000000
    2      -13.836165   1.000000
    3      -13.830751   1.000000
    4      -13.791753   1.000000
    5      -13.781426   1.000000
    6       -7.929914   1.000000
    7       -3.458909   1.000000
    8       -0.786340   1.000000
    9        1.397224   1.000000
   10        6.460767   0.000000
   11       10.386544   0.000000
   12       11.738035   0.000000
   13       12.087282   0.000000
   14       12.216032   0.000000
   15       14.113659   0.000000
   16       19.023795   0.000000
 
  0.5000000E+00  0.5000000E+00  0.0000000E+00  0.1388889E-01
    1      -13.947496   1.000000
    2      -13.820204   1.000000
    3      -13.820204   1.000000
    4      -13.806053   1.000000
    5      -13.773095   1.000000
    6       -7.716391   1.000000
    7       -3.872938   1.000000
    8        0.604377   1.000000
    9        0.604377   1.000000
   10        5.577514   0.000000
   11        5.839028   0.000000
   12       15.017254   0.000000
   13       15.017256   0.000000
   14       15.753696   0.000000
   15       17.958809   0.000000
   16       17.993897   0.000000
 
  0.5000000E+00  0.3333333E+00  0.1666667E+00  0.1111111E+00
    1      -13.924561   1.000000
    2      -13.839537   1.000000
    3      -13.833319   1.000000
    4      -13.793362   1.000000
    5      -13.779158   1.000000
    6       -8.483991   1.000000
    7       -2.730054   1.000000
    8        0.057186   1.000000
    9        1.314431   1.000000
   10        7.727722   0.000000
   11        8.252117   0.000000
   12        9.392846   0.000000
   13       12.438077   0.000000
   14       13.945239   0.000000
   15       15.793439   0.000000
   16       17.977057   0.000000
 
 -0.3333333E+00  0.3333333E+00  0.1666667E+00  0.1111111E+00
    1      -13.929899   1.000000
    2      -13.838932   1.000000
    3      -13.828651   1.000000
    4      -13.791650   1.000000
    5      -13.781203   1.000000
    6       -7.928847   1.000000
    7       -3.503630   1.000000
    8       -0.435193   1.000000
    9        0.868798   1.000000
   10        7.965466   0.000000
   11        8.644226   0.000000
   12       10.716469   0.000000
   13       11.916416   0.000000
   14       13.158688   0.000000
   15       16.845485   0.000000
   16       17.481740   0.000000
 
 -0.3333333E+00  0.5000000E+00  0.1666667E+00  0.5555556E-01
    1      -13.938248   1.000000
    2      -13.832034   1.000000
    3      -13.822562   1.000000
    4      -13.797982   1.000000
    5      -13.778019   1.000000
    6       -7.670962   1.000000
    7       -3.710560   1.000000
    8       -0.113025   1.000000
    9        0.063410   1.000000
   10        7.492683   0.000000
   11        7.777227   0.000000
   12       11.655916   0.000000
   13       11.940489   0.000000
   14       15.837047   0.000000
   15       16.961645   0.000000
   16       18.031240   0.000000
