       N       E                     dE             d eps       ncg     rms          ort
DAV:   1     0.749808409894E+03    0.74981E+03   -0.35893E+04   256   0.621E+03
DAV:   2     0.114685671112E+03   -0.63512E+03   -0.60978E+03   256   0.156E+03
DAV:   3     0.360350858069E+02   -0.78651E+02   -0.73302E+02   256   0.195E+02
DAV:   4     0.312575103780E+02   -0.47776E+01   -0.47360E+01   256   0.503E+01
DAV:   5     0.311856852510E+02   -0.71825E-01   -0.71810E-01   256   0.619E+00
SDA:   6    -0.944783524735E+01   -0.40634E+02   -0.71810E-01   256   0.220E+01 0.000E+00
CGA:   7    -0.973912384078E+01   -0.29129E+00   -0.29438E+00   256   0.164E+00-0.163E-02
CGA:   8    -0.980031286962E+01   -0.61189E-01   -0.60409E-01   256   0.116E+00 0.436E-02
CGA:   9    -0.983305676727E+01   -0.32744E-01   -0.32482E-01   256   0.290E-01 0.291E-02
CGA:  10    -0.984186862459E+01   -0.88119E-02   -0.87730E-02   256   0.140E-01 0.355E-03
CGA:  11    -0.984476995443E+01   -0.29013E-02   -0.29016E-02   256   0.229E-02 0.804E-05
CGA:  12    -0.984537339507E+01   -0.60344E-03   -0.60315E-03   256   0.894E-03 0.501E-05
CGA:  13    -0.984557857461E+01   -0.20518E-03   -0.20523E-03   256   0.390E-03-0.369E-05
CGA:  14    -0.984566602587E+01   -0.87451E-04   -0.87478E-04   256   0.145E-03-0.315E-05
CGA:  15    -0.984570058718E+01   -0.34561E-04   -0.34622E-04   256   0.615E-04-0.249E-05
CGA:  16    -0.984571410798E+01   -0.13521E-04   -0.13523E-04   256   0.236E-04-0.365E-06
CGA:  17    -0.984571866220E+01   -0.45542E-05   -0.45532E-05   256   0.844E-05-0.383E-07
CGA:  18    -0.984572051565E+01   -0.18534E-05   -0.18552E-05   256   0.369E-05-0.451E-06
CGA:  19    -0.984572119258E+01   -0.67693E-06   -0.67829E-06   256   0.125E-05 0.529E-07
   1 F= -.98457212E+01 E0= -.98457212E+01  d E =-.281366E-18
