PROCAR new format
# of k-points:   16         # of bands:  16         # of ions:   2

 k-point    1 :    0.00000000 0.00000000 0.00000000     weight = 0.00462963

band   1 # energy  -13.86435443 # occ.  2.00000000
 
ion      s      p      d    tot
  1  0.000  0.000  0.985  0.986
  2  0.000  0.003  0.000  0.003
tot  0.000  0.003  0.986  0.989
 
band   2 # energy  -13.86435441 # occ.  2.00000000
 
ion      s      p      d    tot
  1  0.000  0.000  0.985  0.986
  2  0.000  0.003  0.000  0.003
tot  0.000  0.003  0.986  0.989
 
band   3 # energy  -13.86435324 # occ.  2.00000000
 
ion      s      p      d    tot
  1  0.000  0.000  0.985  0.986
  2  0.000  0.003  0.000  0.003
tot  0.000  0.003  0.986  0.989
 
band   4 # energy  -13.78408375 # occ.  2.00000000
 
ion      s      p      d    tot
  1  0.000  0.000  0.991  0.991
  2  0.000  0.000  0.000  0.000
tot  0.000  0.000  0.991  0.991
 
band   5 # energy  -13.78408375 # occ.  2.00000000
 
ion      s      p      d    tot
  1  0.000  0.000  0.991  0.991
  2  0.000  0.000  0.000  0.000
tot  0.000  0.000  0.991  0.991
 
band   6 # energy  -10.45747525 # occ.  2.00000000
 
ion      s      p      d    tot
  1  0.175  0.000  0.000  0.175
  2  0.432  0.000  0.000  0.432
tot  0.606  0.000  0.000  0.606
 
band   7 # energy    3.50848016 # occ.  2.00000000
 
ion      s      p      d    tot
  1  0.000  0.102  0.062  0.164
  2  0.000  0.456  0.006  0.462
tot  0.000  0.558  0.068  0.626
 
band   8 # energy    3.50848411 # occ.  2.00000000
 
ion      s      p      d    tot
  1  0.000  0.102  0.062  0.164
  2  0.000  0.456  0.006  0.462
tot  0.000  0.558  0.068  0.626
 
band   9 # energy    3.50848419 # occ.  2.00000000
 
ion      s      p      d    tot
  1  0.000  0.102  0.062  0.164
  2  0.000  0.456  0.006  0.462
tot  0.000  0.558  0.068  0.626
 
band  10 # energy    4.92288452 # occ.  0.00000000
 
ion      s      p      d    tot
  1  0.411  0.000  0.000  0.411
  2  0.369  0.000  0.000  0.369
tot  0.781  0.000  0.000  0.781
 
band  11 # energy    8.04573509 # occ.  0.00000000
 
ion      s      p      d    tot
  1  0.000  0.386  0.009  0.395
  2  0.000  0.040  0.070  0.111
tot  0.000  0.426  0.079  0.505
 
band  12 # energy    8.04574517 # occ.  0.00000000
 
ion      s      p      d    tot
  1  0.000  0.386  0.009  0.395
  2  0.000  0.040  0.070  0.111
tot  0.000  0.426  0.079  0.505
 
band  13 # energy    8.04574530 # occ.  0.00000000
 
ion      s      p      d    tot
  1  0.000  0.386  0.009  0.395
  2  0.000  0.040  0.070  0.111
tot  0.000  0.426  0.079  0.505
 
band  14 # energy   12.08407542 # occ.  0.00000000
 
ion      s      p      d    tot
  1  0.270  0.000  0.000  0.270
  2  0.019  0.000  0.000  0.019
tot  0.288  0.000  0.000  0.288
 
band  15 # energy   14.60166647 # occ.  0.00000000
 
ion      s      p      d    tot
  1  0.000  0.000  0.174  0.174
  2  0.000  0.000  0.191  0.191
tot  0.000  0.000  0.365  0.365
 
band  16 # energy   14.60170623 # occ.  0.00000000
 
ion      s      p      d    tot
  1  0.000  0.000  0.174  0.174
  2  0.000  0.000  0.191  0.191
tot  0.000  0.000  0.365  0.365
 

 k-point    2 :    0.16666667 0.00000000 0.00000000     weight = 0.03703704

band   1 # energy  -13.87829082 # occ.  2.00000000
 
ion      s      p      d    tot
  1  0.000  0.000  0.980  0.981
  2  0.004  0.002  0.000  0.006
tot  0.004  0.002  0.981  0.987
 
band   2 # energy  -13.85898345 # occ.  2.00000000
 
ion      s      p      d    tot
  1  0.000  0.000  0.986  0.986
  2  0.000  0.003  0.000  0.003
tot  0.000  0.003  0.986  0.989
 
band   3 # energy  -13.85898267 # occ.  2.00000000
 
ion      s      p      d    tot
  1  0.000  0.000  0.986  0.986
  2  0.000  0.003  0.000  0.003
tot  0.000  0.003  0.986  0.989
 
band   4 # energy  -13.78431616 # occ.  2.00000000
 
ion      s      p      d    tot
  1  0.000  0.000  0.991  0.991
  2  0.000  0.000  0.000  0.000
tot  0.000  0.000  0.991  0.991
 
band   5 # energy  -13.78431588 # occ.  2.00000000
 
ion      s      p      d    tot
  1  0.000  0.000  0.991  0.991
  2  0.000  0.000  0.000  0.000
tot  0.000  0.000  0.991  0.991
 
band   6 # energy  -10.11316565 # occ.  2.00000000
 
ion      s      p      d    tot
  1  0.164  0.005  0.006  0.175
  2  0.437  0.003  0.000  0.440
tot  0.601  0.008  0.006  0.615
 
band   7 # energy    0.72065761 # occ.  2.00000000
 
ion      s      p      d    tot
  1  0.155  0.083  0.031  0.269
  2  0.115  0.236  0.006  0.356
tot  0.270  0.319  0.037  0.626
 
band   8 # energy    3.10766342 # occ.  2.00000000
 
ion      s      p      d    tot
  1  0.000  0.131  0.049  0.180
  2  0.000  0.422  0.007  0.429
tot  0.000  0.553  0.056  0.609
 
band   9 # energy    3.10766728 # occ.  2.00000000
 
ion      s      p      d    tot
  1  0.000  0.131  0.049  0.180
  2  0.000  0.422  0.007  0.429
tot  0.000  0.553  0.056  0.609
 
band  10 # energy    5.96438460 # occ.  0.00000000
 
ion      s      p      d    tot
  1  0.270  0.091  0.006  0.368
  2  0.185  0.082  0.016  0.284
tot  0.455  0.173  0.022  0.651
 
band  11 # energy    8.62728957 # occ.  0.00000000
 
ion      s      p      d    tot
  1  0.000  0.356  0.020  0.376
  2  0.000  0.073  0.069  0.142
tot  0.000  0.429  0.089  0.518
 
band  12 # energy    8.62729894 # occ.  0.00000000
 
ion      s      p      d    tot
  1  0.000  0.356  0.020  0.376
  2  0.000  0.073  0.069  0.142
tot  0.000  0.429  0.089  0.518
 
band  13 # energy    9.05183837 # occ.  0.00000000
 
ion      s      p      d    tot
  1  0.073  0.181  0.027  0.281
  2  0.059  0.172  0.040  0.270
tot  0.132  0.353  0.067  0.551
 
band  14 # energy   13.46085866 # occ.  0.00000000
 
ion      s      p      d    tot
  1  0.000  0.009  0.131  0.140
  2  0.000  0.002  0.131  0.133
tot  0.000  0.011  0.262  0.273
 
band  15 # energy   13.46085932 # occ.  0.00000000
 
ion      s      p      d    tot
  1  0.000  0.009  0.131  0.140
  2  0.000  0.002  0.131  0.133
tot  0.000  0.011  0.262  0.273
 
band  16 # energy   13.48264900 # occ.  0.00000000
 
ion      s      p      d    tot
  1  0.148  0.112  0.004  0.263
  2  0.009  0.020  0.010  0.039
tot  0.157  0.132  0.014  0.303
 

 k-point    3 :    0.33333333 0.00000000 0.00000000     weight = 0.03703704

band   1 # energy  -13.90480611 # occ.  2.00000000
 
ion      s      p      d    tot
  1  0.001  0.000  0.972  0.972
  2  0.011  0.001  0.000  0.012
tot  0.012  0.001  0.972  0.984
 
band   2 # energy  -13.84975700 # occ.  2.00000000
 
ion      s      p      d    tot
  1  0.000  0.000  0.987  0.987
  2  0.000  0.002  0.000  0.003
tot  0.000  0.002  0.987  0.990
 
band   3 # energy  -13.84975685 # occ.  2.00000000
 
ion      s      p      d    tot
  1  0.000  0.000  0.987  0.987
  2  0.000  0.002  0.000  0.003
tot  0.000  0.002  0.987  0.990
 
band   4 # energy  -13.78314593 # occ.  2.00000000
 
ion      s      p      d    tot
  1  0.000  0.000  0.991  0.991
  2  0.000  0.000  0.000  0.000
tot  0.000  0.000  0.991  0.991
 
band   5 # energy  -13.78314504 # occ.  2.00000000
 
ion      s      p      d    tot
  1  0.000  0.000  0.991  0.991
  2  0.000  0.000  0.000  0.000
tot  0.000  0.000  0.991  0.991
 
band   6 # energy   -9.21350285 # occ.  2.00000000
 
ion      s      p      d    tot
  1  0.129  0.018  0.020  0.166
  2  0.470  0.006  0.000  0.476
tot  0.599  0.024  0.020  0.643
 
band   7 # energy   -2.28243690 # occ.  2.00000000
 
ion      s      p      d    tot
  1  0.212  0.072  0.013  0.297
  2  0.085  0.181  0.004  0.270
tot  0.298  0.253  0.016  0.567
 
band   8 # energy    2.51541476 # occ.  2.00000000
 
ion      s      p      d    tot
  1  0.000  0.161  0.034  0.195
  2  0.000  0.392  0.006  0.398
tot  0.000  0.554  0.040  0.593
 
band   9 # energy    2.51541888 # occ.  2.00000000
 
ion      s      p      d    tot
  1  0.000  0.161  0.034  0.195
  2  0.000  0.392  0.006  0.398
tot  0.000  0.554  0.040  0.593
 
band  10 # energy    5.50581900 # occ.  0.00000000
 
ion      s      p      d    tot
  1  0.283  0.070  0.015  0.367
  2  0.153  0.044  0.026  0.223
tot  0.436  0.114  0.041  0.591
 
band  11 # energy    9.04930767 # occ.  0.00000000
 
ion      s      p      d    tot
  1  0.000  0.270  0.044  0.314
  2  0.000  0.074  0.072  0.145
tot  0.000  0.344  0.115  0.459
 
band  12 # energy    9.04931646 # occ.  0.00000000
 
ion      s      p      d    tot
  1  0.000  0.270  0.044  0.314
  2  0.000  0.074  0.072  0.145
tot  0.000  0.344  0.115  0.459
 
band  13 # energy   11.77726991 # occ.  0.00000000
 
ion      s      p      d    tot
  1  0.032  0.103  0.028  0.163
  2  0.036  0.259  0.013  0.308
tot  0.068  0.362  0.041  0.471
 
band  14 # energy   13.24387589 # occ.  0.00000000
 
ion      s      p      d    tot
  1  0.116  0.045  0.013  0.174
  2  0.032  0.018  0.019  0.068
tot  0.147  0.063  0.032  0.242
 
band  15 # energy   14.15667665 # occ.  0.00000000
 
ion      s      p      d    tot
  1  0.000  0.066  0.111  0.178
  2  0.000  0.031  0.126  0.157
tot  0.000  0.097  0.238  0.334
 
band  16 # energy   14.15668215 # occ.  0.00000000
 
ion      s      p      d    tot
  1  0.000  0.066  0.111  0.178
  2  0.000  0.031  0.126  0.157
tot  0.000  0.097  0.237  0.334
 

 k-point    4 :    0.50000000 0.00000000 0.00000000     weight = 0.01851852

band   1 # energy  -13.91752286 # occ.  2.00000000
 
ion      s      p      d    tot
  1  0.001  0.000  0.968  0.969
  2  0.014  0.000  0.000  0.014
tot  0.015  0.000  0.968  0.983
 
band   2 # energy  -13.84612585 # occ.  2.00000000
 
ion      s      p      d    tot
  1  0.000  0.000  0.987  0.987
  2  0.000  0.002  0.000  0.002
tot  0.000  0.002  0.987  0.990
 
band   3 # energy  -13.84612568 # occ.  2.00000000
 
ion      s      p      d    tot
  1  0.000  0.000  0.987  0.987
  2  0.000  0.002  0.000  0.002
tot  0.000  0.002  0.987  0.990
 
band   4 # energy  -13.78155171 # occ.  2.00000000
 
ion      s      p      d    tot
  1  0.000  0.000  0.991  0.991
  2  0.000  0.000  0.000  0.000
tot  0.000  0.000  0.991  0.991
 
band   5 # energy  -13.78155037 # occ.  2.00000000
 
ion      s      p      d    tot
  1  0.000  0.000  0.991  0.991
  2  0.000  0.000  0.000  0.000
tot  0.000  0.000  0.991  0.991
 
band   6 # energy   -8.53756670 # occ.  2.00000000
 
ion      s      p      d    tot
  1  0.089  0.029  0.031  0.148
  2  0.525  0.002  0.001  0.527
tot  0.614  0.030  0.032  0.676
 
band   7 # energy   -3.69814790 # occ.  2.00000000
 
ion      s      p      d    tot
  1  0.258  0.061  0.000  0.320
  2  0.030  0.171  0.002  0.203
tot  0.288  0.233  0.003  0.523
 
band   8 # energy    2.27860157 # occ.  2.00000000
 
ion      s      p      d    tot
  1  0.000  0.171  0.028  0.200
  2  0.000  0.385  0.005  0.389
tot  0.000  0.556  0.033  0.589
 
band   9 # energy    2.27860576 # occ.  2.00000000
 
ion      s      p      d    tot
  1  0.000  0.171  0.028  0.200
  2  0.000  0.385  0.005  0.389
tot  0.000  0.556  0.033  0.589
 
band  10 # energy    5.27133392 # occ.  0.00000000
 
ion      s      p      d    tot
  1  0.295  0.051  0.019  0.366
  2  0.154  0.038  0.027  0.219
tot  0.449  0.089  0.047  0.585
 
band  11 # energy    8.96494912 # occ.  0.00000000
 
ion      s      p      d    tot
  1  0.000  0.226  0.054  0.281
  2  0.000  0.062  0.074  0.136
tot  0.000  0.288  0.128  0.417
 
band  12 # energy    8.96495714 # occ.  0.00000000
 
ion      s      p      d    tot
  1  0.000  0.226  0.054  0.281
  2  0.000  0.062  0.074  0.136
tot  0.000  0.288  0.128  0.417
 
band  13 # energy   12.15891566 # occ.  0.00000000
 
ion      s      p      d    tot
  1  0.008  0.043  0.031  0.082
  2  0.002  0.094  0.005  0.100
tot  0.010  0.137  0.035  0.182
 
band  14 # energy   15.09270160 # occ.  0.00000000
 
ion      s      p      d    tot
  1  0.118  0.007  0.009  0.134
  2  0.002  0.330  0.013  0.345
tot  0.120  0.338  0.022  0.479
 
band  15 # energy   16.54514189 # occ.  0.00000000
 
ion      s      p      d    tot
  1  0.000  0.171  0.034  0.205
  2  0.000  0.072  0.127  0.200
tot  0.000  0.244  0.162  0.405
 
band  16 # energy   16.54517988 # occ.  0.00000000
 
ion      s      p      d    tot
  1  0.000  0.171  0.034  0.205
  2  0.000  0.072  0.128  0.200
tot  0.000  0.243  0.163  0.405
 

 k-point    5 :    0.16666667 0.16666667 0.00000000     weight = 0.02777778

band   1 # energy  -13.88808511 # occ.  2.00000000
 
ion      s      p      d    tot
  1  0.000  0.000  0.979  0.979
  2  0.005  0.002  0.000  0.007
tot  0.005  0.002  0.979  0.986
 
band   2 # energy  -13.85364834 # occ.  2.00000000
 
ion      s      p      d    tot
  1  0.000  0.000  0.987  0.987
  2  0.000  0.003  0.000  0.003
tot  0.000  0.003  0.987  0.989
 
band   3 # energy  -13.85364755 # occ.  2.00000000
 
ion      s      p      d    tot
  1  0.000  0.000  0.987  0.987
  2  0.000  0.003  0.000  0.003
tot  0.000  0.003  0.987  0.989
 
band   4 # energy  -13.78860154 # occ.  2.00000000
 
ion      s      p      d    tot
  1  0.000  0.000  0.990  0.990
  2  0.000  0.000  0.000  0.000
tot  0.000  0.000  0.990  0.990
 
band   5 # energy  -13.78135378 # occ.  2.00000000
 
ion      s      p      d    tot
  1  0.000  0.000  0.991  0.991
  2  0.000  0.000  0.000  0.000
tot  0.000  0.000  0.991  0.991
 
band   6 # energy   -9.99710223 # occ.  2.00000000
 
ion      s      p      d    tot
  1  0.160  0.007  0.008  0.174
  2  0.440  0.004  0.000  0.443
tot  0.599  0.011  0.008  0.617
 
band   7 # energy    0.76525582 # occ.  2.00000000
 
ion      s      p      d    tot
  1  0.210  0.054  0.035  0.299
  2  0.152  0.220  0.006  0.378
tot  0.362  0.274  0.041  0.677
 
band   8 # energy    2.43396686 # occ.  2.00000000
 
ion      s      p      d    tot
  1  0.000  0.154  0.037  0.191
  2  0.000  0.375  0.007  0.382
tot  0.000  0.529  0.044  0.573
 
band   9 # energy    2.43397006 # occ.  2.00000000
 
ion      s      p      d    tot
  1  0.000  0.154  0.037  0.191
  2  0.000  0.375  0.007  0.382
tot  0.000  0.529  0.044  0.573
 
band  10 # energy    6.79570144 # occ.  0.00000000
 
ion      s      p      d    tot
  1  0.185  0.121  0.026  0.332
  2  0.002  0.123  0.043  0.168
tot  0.187  0.244  0.069  0.500
 
band  11 # energy    7.44717002 # occ.  0.00000000
 
ion      s      p      d    tot
  1  0.106  0.184  0.006  0.296
  2  0.182  0.131  0.014  0.327
tot  0.288  0.316  0.019  0.623
 
band  12 # energy    9.68925182 # occ.  0.00000000
 
ion      s      p      d    tot
  1  0.000  0.333  0.031  0.364
  2  0.000  0.127  0.071  0.199
tot  0.000  0.460  0.102  0.562
 
band  13 # energy    9.68925811 # occ.  0.00000000
 
ion      s      p      d    tot
  1  0.000  0.333  0.031  0.364
  2  0.000  0.127  0.071  0.199
tot  0.000  0.460  0.102  0.562
 
band  14 # energy   11.81993176 # occ.  0.00000000
 
ion      s      p      d    tot
  1  0.009  0.001  0.103  0.113
  2  0.025  0.016  0.085  0.127
tot  0.034  0.017  0.189  0.240
 
band  15 # energy   14.25273673 # occ.  0.00000000
 
ion      s      p      d    tot
  1  0.179  0.155  0.004  0.338
  2  0.004  0.020  0.017  0.041
tot  0.183  0.175  0.021  0.379
 
band  16 # energy   15.07547985 # occ.  0.00000000
 
ion      s      p      d    tot
  1  0.000  0.000  0.165  0.165
  2  0.000  0.000  0.196  0.196
tot  0.000  0.000  0.360  0.360
 

 k-point    6 :    0.33333333 0.16666667 0.00000000     weight = 0.11111111

band   1 # energy  -13.90926827 # occ.  2.00000000
 
ion      s      p      d    tot
  1  0.000  0.000  0.972  0.973
  2  0.011  0.001  0.000  0.012
tot  0.011  0.001  0.972  0.985
 
band   2 # energy  -13.84555641 # occ.  2.00000000
 
ion      s      p      d    tot
  1  0.000  0.000  0.987  0.987
  2  0.000  0.002  0.000  0.003
tot  0.000  0.002  0.988  0.990
 
band   3 # energy  -13.84350999 # occ.  2.00000000
 
ion      s      p      d    tot
  1  0.000  0.000  0.988  0.988
  2  0.000  0.002  0.000  0.002
tot  0.000  0.002  0.988  0.990
 
band   4 # energy  -13.79118457 # occ.  2.00000000
 
ion      s      p      d    tot
  1  0.000  0.000  0.990  0.990
  2  0.000  0.000  0.000  0.000
tot  0.000  0.000  0.990  0.990
 
band   5 # energy  -13.77939769 # occ.  2.00000000
 
ion      s      p      d    tot
  1  0.000  0.000  0.991  0.991
  2  0.000  0.000  0.000  0.000
tot  0.000  0.000  0.991  0.991
 
band   6 # energy   -9.26642883 # occ.  2.00000000
 
ion      s      p      d    tot
  1  0.130  0.018  0.018  0.166
  2  0.464  0.007  0.000  0.472
tot  0.595  0.025  0.018  0.638
 
band   7 # energy   -1.54489643 # occ.  2.00000000
 
ion      s      p      d    tot
  1  0.241  0.059  0.020  0.319
  2  0.117  0.182  0.005  0.304
tot  0.358  0.241  0.025  0.624
 
band   8 # energy    1.55813451 # occ.  2.00000000
 
ion      s      p      d    tot
  1  0.038  0.150  0.026  0.213
  2  0.016  0.313  0.007  0.336
tot  0.054  0.462  0.032  0.549
 
band   9 # energy    1.82398115 # occ.  2.00000000
 
ion      s      p      d    tot
  1  0.000  0.172  0.025  0.198
  2  0.000  0.353  0.005  0.358
tot  0.000  0.525  0.030  0.555
 
band  10 # energy    6.74867386 # occ.  0.00000000
 
ion      s      p      d    tot
  1  0.155  0.104  0.033  0.291
  2  0.045  0.122  0.038  0.204
tot  0.200  0.226  0.070  0.496
 
band  11 # energy    8.17687987 # occ.  0.00000000
 
ion      s      p      d    tot
  1  0.110  0.187  0.016  0.313
  2  0.084  0.134  0.030  0.249
tot  0.194  0.321  0.046  0.561
 
band  12 # energy    9.97586682 # occ.  0.00000000
 
ion      s      p      d    tot
  1  0.001  0.145  0.063  0.209
  2  0.012  0.076  0.070  0.158
tot  0.013  0.221  0.132  0.367
 
band  13 # energy   10.52958376 # occ.  0.00000000
 
ion      s      p      d    tot
  1  0.000  0.278  0.047  0.325
  2  0.000  0.132  0.075  0.207
tot  0.000  0.410  0.122  0.533
 
band  14 # energy   13.39247811 # occ.  0.00000000
 
ion      s      p      d    tot
  1  0.033  0.106  0.065  0.203
  2  0.040  0.184  0.055  0.278
tot  0.073  0.289  0.120  0.482
 
band  15 # energy   15.33430898 # occ.  0.00000000
 
ion      s      p      d    tot
  1  0.069  0.119  0.031  0.218
  2  0.003  0.019  0.046  0.067
tot  0.071  0.138  0.076  0.286
 
band  16 # energy   15.46832205 # occ.  0.00000000
 
ion      s      p      d    tot
  1  0.000  0.046  0.122  0.169
  2  0.000  0.022  0.160  0.182
tot  0.000  0.068  0.282  0.350
 

 k-point    7 :    0.50000000 0.16666667 0.00000000     weight = 0.11111111

band   1 # energy  -13.92207378 # occ.  2.00000000
 
ion      s      p      d    tot
  1  0.000  0.000  0.968  0.969
  2  0.015  0.000  0.000  0.015
tot  0.015  0.001  0.968  0.984
 
band   2 # energy  -13.84236495 # occ.  2.00000000
 
ion      s      p      d    tot
  1  0.000  0.000  0.988  0.988
  2  0.000  0.002  0.000  0.002
tot  0.000  0.002  0.988  0.990
 
band   3 # energy  -13.83905735 # occ.  2.00000000
 
ion      s      p      d    tot
  1  0.000  0.000  0.988  0.988
  2  0.000  0.002  0.000  0.002
tot  0.000  0.002  0.988  0.990
 
band   4 # energy  -13.78789940 # occ.  2.00000000
 
ion      s      p      d    tot
  1  0.000  0.000  0.990  0.990
  2  0.000  0.000  0.000  0.000
tot  0.000  0.000  0.990  0.991
 
band   5 # energy  -13.78012559 # occ.  2.00000000
 
ion      s      p      d    tot
  1  0.000  0.000  0.991  0.991
  2  0.000  0.000  0.000  0.000
tot  0.000  0.000  0.991  0.991
 
band   6 # energy   -8.39173504 # occ.  2.00000000
 
ion      s      p      d    tot
  1  0.078  0.033  0.031  0.142
  2  0.530  0.004  0.001  0.534
tot  0.608  0.037  0.031  0.676
 
band   7 # energy   -3.40765556 # occ.  2.00000000
 
ion      s      p      d    tot
  1  0.293  0.050  0.003  0.347
  2  0.042  0.167  0.004  0.213
tot  0.335  0.218  0.007  0.560
 
band   8 # energy    0.71800399 # occ.  2.00000000
 
ion      s      p      d    tot
  1  0.055  0.144  0.019  0.218
  2  0.024  0.279  0.006  0.308
tot  0.079  0.422  0.025  0.526
 
band   9 # energy    1.74254676 # occ.  2.00000000
 
ion      s      p      d    tot
  1  0.000  0.179  0.022  0.201
  2  0.000  0.355  0.004  0.359
tot  0.000  0.534  0.026  0.560
 
band  10 # energy    6.59532584 # occ.  0.00000000
 
ion      s      p      d    tot
  1  0.180  0.090  0.032  0.301
  2  0.078  0.108  0.034  0.220
tot  0.258  0.197  0.066  0.521
 
band  11 # energy    8.81195504 # occ.  0.00000000
 
ion      s      p      d    tot
  1  0.057  0.147  0.040  0.244
  2  0.029  0.123  0.050  0.202
tot  0.086  0.270  0.090  0.447
 
band  12 # energy   10.18694839 # occ.  0.00000000
 
ion      s      p      d    tot
  1  0.000  0.223  0.058  0.281
  2  0.000  0.099  0.077  0.176
tot  0.000  0.323  0.135  0.458
 
band  13 # energy   11.52285011 # occ.  0.00000000
 
ion      s      p      d    tot
  1  0.023  0.156  0.052  0.231
  2  0.018  0.142  0.054  0.214
tot  0.041  0.298  0.107  0.445
 
band  14 # energy   14.39158855 # occ.  0.00000000
 
ion      s      p      d    tot
  1  0.011  0.098  0.057  0.165
  2  0.003  0.111  0.037  0.151
tot  0.013  0.209  0.093  0.316
 
band  15 # energy   16.22230682 # occ.  0.00000000
 
ion      s      p      d    tot
  1  0.075  0.060  0.038  0.174
  2  0.015  0.146  0.025  0.186
tot  0.090  0.207  0.063  0.360
 
band  16 # energy   16.54821062 # occ.  0.00000000
 
ion      s      p      d    tot
  1  0.000  0.147  0.065  0.212
  2  0.000  0.061  0.140  0.201
tot  0.000  0.208  0.205  0.413
 

 k-point    8 :   -0.33333333 0.16666667 0.00000000     weight = 0.11111111

band   1 # energy  -13.91663766 # occ.  2.00000000
 
ion      s      p      d    tot
  1  0.000  0.000  0.969  0.970
  2  0.014  0.000  0.000  0.014
tot  0.014  0.001  0.969  0.984
 
band   2 # energy  -13.84358036 # occ.  2.00000000
 
ion      s      p      d    tot
  1  0.000  0.000  0.987  0.988
  2  0.000  0.002  0.000  0.002
tot  0.000  0.002  0.988  0.990
 
band   3 # energy  -13.84284123 # occ.  2.00000000
 
ion      s      p      d    tot
  1  0.000  0.000  0.988  0.988
  2  0.000  0.002  0.000  0.002
tot  0.000  0.002  0.988  0.990
 
band   4 # energy  -13.78475164 # occ.  2.00000000
 
ion      s      p      d    tot
  1  0.000  0.000  0.991  0.991
  2  0.000  0.000  0.000  0.000
tot  0.000  0.000  0.991  0.991
 
band   5 # energy  -13.78353920 # occ.  2.00000000
 
ion      s      p      d    tot
  1  0.000  0.000  0.991  0.991
  2  0.000  0.000  0.000  0.000
tot  0.000  0.000  0.991  0.991
 
band   6 # energy   -8.64029400 # occ.  2.00000000
 
ion      s      p      d    tot
  1  0.097  0.028  0.027  0.152
  2  0.506  0.006  0.001  0.512
tot  0.603  0.034  0.027  0.664
 
band   7 # energy   -2.93802953 # occ.  2.00000000
 
ion      s      p      d    tot
  1  0.275  0.055  0.008  0.337
  2  0.068  0.169  0.004  0.241
tot  0.343  0.224  0.012  0.578
 
band   8 # energy    0.49182606 # occ.  2.00000000
 
ion      s      p      d    tot
  1  0.046  0.148  0.017  0.211
  2  0.017  0.275  0.005  0.297
tot  0.063  0.422  0.023  0.508
 
band   9 # energy    2.21843304 # occ.  2.00000000
 
ion      s      p      d    tot
  1  0.000  0.171  0.028  0.200
  2  0.000  0.378  0.005  0.383
tot  0.000  0.549  0.033  0.582
 
band  10 # energy    6.78701667 # occ.  0.00000000
 
ion      s      p      d    tot
  1  0.207  0.098  0.025  0.330
  2  0.094  0.113  0.030  0.238
tot  0.301  0.211  0.056  0.568
 
band  11 # energy    9.04920657 # occ.  0.00000000
 
ion      s      p      d    tot
  1  0.030  0.145  0.047  0.222
  2  0.019  0.109  0.055  0.183
tot  0.049  0.253  0.103  0.405
 
band  12 # energy    9.72570562 # occ.  0.00000000
 
ion      s      p      d    tot
  1  0.000  0.260  0.046  0.306
  2  0.000  0.091  0.070  0.161
tot  0.000  0.350  0.116  0.467
 
band  13 # energy   11.66648547 # occ.  0.00000000
 
ion      s      p      d    tot
  1  0.048  0.124  0.037  0.209
  2  0.030  0.228  0.036  0.294
tot  0.078  0.352  0.073  0.503
 
band  14 # energy   13.50330441 # occ.  0.00000000
 
ion      s      p      d    tot
  1  0.000  0.066  0.114  0.180
  2  0.000  0.026  0.124  0.150
tot  0.000  0.093  0.238  0.330
 
band  15 # energy   14.60795052 # occ.  0.00000000
 
ion      s      p      d    tot
  1  0.025  0.197  0.039  0.262
  2  0.007  0.067  0.033  0.107
tot  0.032  0.265  0.072  0.369
 
band  16 # energy   16.37576765 # occ.  0.00000000
 
ion      s      p      d    tot
  1  0.046  0.085  0.064  0.195
  2  0.029  0.044  0.058  0.132
tot  0.075  0.129  0.122  0.326
 

 k-point    9 :   -0.16666667 0.16666667 0.00000000     weight = 0.05555556

band   1 # energy  -13.89669754 # occ.  2.00000000
 
ion      s      p      d    tot
  1  0.000  0.000  0.975  0.975
  2  0.009  0.001  0.000  0.010
tot  0.009  0.002  0.975  0.986
 
band   2 # energy  -13.85284783 # occ.  2.00000000
 
ion      s      p      d    tot
  1  0.000  0.000  0.987  0.987
  2  0.000  0.003  0.000  0.003
tot  0.000  0.003  0.987  0.990
 
band   3 # energy  -13.84950863 # occ.  2.00000000
 
ion      s      p      d    tot
  1  0.000  0.000  0.987  0.987
  2  0.000  0.002  0.000  0.003
tot  0.000  0.002  0.987  0.990
 
band   4 # energy  -13.78678087 # occ.  2.00000000
 
ion      s      p      d    tot
  1  0.000  0.000  0.990  0.990
  2  0.000  0.000  0.000  0.000
tot  0.000  0.000  0.991  0.991
 
band   5 # energy  -13.78250531 # occ.  2.00000000
 
ion      s      p      d    tot
  1  0.000  0.000  0.991  0.991
  2  0.000  0.000  0.000  0.000
tot  0.000  0.000  0.991  0.991
 
band   6 # energy   -9.57365518 # occ.  2.00000000
 
ion      s      p      d    tot
  1  0.144  0.013  0.014  0.171
  2  0.452  0.006  0.000  0.458
tot  0.596  0.019  0.014  0.629
 
band   7 # energy   -0.84594642 # occ.  2.00000000
 
ion      s      p      d    tot
  1  0.217  0.065  0.024  0.307
  2  0.128  0.194  0.005  0.327
tot  0.345  0.259  0.029  0.633
 
band   8 # energy    1.29154844 # occ.  2.00000000
 
ion      s      p      d    tot
  1  0.022  0.157  0.023  0.202
  2  0.002  0.304  0.007  0.314
tot  0.024  0.461  0.030  0.516
 
band   9 # energy    2.94599473 # occ.  2.00000000
 
ion      s      p      d    tot
  1  0.000  0.146  0.043  0.189
  2  0.000  0.418  0.006  0.424
tot  0.000  0.564  0.049  0.613
 
band  10 # energy    6.97073998 # occ.  0.00000000
 
ion      s      p      d    tot
  1  0.243  0.107  0.012  0.362
  2  0.125  0.143  0.020  0.288
tot  0.367  0.249  0.032  0.649
 
band  11 # energy    8.79326432 # occ.  0.00000000
 
ion      s      p      d    tot
  1  0.042  0.199  0.040  0.280
  2  0.040  0.111  0.053  0.205
tot  0.082  0.310  0.093  0.486
 
band  12 # energy    8.96915693 # occ.  0.00000000
 
ion      s      p      d    tot
  1  0.000  0.346  0.023  0.369
  2  0.000  0.074  0.066  0.140
tot  0.000  0.420  0.088  0.509
 
band  13 # energy   10.05961705 # occ.  0.00000000
 
ion      s      p      d    tot
  1  0.023  0.150  0.037  0.211
  2  0.020  0.165  0.049  0.234
tot  0.043  0.316  0.086  0.444
 
band  14 # energy   12.37495807 # occ.  0.00000000
 
ion      s      p      d    tot
  1  0.000  0.002  0.127  0.129
  2  0.000  0.001  0.120  0.122
tot  0.000  0.004  0.247  0.251
 
band  15 # energy   14.43943052 # occ.  0.00000000
 
ion      s      p      d    tot
  1  0.001  0.132  0.076  0.209
  2  0.025  0.086  0.048  0.159
tot  0.026  0.218  0.124  0.368
 
band  16 # energy   15.27103438 # occ.  0.00000000
 
ion      s      p      d    tot
  1  0.125  0.180  0.006  0.311
  2  0.001  0.042  0.046  0.089
tot  0.126  0.222  0.052  0.400
 

 k-point   10 :    0.33333333 0.33333333 0.00000000     weight = 0.02777778

band   1 # energy  -13.92914594 # occ.  2.00000000
 
ion      s      p      d    tot
  1  0.000  0.000  0.969  0.970
  2  0.013  0.001  0.000  0.014
tot  0.013  0.001  0.969  0.984
 
band   2 # energy  -13.83156750 # occ.  2.00000000
 
ion      s      p      d    tot
  1  0.000  0.000  0.989  0.989
  2  0.000  0.002  0.000  0.002
tot  0.000  0.002  0.989  0.991
 
band   3 # energy  -13.83156671 # occ.  2.00000000
 
ion      s      p      d    tot
  1  0.000  0.000  0.989  0.989
  2  0.000  0.002  0.000  0.002
tot  0.000  0.002  0.989  0.991
 
band   4 # energy  -13.79979677 # occ.  2.00000000
 
ion      s      p      d    tot
  1  0.000  0.000  0.988  0.988
  2  0.000  0.000  0.000  0.001
tot  0.000  0.000  0.989  0.989
 
band   5 # energy  -13.77585428 # occ.  2.00000000
 
ion      s      p      d    tot
  1  0.000  0.000  0.992  0.992
  2  0.000  0.000  0.000  0.000
tot  0.000  0.000  0.992  0.992
 
band   6 # energy   -8.75877889 # occ.  2.00000000
 
ion      s      p      d    tot
  1  0.102  0.029  0.022  0.152
  2  0.490  0.008  0.000  0.499
tot  0.592  0.037  0.022  0.651
 
band   7 # energy   -2.22562571 # occ.  2.00000000
 
ion      s      p      d    tot
  1  0.317  0.029  0.020  0.366
  2  0.115  0.165  0.005  0.286
tot  0.432  0.194  0.025  0.651
 
band   8 # energy    1.10384594 # occ.  2.00000000
 
ion      s      p      d    tot
  1  0.000  0.184  0.015  0.198
  2  0.000  0.328  0.003  0.332
tot  0.000  0.512  0.018  0.530
 
band   9 # energy    1.10384932 # occ.  2.00000000
 
ion      s      p      d    tot
  1  0.000  0.184  0.015  0.198
  2  0.000  0.328  0.003  0.332
tot  0.000  0.512  0.018  0.530
 
band  10 # energy    5.72980829 # occ.  0.00000000
 
ion      s      p      d    tot
  1  0.111  0.122  0.034  0.266
  2  0.026  0.041  0.045  0.112
tot  0.137  0.163  0.078  0.378
 
band  11 # energy    6.88384072 # occ.  0.00000000
 
ion      s      p      d    tot
  1  0.108  0.059  0.047  0.214
  2  0.051  0.087  0.038  0.176
tot  0.158  0.146  0.085  0.389
 
band  12 # energy   12.65028743 # occ.  0.00000000
 
ion      s      p      d    tot
  1  0.000  0.304  0.046  0.350
  2  0.000  0.190  0.073  0.264
tot  0.000  0.494  0.119  0.614
 
band  13 # energy   12.65029333 # occ.  0.00000000
 
ion      s      p      d    tot
  1  0.000  0.304  0.046  0.350
  2  0.000  0.190  0.073  0.264
tot  0.000  0.494  0.119  0.614
 
band  14 # energy   13.25694026 # occ.  0.00000000
 
ion      s      p      d    tot
  1  0.095  0.043  0.043  0.181
  2  0.083  0.231  0.031  0.346
tot  0.178  0.275  0.075  0.527
 
band  15 # energy   16.46101197 # occ.  0.00000000
 
ion      s      p      d    tot
  1  0.000  0.000  0.126  0.126
  2  0.000  0.000  0.219  0.219
tot  0.000  0.000  0.345  0.345
 