  96  96   0   0
  0.2080188E+02  0.1257760E-08  0.1245754E-08  0.1274818E-08  0.5000000E-15
  1.000000000000000E-004
  CAR 
 MAPbI3-Cubic                            
      8.78912233    -18.99746378  301      1.12465566      1.00000000
    -18.997  0.0000E+00  0.0000E+00
    -18.905  0.0000E+00  0.0000E+00
    -18.812  0.0000E+00  0.0000E+00
    -18.720  0.0000E+00  0.0000E+00
    -18.627  0.0000E+00  0.0000E+00
    -18.534  0.0000E+00  0.0000E+00
    -18.442  0.0000E+00  0.0000E+00
    -18.349  0.0000E+00  0.0000E+00
    -18.256  0.0000E+00  0.0000E+00
    -18.164  0.0000E+00  0.0000E+00
    -18.071  0.0000E+00  0.0000E+00
    -17.979  0.0000E+00  0.0000E+00
    -17.886  0.0000E+00  0.0000E+00
    -17.793  0.0000E+00  0.0000E+00
    -17.701  0.0000E+00  0.8000E+01
    -17.608  0.0000E+00  0.8000E+01
    -17.516  0.0000E+00  0.1600E+02
    -17.423  0.0000E+00  0.1600E+02
    -17.330  0.0000E+00  0.1600E+02
    -17.238  0.0000E+00  0.1600E+02
    -17.145  0.0000E+00  0.1600E+02
    -17.052  0.0000E+00  0.1600E+02
    -16.960  0.0000E+00  0.1600E+02
    -16.867  0.0000E+00  0.1600E+02
    -16.775  0.0000E+00  0.1600E+02
    -16.682  0.0000E+00  0.1600E+02
    -16.589  0.0000E+00  0.1600E+02
    -16.497  0.0000E+00  0.1600E+02
    -16.404  0.0000E+00  0.1600E+02
    -16.311  0.0000E+00  0.1600E+02
    -16.219  0.0000E+00  0.1600E+02
    -16.126  0.0000E+00  0.1600E+02
    -16.034  0.0000E+00  0.1600E+02
    -15.941  0.0000E+00  0.1600E+02
    -15.848  0.0000E+00  0.1600E+02
    -15.756  0.0000E+00  0.1600E+02
    -15.663  0.0000E+00  0.1600E+02
    -15.570  0.0000E+00  0.1600E+02
    -15.478  0.0000E+00  0.1600E+02
    -15.385  0.0000E+00  0.1600E+02
    -15.293  0.0000E+00  0.1600E+02
    -15.200  0.5518E+02  0.4800E+02
    -15.107  0.0000E+00  0.9600E+02
    -15.015  0.0000E+00  0.9600E+02
    -14.922  0.0000E+00  0.9600E+02
    -14.829  0.0000E+00  0.9600E+02
    -14.737  0.0000E+00  0.9600E+02
    -14.644  0.0000E+00  0.9600E+02
    -14.552  0.0000E+00  0.9600E+02
    -14.459  0.0000E+00  0.9600E+02
    -14.366  0.0000E+00  0.9600E+02
    -14.274  0.0000E+00  0.9600E+02
    -14.181  0.0000E+00  0.9600E+02
    -14.089  0.0000E+00  0.9600E+02
    -13.996  0.0000E+00  0.9600E+02
    -13.903  0.0000E+00  0.9600E+02
    -13.811  0.0000E+00  0.9600E+02
    -13.718  0.0000E+00  0.9600E+02
    -13.625  0.0000E+00  0.9600E+02
    -13.533  0.0000E+00  0.9600E+02
    -13.440  0.0000E+00  0.9600E+02
    -13.348  0.0000E+00  0.9600E+02
    -13.255  0.0000E+00  0.9600E+02
    -13.162  0.0000E+00  0.9600E+02
    -13.070  0.0000E+00  0.9600E+02
    -12.977  0.0000E+00  0.9600E+02
    -12.884  0.0000E+00  0.9600E+02
    -12.792  0.0000E+00  0.9600E+02
    -12.699  0.0000E+00  0.9600E+02
    -12.607  0.0000E+00  0.9600E+02
    -12.514  0.0000E+00  0.9600E+02
    -12.421  0.0000E+00  0.9600E+02
    -12.329  0.0000E+00  0.9600E+02
    -12.236  0.0000E+00  0.9600E+02
    -12.143  0.0000E+00  0.9600E+02
    -12.051  0.0000E+00  0.9600E+02
    -11.958  0.0000E+00  0.9600E+02
    -11.866  0.0000E+00  0.9600E+02
    -11.773  0.0000E+00  0.9600E+02
    -11.680  0.0000E+00  0.9600E+02
    -11.588  0.0000E+00  0.9600E+02
    -11.495  0.0000E+00  0.9600E+02
    -11.402  0.0000E+00  0.9600E+02
    -11.310  0.0000E+00  0.9600E+02
    -11.217  0.0000E+00  0.9600E+02
    -11.125  0.8784E+01  0.9704E+02
    -11.032  0.0000E+00  0.1040E+03
    -10.939  0.0000E+00  0.1040E+03
    -10.847  0.0000E+00  0.1120E+03
    -10.754  0.2228E-10  0.1121E+03
    -10.661  0.1463E-02  0.1139E+03
    -10.569  0.3195E+01  0.1198E+03
    -10.476  0.1115E+02  0.1270E+03
    -10.384  0.4798E+01  0.1287E+03
    -10.291  0.2079E+02  0.1350E+03
    -10.198  0.1624E+01  0.1396E+03
    -10.106  0.1985E+02  0.1497E+03
    -10.013  0.4286E+01  0.1599E+03
     -9.921  0.0000E+00  0.1600E+03
     -9.828  0.0000E+00  0.1600E+03
     -9.735  0.0000E+00  0.1600E+03
     -9.643  0.0000E+00  0.1600E+03
     -9.550  0.0000E+00  0.1600E+03
     -9.457  0.0000E+00  0.1600E+03
     -9.365  0.0000E+00  0.1600E+03
     -9.272  0.0000E+00  0.1600E+03
     -9.180  0.0000E+00  0.1600E+03
     -9.087  0.0000E+00  0.1600E+03
     -8.994  0.0000E+00  0.1600E+03
     -8.902  0.0000E+00  0.1600E+03
     -8.809  0.0000E+00  0.1600E+03
     -8.716  0.0000E+00  0.1600E+03
     -8.624  0.0000E+00  0.1600E+03
     -8.531  0.0000E+00  0.1600E+03
     -8.439  0.0000E+00  0.1600E+03
     -8.346  0.0000E+00  0.1600E+03
     -8.253  0.0000E+00  0.1600E+03
     -8.161  0.0000E+00  0.1600E+03
     -8.068  0.0000E+00  0.1600E+03
     -7.975  0.0000E+00  0.1600E+03
     -7.883  0.0000E+00  0.1600E+03
     -7.790  0.0000E+00  0.1600E+03
     -7.698  0.0000E+00  0.1600E+03
     -7.605  0.0000E+00  0.1600E+03
     -7.512  0.0000E+00  0.1600E+03
     -7.420  0.0000E+00  0.1600E+03
     -7.327  0.0000E+00  0.1680E+03
     -7.234  0.1778E+00  0.1680E+03
     -7.142  0.0000E+00  0.1840E+03
     -7.049  0.0000E+00  0.1920E+03
     -6.957  0.0000E+00  0.1920E+03
     -6.864  0.1137E-02  0.1921E+03
     -6.771  0.0000E+00  0.1925E+03
     -6.679  0.1599E+01  0.1936E+03
     -6.586  0.1599E+01  0.1944E+03
     -6.494  0.1590E+01  0.1961E+03
     -6.401  0.3199E+01  0.1988E+03
     -6.308  0.3176E+01  0.2001E+03
     -6.216  0.4798E+01  0.2024E+03
     -6.123  0.4650E+01  0.2043E+03
     -6.030  0.3246E+01  0.2058E+03
     -5.938  0.3522E-05  0.2064E+03
     -5.845  0.0000E+00  0.2075E+03
     -5.753  0.0000E+00  0.2079E+03
     -5.660  0.0000E+00  0.2080E+03
     -5.567  0.1599E+01  0.2159E+03
     -5.475  0.0000E+00  0.2160E+03
     -5.382  0.0000E+00  0.2160E+03
     -5.289  0.1387E+02  0.2195E+03
     -5.197  0.0000E+00  0.2240E+03
     -5.104  0.0000E+00  0.2240E+03
     -5.012  0.0000E+00  0.2240E+03
     -4.919  0.0000E+00  0.2240E+03
     -4.826  0.0000E+00  0.2240E+03
     -4.734  0.0000E+00  0.2240E+03
     -4.641  0.0000E+00  0.2240E+03
     -4.548  0.0000E+00  0.2240E+03
     -4.456  0.0000E+00  0.2240E+03
     -4.363  0.0000E+00  0.2240E+03
     -4.271  0.0000E+00  0.2240E+03
     -4.178  0.0000E+00  0.2240E+03
     -4.085  0.0000E+00  0.2240E+03
     -3.993  0.0000E+00  0.2240E+03
     -3.900  0.0000E+00  0.2240E+03
     -3.807  0.0000E+00  0.2240E+03
     -3.715  0.0000E+00  0.2240E+03
     -3.622  0.0000E+00  0.2240E+03
     -3.530  0.0000E+00  0.2240E+03
     -3.437  0.2624E+02  0.2378E+03
     -3.344  0.3999E+01  0.2484E+03
     -3.252  0.0000E+00  0.2560E+03
     -3.159  0.0000E+00  0.2560E+03
     -3.066  0.0000E+00  0.2560E+03
     -2.974  0.0000E+00  0.2560E+03
     -2.881  0.0000E+00  0.2560E+03
     -2.789  0.0000E+00  0.2560E+03
     -2.696  0.0000E+00  0.2560E+03
     -2.603  0.0000E+00  0.2560E+03
     -2.511  0.0000E+00  0.2560E+03
     -2.418  0.0000E+00  0.2560E+03
     -2.326  0.0000E+00  0.2560E+03
     -2.233  0.0000E+00  0.2560E+03
     -2.140  0.0000E+00  0.2560E+03
     -2.048  0.0000E+00  0.2567E+03
     -1.955  0.1599E+01  0.2586E+03
     -1.862  0.0000E+00  0.2587E+03
     -1.770  0.3185E+01  0.2608E+03
     -1.677  0.7839E+00  0.2641E+03
     -1.585  0.5731E+01  0.2676E+03
     -1.492  0.6400E+01  0.2707E+03
     -1.399  0.3867E+01  0.2740E+03
     -1.307  0.1074E+01  0.2774E+03
     -1.214  0.1206E+01  0.2797E+03
     -1.121  0.0000E+00  0.2800E+03
     -1.029  0.1599E+01  0.2801E+03
     -0.936  0.4520E-04  0.2813E+03
     -0.844  0.2798E+00  0.2868E+03
     -0.751  0.4798E+01  0.2927E+03
     -0.658  0.4699E+01  0.2981E+03
     -0.566  0.4798E+01  0.3020E+03
     -0.473  0.4740E-05  0.3048E+03
     -0.380  0.1280E-02  0.3098E+03
     -0.288  0.4953E+01  0.3146E+03
     -0.195  0.8017E+01  0.3221E+03
     -0.103  0.6444E+01  0.3282E+03
     -0.010  0.8795E+01  0.3339E+03
      0.083  0.4746E+01  0.3410E+03
      0.175  0.1117E+02  0.3513E+03
      0.268  0.1690E+02  0.3600E+03
      0.361  0.4037E+01  0.3685E+03
      0.453  0.1523E+02  0.3762E+03
      0.546  0.8797E+01  0.3861E+03
      0.638  0.7997E+01  0.3933E+03
      0.731  0.1649E+01  0.3970E+03
      0.824  0.0000E+00  0.3990E+03
      0.916  0.3235E-01  0.3995E+03
      1.009  0.0000E+00  0.3999E+03
      1.102  0.0000E+00  0.4000E+03
      1.194  0.0000E+00  0.4000E+03
      1.287  0.0000E+00  0.4000E+03
      1.379  0.0000E+00  0.4000E+03
      1.472  0.0000E+00  0.4000E+03
      1.565  0.0000E+00  0.4000E+03
      1.657  0.0000E+00  0.4000E+03
      1.750  0.0000E+00  0.4000E+03
      1.842  0.0000E+00  0.4000E+03
      1.935  0.0000E+00  0.4000E+03
      2.028  0.0000E+00  0.4000E+03
      2.120  0.0000E+00  0.4000E+03
      2.213  0.0000E+00  0.4000E+03
      2.306  0.0000E+00  0.4000E+03
      2.398  0.0000E+00  0.4000E+03
      2.491  0.0000E+00  0.4000E+03
      2.583  0.0000E+00  0.4000E+03
      2.676  0.0000E+00  0.4000E+03
      2.769  0.0000E+00  0.4000E+03
      2.861  0.0000E+00  0.4000E+03
      2.954  0.1599E+01  0.4002E+03
      3.047  0.0000E+00  0.4007E+03
      3.139  0.1599E+01  0.4016E+03
      3.232  0.0000E+00  0.4033E+03
      3.324  0.2229E+01  0.4044E+03
      3.417  0.1277E+01  0.4062E+03
      3.510  0.0000E+00  0.4074E+03
      3.602  0.0000E+00  0.4081E+03
      3.695  0.3090E+01  0.4090E+03
      3.788  0.3852E-05  0.4099E+03
      3.880  0.3678E-06  0.4116E+03
      3.973  0.4853E+01  0.4145E+03
      4.065  0.3768E+01  0.4169E+03
      4.158  0.7236E-01  0.4197E+03
      4.251  0.0000E+00  0.4233E+03
      4.343  0.0000E+00  0.4239E+03
      4.436  0.0000E+00  0.4240E+03
      4.529  0.0000E+00  0.4240E+03
      4.621  0.0000E+00  0.4240E+03
      4.714  0.0000E+00  0.4240E+03
      4.806  0.0000E+00  0.4240E+03
      4.899  0.4762E+01  0.4252E+03
      4.992  0.3199E+01  0.4276E+03
      5.084  0.1599E+01  0.4299E+03
      5.177  0.3199E+01  0.4318E+03
      5.269  0.3199E+01  0.4330E+03
      5.362  0.1599E+01  0.4364E+03
      5.455  0.0000E+00  0.4392E+03
      5.547  0.0000E+00  0.4415E+03
      5.640  0.7997E+00  0.4436E+03
      5.733  0.1599E+01  0.4469E+03
      5.825  0.0000E+00  0.4487E+03
      5.918  0.1600E+01  0.4510E+03
      6.010  0.3998E+01  0.4522E+03
      6.103  0.3996E+01  0.4539E+03
      6.196  0.8003E+00  0.4575E+03
      6.288  0.3199E+01  0.4602E+03
      6.381  0.0000E+00  0.4626E+03
      6.474  0.3199E+01  0.4650E+03
      6.566  0.6396E+01  0.4701E+03
      6.659  0.3286E+01  0.4728E+03
      6.751  0.1599E+01  0.4787E+03
      6.844  0.4782E+01  0.4827E+03
      6.937  0.6221E+01  0.4872E+03
      7.029  0.3496E+01  0.4904E+03
      7.122  0.4703E+01  0.4950E+03
      7.215  0.1599E+01  0.5001E+03
      7.307  0.4798E+01  0.5047E+03
      7.400  0.3197E+01  0.5093E+03
      7.492  0.0000E+00  0.5117E+03
      7.585  0.0000E+00  0.5120E+03
      7.678  0.0000E+00  0.5120E+03
      7.770  0.0000E+00  0.5120E+03
      7.863  0.0000E+00  0.5120E+03
      7.956  0.0000E+00  0.5120E+03
      8.048  0.0000E+00  0.5120E+03
      8.141  0.0000E+00  0.5120E+03
      8.233  0.0000E+00  0.5120E+03
      8.326  0.0000E+00  0.5120E+03
      8.419  0.0000E+00  0.5120E+03
      8.511  0.0000E+00  0.5120E+03
      8.604  0.0000E+00  0.5120E+03
      8.697  0.0000E+00  0.5120E+03
      8.789  0.0000E+00  0.5120E+03
