 running on   96 total cores
 distrk:  each k-point on   24 cores,    4 groups
 distr:  one band on    3 cores,    8 groups
 using from now: INCAR     
 vasp.5.4.1 24Jun15 (build Nov 25 2015 16:01:35) complex                        
  
 POSCAR found :  5 types and      96 ions
 scaLAPACK will be used

 ----------------------------------------------------------------------------- 
|                                                                             |
|           W    W    AA    RRRRR   N    N  II  N    N   GGGG   !!!           |
|           W    W   A  A   R    R  NN   N  II  NN   N  G    G  !!!           |
|           W    W  A    A  R    R  N N  N  II  N N  N  G       !!!           |
|           W WW W  AAAAAA  RRRRR   N  N N  II  N  N N  G  GGG   !            |
|           WW  WW  A    A  R   R   N   NN  II  N   NN  G    G                |
|           W    W  A    A  R    R  N    N  II  N    N   GGGG   !!!           |
|                                                                             |
|      For optimal performance we recommend to set                            |
|        NCORE= 4 - approx SQRT( number of cores)                             |
|      NCORE specifies how many cores store one orbital (NPAR=cpu/NCORE).     |
|      This setting can  greatly improve the performance of VASP for DFT.     |
|      The default, NPAR=number of cores might be grossly inefficient         |
|      on modern multi-core architectures or massively parallel machines.     |
|      Do your own testing !!!!                                               |
|      Unfortunately you need to use the default for GW and RPA calculations. |
|      (for HF NCORE is supported but not extensively tested yet)             |
|                                                                             |
 ----------------------------------------------------------------------------- 


 ----------------------------------------------------------------------------- 
|                                                                             |
|           W    W    AA    RRRRR   N    N  II  N    N   GGGG   !!!           |
|           W    W   A  A   R    R  NN   N  II  NN   N  G    G  !!!           |
|           W    W  A    A  R    R  N N  N  II  N N  N  G       !!!           |
|           W WW W  AAAAAA  RRRRR   N  N N  II  N  N N  G  GGG   !            |
|           WW  WW  A    A  R   R   N   NN  II  N   NN  G    G                |
|           W    W  A    A  R    R  N    N  II  N    N   GGGG   !!!           |
|                                                                             |
|      You have enabled k-point parallelism (KPAR>1).                         |
|      This developmental code was originally  written by Paul Kent at ORNL,  |
|      and carefully double checked in Vienna.                                |
|      GW as well as linear response parallelism added by Martijn Marsman     |
|      and Georg Kresse.                                                      |
|      Carefully verify results versus KPAR=1.                                |
|      Report problems to Paul Kent and Vienna.                               |
|                                                                             |
 ----------------------------------------------------------------------------- 


 ----------------------------------------------------------------------------- 
|                                                                             |
|  ADVICE TO THIS USER RUNNING 'VASP/VAMP'   (HEAR YOUR MASTER'S VOICE ...):  |
|                                                                             |
|      You have a (more or less) 'large supercell' and for larger cells       |
|      it might be more efficient to use real space projection opertators     |
|      So try LREAL= Auto  in the INCAR   file.                               |
|      Mind: At the moment your POTCAR file does not contain real space       |
|       projectors, and has to be modified,  BUT if you                       |
|      want to do an extremely  accurate calculation you might also keep the  |
|      reciprocal projection scheme          (i.e. LREAL=.FALSE.)             |
|                                                                             |
 ----------------------------------------------------------------------------- 


 ----------------------------------------------------------------------------- 
|                                                                             |
|  ADVICE TO THIS USER RUNNING 'VASP/VAMP'   (HEAR YOUR MASTER'S VOICE ...):  |
|                                                                             |
|      You enforced a specific xc-type in the INCAR file,                     |
|      a different type was found on the POTCAR file                          |
|          I HOPE YOU KNOW, WHAT YOU ARE  DOING                               |
|                                                                             |
 ----------------------------------------------------------------------------- 

 LDA part: xc-table for Pade appr. of Perdew
 POSCAR, INCAR and KPOINTS ok, starting setup
 WARNING: small aliasing (wrap around) errors must be expected
 FFT: planning ...
 WAVECAR not read
 entering main loop
       N       E                     dE             d eps       ncg     rms          rms(c)
DAV:   1     0.357670392757E+04    0.35767E+04   -0.18920E+05  7176   0.170E+03
DAV:   2     0.198745398906E+03   -0.33780E+04   -0.31692E+04  8032   0.353E+02
DAV:   3    -0.394484642324E+03   -0.59323E+03   -0.58421E+03  9424   0.171E+02
DAV:   4    -0.435285578680E+03   -0.40801E+02   -0.40623E+02  9696   0.493E+01
DAV:   5    -0.436784498359E+03   -0.14989E+01   -0.14959E+01  9784   0.909E+00    0.282E+01
DAV:   6    -0.417367043400E+03    0.19417E+02   -0.38396E+01 10248   0.109E+01    0.150E+01
DAV:   7    -0.415061454286E+03    0.23056E+01   -0.15666E+01 10104   0.682E+00    0.756E+00
DAV:   8    -0.414893924731E+03    0.16753E+00   -0.33637E+00  8616   0.340E+00    0.184E+00
DAV:   9    -0.414816855993E+03    0.77069E-01   -0.72353E-01  9216   0.179E+00    0.659E-01
DAV:  10    -0.414828336232E+03   -0.11480E-01   -0.11807E-01  8848   0.609E-01    0.463E-01
DAV:  11    -0.414827943288E+03    0.39294E-03   -0.14810E-02  9560   0.309E-01    0.211E-01
DAV:  12    -0.414829372946E+03   -0.14297E-02   -0.92776E-03 10088   0.155E-01    0.982E-02
DAV:  13    -0.414829645795E+03   -0.27285E-03   -0.11588E-03  8128   0.729E-02    0.664E-02
DAV:  14    -0.414829696604E+03   -0.50809E-04   -0.24895E-04  9064   0.297E-02    0.292E-02
DAV:  15    -0.414829749394E+03   -0.52789E-04   -0.13728E-04  8232   0.202E-02    0.113E-02
DAV:  16    -0.414829753579E+03   -0.41859E-05   -0.18034E-05 10456   0.825E-03    0.126E-02
DAV:  17    -0.414829752807E+03    0.77212E-06   -0.24362E-06  9600   0.302E-03    0.646E-03
DAV:  18    -0.414829753274E+03   -0.46710E-06   -0.84701E-06  8728   0.477E-03    0.293E-03
DAV:  19    -0.414829753371E+03   -0.96665E-07   -0.98225E-07  9880   0.218E-03    0.296E-03
DAV:  20    -0.414829753359E+03    0.12369E-07   -0.19648E-07  8216   0.852E-04    0.115E-03
DAV:  21    -0.414829753397E+03   -0.38119E-07   -0.23798E-07  9672   0.783E-04    0.617E-04
DAV:  22    -0.414829753380E+03    0.17037E-07   -0.23992E-08  7600   0.430E-04    0.205E-04
DAV:  23    -0.414829753373E+03    0.69595E-08   -0.14382E-09  7656   0.158E-04    0.196E-04
DAV:  24    -0.414829753374E+03   -0.82218E-09    0.18268E-09  7520   0.614E-05    0.160E-04
DAV:  25    -0.414829753376E+03   -0.23756E-08    0.18122E-09  6760   0.578E-05    0.157E-04
DAV:  26    -0.414829753374E+03    0.25393E-08    0.19890E-09  5224   0.390E-05    0.152E-04
DAV:  27    -0.414829753374E+03   -0.34925E-09    0.18516E-09  4416   0.208E-05    0.151E-04
DAV:  28    -0.414829753374E+03   -0.19281E-09    0.14564E-09  4312   0.141E-05    0.151E-04
DAV:  29    -0.414829753374E+03    0.32742E-09    0.13679E-09  4288   0.103E-05    0.151E-04
DAV:  30    -0.414829753374E+03   -0.94587E-10    0.15417E-09  4256   0.803E-06    0.151E-04
DAV:  31    -0.414829753374E+03   -0.14188E-09    0.13981E-09  4256   0.486E-06    0.151E-04
DAV:  32    -0.414829753374E+03   -0.10914E-10    0.11117E-09  4256   0.400E-06    0.151E-04
DAV:  33    -0.414829753374E+03   -0.17462E-09    0.12303E-09  4256   0.278E-06    0.151E-04
DAV:  34    -0.414829753374E+03    0.72760E-11    0.11416E-09  4256   0.256E-06    0.151E-04
DAV:  35    -0.414829753374E+03    0.83674E-10    0.10292E-09  4232   0.194E-06    0.151E-04
DAV:  36    -0.414829753374E+03   -0.26557E-09    0.10068E-09  4232   0.103E-06    0.151E-04
DAV:  37    -0.414829753374E+03    0.24374E-09    0.76036E-10  4232   0.626E-07    0.151E-04
DAV:  38    -0.414829753374E+03    0.32014E-09    0.76458E-10  4208   0.500E-07    0.151E-04
DAV:  39    -0.414829753374E+03   -0.35288E-09    0.76701E-10  4144   0.342E-07    0.151E-04
DAV:  40    -0.414829753374E+03    0.18190E-09    0.72947E-10  4080   0.288E-07    0.151E-04
DAV:  41    -0.414829753374E+03    0.50932E-10    0.64732E-10  4040   0.157E-07
   1 F= -.41482975E+03 E0= -.41482975E+03  d E =0.000000E+00
Application 22454144 resources: utime ~312728s, stime ~280s, Rss ~648764, inblocks ~904478, outblocks ~776432
