 running on   96 total cores
 distrk:  each k-point on   24 cores,    4 groups
 distr:  one band on    3 cores,    8 groups
 using from now: INCAR     
 vasp.5.4.1 24Jun15 (build Nov 25 2015 16:01:35) complex                        
  
 POSCAR found type information on POSCAR  C  N  H  Pb I 
 POSCAR found :  5 types and      96 ions
 scaLAPACK will be used

 ----------------------------------------------------------------------------- 
|                                                                             |
|           W    W    AA    RRRRR   N    N  II  N    N   GGGG   !!!           |
|           W    W   A  A   R    R  NN   N  II  NN   N  G    G  !!!           |
|           W    W  A    A  R    R  N N  N  II  N N  N  G       !!!           |
|           W WW W  AAAAAA  RRRRR   N  N N  II  N  N N  G  GGG   !            |
|           WW  WW  A    A  R   R   N   NN  II  N   NN  G    G                |
|           W    W  A    A  R    R  N    N  II  N    N   GGGG   !!!           |
|                                                                             |
|      For optimal performance we recommend to set                            |
|        NCORE= 4 - approx SQRT( number of cores)                             |
|      NCORE specifies how many cores store one orbital (NPAR=cpu/NCORE).     |
|      This setting can  greatly improve the performance of VASP for DFT.     |
|      The default, NPAR=number of cores might be grossly inefficient         |
|      on modern multi-core architectures or massively parallel machines.     |
|      Do your own testing !!!!                                               |
|      Unfortunately you need to use the default for GW and RPA calculations. |
|      (for HF NCORE is supported but not extensively tested yet)             |
|                                                                             |
 ----------------------------------------------------------------------------- 


 ----------------------------------------------------------------------------- 
|                                                                             |
|           W    W    AA    RRRRR   N    N  II  N    N   GGGG   !!!           |
|           W    W   A  A   R    R  NN   N  II  NN   N  G    G  !!!           |
|           W    W  A    A  R    R  N N  N  II  N N  N  G       !!!           |
|           W WW W  AAAAAA  RRRRR   N  N N  II  N  N N  G  GGG   !            |
|           WW  WW  A    A  R   R   N   NN  II  N   NN  G    G                |
|           W    W  A    A  R    R  N    N  II  N    N   GGGG   !!!           |
|                                                                             |
|      You have enabled k-point parallelism (KPAR>1).                         |
|      This developmental code was originally  written by Paul Kent at ORNL,  |
|      and carefully double checked in Vienna.                                |
|      GW as well as linear response parallelism added by Martijn Marsman     |
|      and Georg Kresse.                                                      |
|      Carefully verify results versus KPAR=1.                                |
|      Report problems to Paul Kent and Vienna.                               |
|                                                                             |
 ----------------------------------------------------------------------------- 


 ----------------------------------------------------------------------------- 
|                                                                             |
|  ADVICE TO THIS USER RUNNING 'VASP/VAMP'   (HEAR YOUR MASTER'S VOICE ...):  |
|                                                                             |
|      You have a (more or less) 'large supercell' and for larger cells       |
|      it might be more efficient to use real space projection opertators     |
|      So try LREAL= Auto  in the INCAR   file.                               |
|      Mind: At the moment your POTCAR file does not contain real space       |
|       projectors, and has to be modified,  BUT if you                       |
|      want to do an extremely  accurate calculation you might also keep the  |
|      reciprocal projection scheme          (i.e. LREAL=.FALSE.)             |
|                                                                             |
 ----------------------------------------------------------------------------- 


 ----------------------------------------------------------------------------- 
|                                                                             |
|  ADVICE TO THIS USER RUNNING 'VASP/VAMP'   (HEAR YOUR MASTER'S VOICE ...):  |
|                                                                             |
|      You enforced a specific xc-type in the INCAR file,                     |
|      a different type was found on the POTCAR file                          |
|          I HOPE YOU KNOW, WHAT YOU ARE  DOING                               |
|                                                                             |
 ----------------------------------------------------------------------------- 

 LDA part: xc-table for Pade appr. of Perdew
 POSCAR, INCAR and KPOINTS ok, starting setup
 WARNING: small aliasing (wrap around) errors must be expected
 FFT: planning ...
 WAVECAR not read
 entering main loop
       N       E                     dE             d eps       ncg     rms          rms(c)
DAV:   1     0.359398616842E+04    0.35940E+04   -0.18940E+05  7176   0.170E+03
DAV:   2     0.203317551174E+03   -0.33907E+04   -0.31905E+04  7976   0.354E+02
DAV:   3    -0.397431424849E+03   -0.60075E+03   -0.59171E+03  9480   0.172E+02
DAV:   4    -0.438080260331E+03   -0.40649E+02   -0.40475E+02  9648   0.490E+01
DAV:   5    -0.439621017858E+03   -0.15408E+01   -0.15384E+01  9792   0.924E+00    0.292E+01
DAV:   6    -0.419438640069E+03    0.20182E+02   -0.40675E+01  9784   0.104E+01    0.155E+01
DAV:   7    -0.417006802425E+03    0.24318E+01   -0.14714E+01 10296   0.643E+00    0.774E+00
DAV:   8    -0.416839745583E+03    0.16706E+00   -0.31366E+00  8528   0.323E+00    0.185E+00
DAV:   9    -0.416760750265E+03    0.78995E-01   -0.77914E-01  9408   0.179E+00    0.710E-01
DAV:  10    -0.416772213754E+03   -0.11463E-01   -0.11012E-01  8928   0.585E-01    0.468E-01
DAV:  11    -0.416772097070E+03    0.11668E-03   -0.15567E-02  9904   0.289E-01    0.193E-01
DAV:  12    -0.416773459844E+03   -0.13628E-02   -0.87078E-03  9752   0.149E-01    0.102E-01
DAV:  13    -0.416773629824E+03   -0.16998E-03   -0.13026E-03  8264   0.743E-02    0.713E-02
DAV:  14    -0.416773662280E+03   -0.32455E-04   -0.29398E-04  8664   0.295E-02    0.307E-02
DAV:  15    -0.416773709075E+03   -0.46795E-04   -0.13574E-04  8048   0.196E-02    0.115E-02
DAV:  16    -0.416773712907E+03   -0.38325E-05   -0.12408E-05 10728   0.647E-03    0.122E-02
DAV:  17    -0.416773712711E+03    0.19601E-06   -0.26953E-06  8456   0.300E-03    0.597E-03
DAV:  18    -0.416773712736E+03   -0.24767E-07   -0.91460E-06 10208   0.481E-03    0.373E-03
DAV:  19    -0.416773712751E+03   -0.14981E-07   -0.89183E-07  8552   0.209E-03    0.262E-03
DAV:  20    -0.416773712732E+03    0.18459E-07   -0.44665E-07  9672   0.103E-03    0.544E-04
DAV:  21    -0.416773712775E+03   -0.42313E-07   -0.58333E-08  9112   0.457E-04    0.318E-04
DAV:  22    -0.416773712765E+03    0.99681E-08   -0.62954E-09  8280   0.194E-04    0.233E-04
DAV:  23    -0.416773712767E+03   -0.22992E-08    0.96997E-10  8168   0.939E-05    0.191E-04
DAV:  24    -0.416773712763E+03    0.43729E-08    0.53889E-10  7456   0.799E-05    0.184E-04
DAV:  25    -0.416773712765E+03   -0.22337E-08    0.18541E-09  5944   0.479E-05    0.177E-04
DAV:  26    -0.416773712767E+03   -0.23938E-08    0.14237E-09  5184   0.369E-05    0.171E-04
DAV:  27    -0.416773712768E+03   -0.11241E-08    0.21182E-09  4328   0.225E-05    0.172E-04
DAV:  28    -0.416773712768E+03    0.77853E-09    0.16626E-09  4256   0.155E-05    0.171E-04
DAV:  29    -0.416773712768E+03    0.72760E-10    0.18841E-09  4256   0.112E-05    0.170E-04
DAV:  30    -0.416773712767E+03    0.30559E-09    0.17984E-09  4256   0.899E-06    0.170E-04
DAV:  31    -0.416773712767E+03    0.54570E-10    0.10347E-09  4256   0.726E-06    0.170E-04
DAV:  32    -0.416773712767E+03   -0.17462E-09    0.15691E-09  4256   0.439E-06    0.170E-04
DAV:  33    -0.416773712768E+03   -0.13097E-09    0.12976E-09  4256   0.259E-06    0.170E-04
DAV:  34    -0.416773712767E+03    0.16007E-09    0.11016E-09  4240   0.210E-06    0.170E-04
DAV:  35    -0.416773712767E+03    0.11642E-09    0.94643E-10  4192   0.251E-06    0.170E-04
DAV:  36    -0.416773712767E+03    0.13461E-09    0.10526E-09  4168   0.135E-06    0.170E-04
DAV:  37    -0.416773712767E+03    0.11642E-09    0.93959E-10  4152   0.120E-06    0.170E-04
DAV:  38    -0.416773712767E+03   -0.28012E-09    0.87432E-10  4040   0.594E-07    0.170E-04
DAV:  39    -0.416773712767E+03    0.19281E-09    0.76689E-10  4016   0.390E-07    0.170E-04
DAV:  40    -0.416773712767E+03   -0.14188E-09    0.71688E-10  3984   0.317E-07    0.170E-04
DAV:  41    -0.416773712767E+03    0.14552E-10    0.60938E-10  3968   0.376E-07
   1 F= -.41677371E+03 E0= -.41677371E+03  d E =0.000000E+00
Application 22454141 resources: utime ~321909s, stime ~293s, Rss ~648920, inblocks ~899109, outblocks ~776426
