   8   8   1   0
  0.2002677E+02  0.5435300E-09  0.5435300E-09  0.6646963E-09  0.5000000E-15
  1.000000000000000E-004
  CAR 
 Name                                    
     15.03304431    -67.67850756  301      4.79748977      1.00000000
    -67.679  0.0000E+00  0.0000E+00
    -67.403  0.0000E+00  0.0000E+00
    -67.127  0.0000E+00  0.0000E+00
    -66.851  0.0000E+00  0.0000E+00
    -66.576  0.0000E+00  0.0000E+00
    -66.300  0.0000E+00  0.0000E+00
    -66.024  0.0000E+00  0.0000E+00
    -65.749  0.0000E+00  0.0000E+00
    -65.473  0.0000E+00  0.0000E+00
    -65.197  0.0000E+00  0.0000E+00
    -64.921  0.0000E+00  0.0000E+00
    -64.646  0.0000E+00  0.0000E+00
    -64.370  0.0000E+00  0.0000E+00
    -64.094  0.0000E+00  0.0000E+00
    -63.819  0.3620E+02  0.1198E+02
    -63.543  0.0000E+00  0.1200E+02
    -63.267  0.0000E+00  0.1200E+02
    -62.992  0.0000E+00  0.1200E+02
    -62.716  0.0000E+00  0.1200E+02
    -62.440  0.0000E+00  0.1200E+02
    -62.164  0.0000E+00  0.1200E+02
    -61.889  0.0000E+00  0.1200E+02
    -61.613  0.0000E+00  0.1200E+02
    -61.337  0.0000E+00  0.1200E+02
    -61.062  0.0000E+00  0.1200E+02
    -60.786  0.0000E+00  0.1200E+02
    -60.510  0.0000E+00  0.1200E+02
    -60.234  0.0000E+00  0.1200E+02
    -59.959  0.0000E+00  0.1200E+02
    -59.683  0.0000E+00  0.1200E+02
    -59.407  0.0000E+00  0.1200E+02
    -59.132  0.0000E+00  0.1200E+02
    -58.856  0.0000E+00  0.1200E+02
    -58.580  0.0000E+00  0.1200E+02
    -58.305  0.0000E+00  0.1200E+02
    -58.029  0.0000E+00  0.1200E+02
    -57.753  0.0000E+00  0.1200E+02
    -57.477  0.0000E+00  0.1200E+02
    -57.202  0.0000E+00  0.1200E+02
    -56.926  0.0000E+00  0.1200E+02
    -56.650  0.0000E+00  0.1200E+02
    -56.375  0.0000E+00  0.1200E+02
    -56.099  0.0000E+00  0.1200E+02
    -55.823  0.0000E+00  0.1200E+02
    -55.547  0.0000E+00  0.1200E+02
    -55.272  0.0000E+00  0.1200E+02
    -54.996  0.0000E+00  0.1200E+02
    -54.720  0.0000E+00  0.1200E+02
    -54.445  0.0000E+00  0.1200E+02
    -54.169  0.0000E+00  0.1200E+02
    -53.893  0.0000E+00  0.1200E+02
    -53.618  0.0000E+00  0.1200E+02
    -53.342  0.0000E+00  0.1200E+02
    -53.066  0.0000E+00  0.1200E+02
    -52.790  0.0000E+00  0.1200E+02
    -52.515  0.0000E+00  0.1200E+02
    -52.239  0.0000E+00  0.1200E+02
    -51.963  0.0000E+00  0.1200E+02
    -51.688  0.0000E+00  0.1200E+02
    -51.412  0.0000E+00  0.1200E+02
    -51.136  0.0000E+00  0.1200E+02
    -50.860  0.0000E+00  0.1200E+02
    -50.585  0.0000E+00  0.1200E+02
    -50.309  0.0000E+00  0.1200E+02
    -50.033  0.0000E+00  0.1200E+02
    -49.758  0.0000E+00  0.1200E+02
    -49.482  0.0000E+00  0.1200E+02
    -49.206  0.0000E+00  0.1200E+02
    -48.931  0.0000E+00  0.1200E+02
    -48.655  0.0000E+00  0.1200E+02
    -48.379  0.0000E+00  0.1200E+02
    -48.103  0.0000E+00  0.1200E+02
    -47.828  0.0000E+00  0.1200E+02
    -47.552  0.0000E+00  0.1200E+02
    -47.276  0.0000E+00  0.1200E+02
    -47.001  0.0000E+00  0.1200E+02
    -46.725  0.0000E+00  0.1200E+02
    -46.449  0.0000E+00  0.1200E+02
    -46.174  0.0000E+00  0.1200E+02
    -45.898  0.0000E+00  0.1200E+02
    -45.622  0.0000E+00  0.1200E+02
    -45.346  0.0000E+00  0.1200E+02
    -45.071  0.0000E+00  0.1200E+02
    -44.795  0.0000E+00  0.1200E+02
    -44.519  0.0000E+00  0.1200E+02
    -44.244  0.0000E+00  0.1200E+02
    -43.968  0.0000E+00  0.1200E+02
    -43.692  0.0000E+00  0.1200E+02
    -43.416  0.0000E+00  0.1200E+02
    -43.141  0.0000E+00  0.1200E+02
    -42.865  0.0000E+00  0.1200E+02
    -42.589  0.0000E+00  0.1200E+02
    -42.314  0.0000E+00  0.1200E+02
    -42.038  0.0000E+00  0.1200E+02
    -41.762  0.0000E+00  0.1200E+02
    -41.487  0.0000E+00  0.1200E+02
    -41.211  0.0000E+00  0.1200E+02
    -40.935  0.0000E+00  0.1200E+02
    -40.659  0.0000E+00  0.1200E+02
    -40.384  0.0000E+00  0.1200E+02
    -40.108  0.0000E+00  0.1200E+02
    -39.832  0.0000E+00  0.1200E+02
    -39.557  0.0000E+00  0.1200E+02
    -39.281  0.0000E+00  0.1200E+02
    -39.005  0.0000E+00  0.1200E+02
    -38.729  0.0000E+00  0.1200E+02
    -38.454  0.0000E+00  0.1200E+02
    -38.178  0.0000E+00  0.1200E+02
    -37.902  0.0000E+00  0.1200E+02
    -37.627  0.0000E+00  0.1200E+02
    -37.351  0.0000E+00  0.1200E+02
    -37.075  0.0000E+00  0.1200E+02
    -36.800  0.0000E+00  0.1200E+02
    -36.524  0.0000E+00  0.1200E+02
    -36.248  0.0000E+00  0.1200E+02
    -35.972  0.0000E+00  0.1200E+02
    -35.697  0.0000E+00  0.1200E+02
    -35.421  0.0000E+00  0.1200E+02
    -35.145  0.0000E+00  0.1200E+02
    -34.870  0.0000E+00  0.1200E+02
    -34.594  0.0000E+00  0.1200E+02
    -34.318  0.0000E+00  0.1200E+02
    -34.042  0.0000E+00  0.1200E+02
    -33.767  0.0000E+00  0.1200E+02
    -33.491  0.0000E+00  0.1200E+02
    -33.215  0.0000E+00  0.1200E+02
    -32.940  0.0000E+00  0.1200E+02
    -32.664  0.0000E+00  0.1200E+02
    -32.388  0.0000E+00  0.1200E+02
    -32.113  0.0000E+00  0.1200E+02
    -31.837  0.0000E+00  0.1200E+02
    -31.561  0.0000E+00  0.1200E+02
    -31.285  0.0000E+00  0.1200E+02
    -31.010  0.0000E+00  0.1200E+02
    -30.734  0.0000E+00  0.1200E+02
    -30.458  0.0000E+00  0.1200E+02
    -30.183  0.0000E+00  0.1200E+02
    -29.907  0.0000E+00  0.1200E+02
    -29.631  0.0000E+00  0.1200E+02
    -29.355  0.0000E+00  0.1200E+02
    -29.080  0.0000E+00  0.1200E+02
    -28.804  0.0000E+00  0.1200E+02
    -28.528  0.0000E+00  0.1200E+02
    -28.253  0.0000E+00  0.1200E+02
    -27.977  0.0000E+00  0.1200E+02
    -27.701  0.0000E+00  0.1200E+02
    -27.426  0.0000E+00  0.1200E+02
    -27.150  0.0000E+00  0.1200E+02
    -26.874  0.0000E+00  0.1200E+02
    -26.598  0.0000E+00  0.1200E+02
    -26.323  0.0000E+00  0.1200E+02
    -26.047  0.0000E+00  0.1200E+02
    -25.771  0.0000E+00  0.1200E+02
    -25.496  0.0000E+00  0.1200E+02
    -25.220  0.0000E+00  0.1200E+02
    -24.944  0.0000E+00  0.1200E+02
    -24.669  0.0000E+00  0.1200E+02
    -24.393  0.0000E+00  0.1200E+02
    -24.117  0.0000E+00  0.1200E+02
    -23.841  0.0000E+00  0.1200E+02
    -23.566  0.0000E+00  0.1200E+02
    -23.290  0.0000E+00  0.1200E+02
    -23.014  0.0000E+00  0.1200E+02
    -22.739  0.0000E+00  0.1200E+02
    -22.463  0.0000E+00  0.1200E+02
    -22.187  0.0000E+00  0.1200E+02
    -21.911  0.0000E+00  0.1200E+02
    -21.636  0.0000E+00  0.1200E+02
    -21.360  0.0000E+00  0.1200E+02
    -21.084  0.0000E+00  0.1200E+02
    -20.809  0.0000E+00  0.1200E+02
    -20.533  0.0000E+00  0.1200E+02
    -20.257  0.0000E+00  0.1200E+02
    -19.982  0.0000E+00  0.1200E+02
    -19.706  0.0000E+00  0.1200E+02
    -19.430  0.0000E+00  0.1200E+02
    -19.154  0.0000E+00  0.1200E+02
    -18.879  0.0000E+00  0.1200E+02
    -18.603  0.0000E+00  0.1200E+02
    -18.327  0.0000E+00  0.1200E+02
    -18.052  0.0000E+00  0.1200E+02
    -17.776  0.0000E+00  0.1200E+02
    -17.500  0.0000E+00  0.1200E+02
    -17.224  0.0000E+00  0.2200E+02
    -16.949  0.0000E+00  0.2200E+02
    -16.673  0.0000E+00  0.2200E+02
    -16.397  0.0000E+00  0.2200E+02
    -16.122  0.0000E+00  0.2200E+02
    -15.846  0.0000E+00  0.2200E+02
    -15.570  0.0000E+00  0.2200E+02
    -15.295  0.0000E+00  0.2200E+02
    -15.019  0.0000E+00  0.2200E+02
    -14.743  0.0000E+00  0.2200E+02
    -14.467  0.0000E+00  0.2200E+02
    -14.192  0.0000E+00  0.2200E+02
    -13.916  0.0000E+00  0.2200E+02
    -13.640  0.0000E+00  0.2200E+02
    -13.365  0.0000E+00  0.2200E+02
    -13.089  0.0000E+00  0.2200E+02
    -12.813  0.0000E+00  0.2200E+02
    -12.537  0.0000E+00  0.2200E+02
    -12.262  0.0000E+00  0.2200E+02
    -11.986  0.0000E+00  0.2200E+02
    -11.710  0.0000E+00  0.2200E+02
    -11.435  0.0000E+00  0.2200E+02
    -11.159  0.0000E+00  0.2200E+02
    -10.883  0.0000E+00  0.2200E+02
    -10.608  0.0000E+00  0.2200E+02
    -10.332  0.0000E+00  0.2200E+02
    -10.056  0.0000E+00  0.2200E+02
     -9.780  0.0000E+00  0.2200E+02
     -9.505  0.5081E+00  0.2221E+02
     -9.229  0.8910E+00  0.2282E+02
     -8.953  0.1051E+01  0.2396E+02
     -8.678  0.5119E+00  0.2416E+02
     -8.402  0.3652E+01  0.2649E+02
     -8.126  0.3352E+01  0.2997E+02
     -7.850  0.0000E+00  0.3000E+02
     -7.575  0.0000E+00  0.3000E+02
     -7.299  0.0000E+00  0.3000E+02
     -7.023  0.0000E+00  0.3000E+02
     -6.748  0.0000E+00  0.3000E+02
     -6.472  0.0000E+00  0.3000E+02
     -6.196  0.0000E+00  0.3000E+02
     -5.921  0.0000E+00  0.3000E+02
     -5.645  0.0000E+00  0.3000E+02
     -5.369  0.0000E+00  0.3000E+02
     -5.093  0.0000E+00  0.3000E+02
     -4.818  0.0000E+00  0.3000E+02
     -4.542  0.0000E+00  0.3000E+02
     -4.266  0.0000E+00  0.3000E+02
     -3.991  0.0000E+00  0.3000E+02
     -3.715  0.0000E+00  0.3000E+02
     -3.439  0.1345E-01  0.3000E+02
     -3.163  0.1813E+01  0.3200E+02
     -2.888  0.0000E+00  0.3200E+02
     -2.612  0.0000E+00  0.3200E+02
     -2.336  0.1237E+02  0.4001E+02
     -2.061  0.8408E+00  0.4200E+02
     -1.785  0.0000E+00  0.4200E+02
     -1.509  0.1436E-08  0.4203E+02
     -1.234  0.5079E+00  0.4250E+02
     -0.958  0.2230E+01  0.4418E+02
     -0.682  0.1132E+01  0.4484E+02
     -0.406  0.6591E+00  0.4604E+02
     -0.131  0.2343E+01  0.4741E+02
      0.145  0.2308E+01  0.4864E+02
      0.421  0.1518E+01  0.5013E+02
      0.696  0.2531E+01  0.5239E+02
      0.972  0.5223E+01  0.5519E+02
      1.248  0.6496E+00  0.5798E+02
      1.523  0.4717E+01  0.6106E+02
      1.799  0.2015E+01  0.6397E+02
      2.075  0.0000E+00  0.6400E+02
      2.351  0.0000E+00  0.6400E+02
      2.626  0.7849E+00  0.6426E+02
      2.902  0.6599E+01  0.6978E+02
      3.178  0.2080E+01  0.7285E+02
      3.453  0.3495E+01  0.7620E+02
      3.729  0.3379E+01  0.7870E+02
      4.005  0.2038E+01  0.8071E+02
      4.281  0.1737E+01  0.8263E+02
      4.556  0.1014E+00  0.8379E+02
      4.832  0.0000E+00  0.8400E+02
      5.108  0.0000E+00  0.8401E+02
      5.383  0.0000E+00  0.8401E+02
      5.659  0.2128E-01  0.8405E+02
      5.935  0.3820E+00  0.8473E+02
      6.210  0.1169E+01  0.8545E+02
      6.486  0.4030E+00  0.8600E+02
      6.762  0.1008E+00  0.8604E+02
      7.038  0.1216E-03  0.8615E+02
      7.313  0.1066E+01  0.8696E+02
      7.589  0.8698E+00  0.8806E+02
      7.865  0.1063E+01  0.8945E+02
      8.140  0.1389E+01  0.9108E+02
      8.416  0.7701E+00  0.9200E+02
      8.692  0.1240E+01  0.9313E+02
      8.968  0.9136E+00  0.9399E+02
      9.243  0.1264E+01  0.9483E+02
      9.519  0.9126E+00  0.9627E+02
      9.795  0.1415E+01  0.9760E+02
     10.070  0.1021E+01  0.9913E+02
     10.346  0.2315E+01  0.1008E+03
     10.622  0.3015E+01  0.1027E+03
     10.897  0.6180E+00  0.1038E+03
     11.173  0.0000E+00  0.1040E+03
     11.449  0.0000E+00  0.1040E+03
     11.725  0.0000E+00  0.1040E+03
     12.000  0.0000E+00  0.1040E+03
     12.276  0.0000E+00  0.1040E+03
     12.552  0.0000E+00  0.1040E+03
     12.827  0.0000E+00  0.1040E+03
     13.103  0.0000E+00  0.1040E+03
     13.379  0.0000E+00  0.1040E+03
     13.655  0.0000E+00  0.1040E+03
     13.930  0.0000E+00  0.1040E+03
     14.206  0.0000E+00  0.1040E+03
     14.482  0.0000E+00  0.1040E+03
     14.757  0.0000E+00  0.1040E+03
     15.033  0.0000E+00  0.1040E+03
     15.03304431    -67.67850756  301      4.79748977      1.00000000
    -67.679  0.0000E+00  0.0000E+00  0.0000E+00
    -67.403  0.0000E+00  0.0000E+00  0.0000E+00
    -67.127  0.0000E+00  0.0000E+00  0.0000E+00
    -66.851  0.0000E+00  0.0000E+00  0.0000E+00
    -66.576  0.0000E+00  0.0000E+00  0.0000E+00
    -66.300  0.0000E+00  0.0000E+00  0.0000E+00
    -66.024  0.0000E+00  0.0000E+00  0.0000E+00
    -65.749  0.0000E+00  0.0000E+00  0.0000E+00
    -65.473  0.0000E+00  0.0000E+00  0.0000E+00
    -65.197  0.0000E+00  0.0000E+00  0.0000E+00
    -64.921  0.0000E+00  0.0000E+00  0.0000E+00
    -64.646  0.0000E+00  0.0000E+00  0.0000E+00
    -64.370  0.0000E+00  0.0000E+00  0.0000E+00
    -64.094  0.0000E+00  0.0000E+00  0.0000E+00
    -63.819  0.2622E-08  0.2163E+02  0.9925E-05
    -63.543  0.0000E+00  0.0000E+00  0.0000E+00
    -63.267  0.0000E+00  0.0000E+00  0.0000E+00
    -62.992  0.0000E+00  0.0000E+00  0.0000E+00
    -62.716  0.0000E+00  0.0000E+00  0.0000E+00
    -62.440  0.0000E+00  0.0000E+00  0.0000E+00
    -62.164  0.0000E+00  0.0000E+00  0.0000E+00
    -61.889  0.0000E+00  0.0000E+00  0.0000E+00
    -61.613  0.0000E+00  0.0000E+00  0.0000E+00
    -61.337  0.0000E+00  0.0000E+00  0.0000E+00
    -61.062  0.0000E+00  0.0000E+00  0.0000E+00
    -60.786  0.0000E+00  0.0000E+00  0.0000E+00
    -60.510  0.0000E+00  0.0000E+00  0.0000E+00
    -60.234  0.0000E+00  0.0000E+00  0.0000E+00
    -59.959  0.0000E+00  0.0000E+00  0.0000E+00
    -59.683  0.0000E+00  0.0000E+00  0.0000E+00
    -59.407  0.0000E+00  0.0000E+00  0.0000E+00
    -59.132  0.0000E+00  0.0000E+00  0.0000E+00
    -58.856  0.0000E+00  0.0000E+00  0.0000E+00
    -58.580  0.0000E+00  0.0000E+00  0.0000E+00
    -58.305  0.0000E+00  0.0000E+00  0.0000E+00
    -58.029  0.0000E+00  0.0000E+00  0.0000E+00
    -57.753  0.0000E+00  0.0000E+00  0.0000E+00
    -57.477  0.0000E+00  0.0000E+00  0.0000E+00
    -57.202  0.0000E+00  0.0000E+00  0.0000E+00
    -56.926  0.0000E+00  0.0000E+00  0.0000E+00
    -56.650  0.0000E+00  0.0000E+00  0.0000E+00
    -56.375  0.0000E+00  0.0000E+00  0.0000E+00
    -56.099  0.0000E+00  0.0000E+00  0.0000E+00
    -55.823  0.0000E+00  0.0000E+00  0.0000E+00
    -55.547  0.0000E+00  0.0000E+00  0.0000E+00
    -55.272  0.0000E+00  0.0000E+00  0.0000E+00
    -54.996  0.0000E+00  0.0000E+00  0.0000E+00
    -54.720  0.0000E+00  0.0000E+00  0.0000E+00
    -54.445  0.0000E+00  0.0000E+00  0.0000E+00
    -54.169  0.0000E+00  0.0000E+00  0.0000E+00
    -53.893  0.0000E+00  0.0000E+00  0.0000E+00
    -53.618  0.0000E+00  0.0000E+00  0.0000E+00
    -53.342  0.0000E+00  0.0000E+00  0.0000E+00
    -53.066  0.0000E+00  0.0000E+00  0.0000E+00
    -52.790  0.0000E+00  0.0000E+00  0.0000E+00
    -52.515  0.0000E+00  0.0000E+00  0.0000E+00
    -52.239  0.0000E+00  0.0000E+00  0.0000E+00
    -51.963  0.0000E+00  0.0000E+00  0.0000E+00
    -51.688  0.0000E+00  0.0000E+00  0.0000E+00
    -51.412  0.0000E+00  0.0000E+00  0.0000E+00
    -51.136  0.0000E+00  0.0000E+00  0.0000E+00
    -50.860  0.0000E+00  0.0000E+00  0.0000E+00
    -50.585  0.0000E+00  0.0000E+00  0.0000E+00
    -50.309  0.0000E+00  0.0000E+00  0.0000E+00
    -50.033  0.0000E+00  0.0000E+00  0.0000E+00
    -49.758  0.0000E+00  0.0000E+00  0.0000E+00
    -49.482  0.0000E+00  0.0000E+00  0.0000E+00
    -49.206  0.0000E+00  0.0000E+00  0.0000E+00
    -48.931  0.0000E+00  0.0000E+00  0.0000E+00
    -48.655  0.0000E+00  0.0000E+00  0.0000E+00
    -48.379  0.0000E+00  0.0000E+00  0.0000E+00
    -48.103  0.0000E+00  0.0000E+00  0.0000E+00
    -47.828  0.0000E+00  0.0000E+00  0.0000E+00
    -47.552  0.0000E+00  0.0000E+00  0.0000E+00
    -47.276  0.0000E+00  0.0000E+00  0.0000E+00
    -47.001  0.0000E+00  0.0000E+00  0.0000E+00
    -46.725  0.0000E+00  0.0000E+00  0.0000E+00
    -46.449  0.0000E+00  0.0000E+00  0.0000E+00
    -46.174  0.0000E+00  0.0000E+00  0.0000E+00
    -45.898  0.0000E+00  0.0000E+00  0.0000E+00
    -45.622  0.0000E+00  0.0000E+00  0.0000E+00
    -45.346  0.0000E+00  0.0000E+00  0.0000E+00
    -45.071  0.0000E+00  0.0000E+00  0.0000E+00
    -44.795  0.0000E+00  0.0000E+00  0.0000E+00
    -44.519  0.0000E+00  0.0000E+00  0.0000E+00
    -44.244  0.0000E+00  0.0000E+00  0.0000E+00
    -43.968  0.0000E+00  0.0000E+00  0.0000E+00
    -43.692  0.0000E+00  0.0000E+00  0.0000E+00
    -43.416  0.0000E+00  0.0000E+00  0.0000E+00
    -43.141  0.0000E+00  0.0000E+00  0.0000E+00
    -42.865  0.0000E+00  0.0000E+00  0.0000E+00
    -42.589  0.0000E+00  0.0000E+00  0.0000E+00
    -42.314  0.0000E+00  0.0000E+00  0.0000E+00
    -42.038  0.0000E+00  0.0000E+00  0.0000E+00
    -41.762  0.0000E+00  0.0000E+00  0.0000E+00
    -41.487  0.0000E+00  0.0000E+00  0.0000E+00
    -41.211  0.0000E+00  0.0000E+00  0.0000E+00
    -40.935  0.0000E+00  0.0000E+00  0.0000E+00
    -40.659  0.0000E+00  0.0000E+00  0.0000E+00
    -40.384  0.0000E+00  0.0000E+00  0.0000E+00
    -40.108  0.0000E+00  0.0000E+00  0.0000E+00
    -39.832  0.0000E+00  0.0000E+00  0.0000E+00
    -39.557  0.0000E+00  0.0000E+00  0.0000E+00
    -39.281  0.0000E+00  0.0000E+00  0.0000E+00
    -39.005  0.0000E+00  0.0000E+00  0.0000E+00
    -38.729  0.0000E+00  0.0000E+00  0.0000E+00
    -38.454  0.0000E+00  0.0000E+00  0.0000E+00
    -38.178  0.0000E+00  0.0000E+00  0.0000E+00
    -37.902  0.0000E+00  0.0000E+00  0.0000E+00
    -37.627  0.0000E+00  0.0000E+00  0.0000E+00
    -37.351  0.0000E+00  0.0000E+00  0.0000E+00
    -37.075  0.0000E+00  0.0000E+00  0.0000E+00
    -36.800  0.0000E+00  0.0000E+00  0.0000E+00
    -36.524  0.0000E+00  0.0000E+00  0.0000E+00
    -36.248  0.0000E+00  0.0000E+00  0.0000E+00
    -35.972  0.0000E+00  0.0000E+00  0.0000E+00
    -35.697  0.0000E+00  0.0000E+00  0.0000E+00
    -35.421  0.0000E+00  0.0000E+00  0.0000E+00
    -35.145  0.0000E+00  0.0000E+00  0.0000E+00
    -34.870  0.0000E+00  0.0000E+00  0.0000E+00
    -34.594  0.0000E+00  0.0000E+00  0.0000E+00
    -34.318  0.0000E+00  0.0000E+00  0.0000E+00
    -34.042  0.0000E+00  0.0000E+00  0.0000E+00
    -33.767  0.0000E+00  0.0000E+00  0.0000E+00
    -33.491  0.0000E+00  0.0000E+00  0.0000E+00
    -33.215  0.0000E+00  0.0000E+00  0.0000E+00
    -32.940  0.0000E+00  0.0000E+00  0.0000E+00
    -32.664  0.0000E+00  0.0000E+00  0.0000E+00
    -32.388  0.0000E+00  0.0000E+00  0.0000E+00
    -32.113  0.0000E+00  0.0000E+00  0.0000E+00
    -31.837  0.0000E+00  0.0000E+00  0.0000E+00
    -31.561  0.0000E+00  0.0000E+00  0.0000E+00
    -31.285  0.0000E+00  0.0000E+00  0.0000E+00
    -31.010  0.0000E+00  0.0000E+00  0.0000E+00
    -30.734  0.0000E+00  0.0000E+00  0.0000E+00
    -30.458  0.0000E+00  0.0000E+00  0.0000E+00
    -30.183  0.0000E+00  0.0000E+00  0.0000E+00
    -29.907  0.0000E+00  0.0000E+00  0.0000E+00
    -29.631  0.0000E+00  0.0000E+00  0.0000E+00
    -29.355  0.0000E+00  0.0000E+00  0.0000E+00
    -29.080  0.0000E+00  0.0000E+00  0.0000E+00
    -28.804  0.0000E+00  0.0000E+00  0.0000E+00
    -28.528  0.0000E+00  0.0000E+00  0.0000E+00
    -28.253  0.0000E+00  0.0000E+00  0.0000E+00
    -27.977  0.0000E+00  0.0000E+00  0.0000E+00
    -27.701  0.0000E+00  0.0000E+00  0.0000E+00
    -27.426  0.0000E+00  0.0000E+00  0.0000E+00
    -27.150  0.0000E+00  0.0000E+00  0.0000E+00
    -26.874  0.0000E+00  0.0000E+00  0.0000E+00
    -26.598  0.0000E+00  0.0000E+00  0.0000E+00
    -26.323  0.0000E+00  0.0000E+00  0.0000E+00
    -26.047  0.0000E+00  0.0000E+00  0.0000E+00
    -25.771  0.0000E+00  0.0000E+00  0.0000E+00
    -25.496  0.0000E+00  0.0000E+00  0.0000E+00
    -25.220  0.0000E+00  0.0000E+00  0.0000E+00
    -24.944  0.0000E+00  0.0000E+00  0.0000E+00
    -24.669  0.0000E+00  0.0000E+00  0.0000E+00
    -24.393  0.0000E+00  0.0000E+00  0.0000E+00
    -24.117  0.0000E+00  0.0000E+00  0.0000E+00
    -23.841  0.0000E+00  0.0000E+00  0.0000E+00
    -23.566  0.0000E+00  0.0000E+00  0.0000E+00
    -23.290  0.0000E+00  0.0000E+00  0.0000E+00
    -23.014  0.0000E+00  0.0000E+00  0.0000E+00
    -22.739  0.0000E+00  0.0000E+00  0.0000E+00
    -22.463  0.0000E+00  0.0000E+00  0.0000E+00
    -22.187  0.0000E+00  0.0000E+00  0.0000E+00
    -21.911  0.0000E+00  0.0000E+00  0.0000E+00
    -21.636  0.0000E+00  0.0000E+00  0.0000E+00
    -21.360  0.0000E+00  0.0000E+00  0.0000E+00
    -21.084  0.0000E+00  0.0000E+00  0.0000E+00
    -20.809  0.0000E+00  0.0000E+00  0.0000E+00
    -20.533  0.0000E+00  0.0000E+00  0.0000E+00
    -20.257  0.0000E+00  0.0000E+00  0.0000E+00
    -19.982  0.0000E+00  0.0000E+00  0.0000E+00
    -19.706  0.0000E+00  0.0000E+00  0.0000E+00
    -19.430  0.0000E+00  0.0000E+00  0.0000E+00
    -19.154  0.0000E+00  0.0000E+00  0.0000E+00
    -18.879  0.0000E+00  0.0000E+00  0.0000E+00
    -18.603  0.0000E+00  0.0000E+00  0.0000E+00
    -18.327  0.0000E+00  0.0000E+00  0.0000E+00
    -18.052  0.0000E+00  0.0000E+00  0.0000E+00
    -17.776  0.0000E+00  0.0000E+00  0.0000E+00
    -17.500  0.0000E+00  0.0000E+00  0.0000E+00
    -17.224  0.0000E+00  0.0000E+00  0.0000E+00
    -16.949  0.0000E+00  0.0000E+00  0.0000E+00
    -16.673  0.0000E+00  0.0000E+00  0.0000E+00
    -16.397  0.0000E+00  0.0000E+00  0.0000E+00
    -16.122  0.0000E+00  0.0000E+00  0.0000E+00
    -15.846  0.0000E+00  0.0000E+00  0.0000E+00
    -15.570  0.0000E+00  0.0000E+00  0.0000E+00
    -15.295  0.0000E+00  0.0000E+00  0.0000E+00
    -15.019  0.0000E+00  0.0000E+00  0.0000E+00
    -14.743  0.0000E+00  0.0000E+00  0.0000E+00
    -14.467  0.0000E+00  0.0000E+00  0.0000E+00
    -14.192  0.0000E+00  0.0000E+00  0.0000E+00
    -13.916  0.0000E+00  0.0000E+00  0.0000E+00
    -13.640  0.0000E+00  0.0000E+00  0.0000E+00
    -13.365  0.0000E+00  0.0000E+00  0.0000E+00
    -13.089  0.0000E+00  0.0000E+00  0.0000E+00
    -12.813  0.0000E+00  0.0000E+00  0.0000E+00
    -12.537  0.0000E+00  0.0000E+00  0.0000E+00
    -12.262  0.0000E+00  0.0000E+00  0.0000E+00
    -11.986  0.0000E+00  0.0000E+00  0.0000E+00
    -11.710  0.0000E+00  0.0000E+00  0.0000E+00
    -11.435  0.0000E+00  0.0000E+00  0.0000E+00
    -11.159  0.0000E+00  0.0000E+00  0.0000E+00
    -10.883  0.0000E+00  0.0000E+00  0.0000E+00
    -10.608  0.0000E+00  0.0000E+00  0.0000E+00
    -10.332  0.0000E+00  0.0000E+00  0.0000E+00
    -10.056  0.0000E+00  0.0000E+00  0.0000E+00
     -9.780  0.0000E+00  0.0000E+00  0.0000E+00
     -9.505  0.3803E-02  0.1926E-03  0.1743E-03
     -9.229  0.3784E-02  0.1107E-02  0.1145E-02
     -8.953  0.1215E-02  0.2103E-02  0.2516E-02
     -8.678  0.4173E-02  0.5083E-03  0.5639E-03
     -8.402  0.1399E-01  0.7222E-02  0.9536E-02
     -8.126  0.1283E-02  0.9728E-02  0.1338E-01
     -7.850  0.0000E+00  0.0000E+00  0.0000E+00
     -7.575  0.0000E+00  0.0000E+00  0.0000E+00
     -7.299  0.0000E+00  0.0000E+00  0.0000E+00
     -7.023  0.0000E+00  0.0000E+00  0.0000E+00
     -6.748  0.0000E+00  0.0000E+00  0.0000E+00
     -6.472  0.0000E+00  0.0000E+00  0.0000E+00
     -6.196  0.0000E+00  0.0000E+00  0.0000E+00
     -5.921  0.0000E+00  0.0000E+00  0.0000E+00
     -5.645  0.0000E+00  0.0000E+00  0.0000E+00
     -5.369  0.0000E+00  0.0000E+00  0.0000E+00
     -5.093  0.0000E+00  0.0000E+00  0.0000E+00
     -4.818  0.0000E+00  0.0000E+00  0.0000E+00
     -4.542  0.0000E+00  0.0000E+00  0.0000E+00
     -4.266  0.0000E+00  0.0000E+00  0.0000E+00
     -3.991  0.0000E+00  0.0000E+00  0.0000E+00
     -3.715  0.0000E+00  0.0000E+00  0.0000E+00
     -3.439  0.1566E-10  0.5205E-05  0.1038E-03
     -3.163  0.3559E-02  0.2548E-02  0.6288E-02
     -2.888  0.0000E+00  0.0000E+00  0.0000E+00
     -2.612  0.0000E+00  0.0000E+00  0.0000E+00
     -2.336  0.4667E-02  0.2901E-02  0.8727E-02
     -2.061  0.9300E-03  0.8544E-03  0.4080E-02
     -1.785  0.0000E+00  0.0000E+00  0.0000E+00
     -1.509  0.2550E-10  0.4707E-11  0.2815E-11
     -1.234  0.1467E-02  0.1958E-02  0.5502E-02
     -0.958  0.2995E-01  0.2389E-02  0.3570E-01
     -0.682  0.3134E-01  0.2605E-02  0.1512E-01
     -0.406  0.2181E-01  0.1061E-02  0.1290E-01
     -0.131  0.4236E-01  0.5560E-02  0.6608E-01
      0.145  0.1500E-01  0.1357E-01  0.9215E-01
      0.421  0.8721E-02  0.9157E-02  0.9194E-01
      0.696  0.2340E-01  0.1606E-01  0.2105E+00
      0.972  0.1372E-01  0.4292E-01  0.5579E+00
      1.248  0.1042E-02  0.1651E-02  0.5041E-01
      1.523  0.2319E-02  0.2755E-01  0.7257E+00
      1.799  0.3179E-02  0.4398E-02  0.2306E+00
      2.075  0.0000E+00  0.0000E+00  0.0000E+00
      2.351  0.0000E+00  0.0000E+00  0.0000E+00
      2.626  0.1392E-03  0.1719E-03  0.1895E+00
      2.902  0.1005E-01  0.4126E-02  0.2366E+01
      3.178  0.2027E-02  0.7380E-02  0.8197E+00
      3.453  0.4233E-02  0.1686E-01  0.1048E+01
      3.729  0.6866E-02  0.1851E-01  0.1051E+01
      4.005  0.3378E-02  0.1533E-01  0.6128E+00
      4.281  0.8659E-03  0.1420E-01  0.4661E+00
      4.556  0.4130E-05  0.5508E-03  0.2502E-01
      4.832  0.0000E+00  0.0000E+00  0.0000E+00
      5.108  0.0000E+00  0.0000E+00  0.0000E+00
      5.383  0.0000E+00  0.0000E+00  0.0000E+00
      5.659  0.1724E-03  0.3718E-04  0.7632E-03
      5.935  0.1342E-02  0.8044E-03  0.1249E-01
      6.210  0.1070E-02  0.2169E-02  0.4933E-01
      6.486  0.5507E-03  0.1181E-02  0.1222E-01
      6.762  0.5833E-14  0.1012E-02  0.5512E-02
      7.038  0.3268E-07  0.6273E-06  0.4545E-05
      7.313  0.2357E-01  0.6327E-02  0.2349E-01
      7.589  0.7964E-02  0.5286E-02  0.2361E-01
      7.865  0.7055E-02  0.5841E-02  0.1982E-01
      8.140  0.3097E-01  0.9971E-02  0.2133E-01
      8.416  0.1799E-01  0.2590E-02  0.8037E-02
      8.692  0.1655E-01  0.6746E-02  0.1689E-01
      8.968  0.1489E-01  0.4610E-02  0.1230E-01
      9.243  0.4845E-01  0.1150E-01  0.1652E-01
      9.519  0.3991E-01  0.3229E-02  0.9238E-02
      9.795  0.3488E-01  0.1678E-01  0.1333E-01
     10.070  0.3652E-01  0.1325E-01  0.1085E-01
     10.346  0.5213E-01  0.3045E-01  0.3190E-01
     10.622  0.8345E-01  0.4031E-01  0.3104E-01
     10.897  0.2387E-01  0.6389E-02  0.5977E-02
     11.173  0.0000E+00  0.0000E+00  0.0000E+00
     11.449  0.0000E+00  0.0000E+00  0.0000E+00
     11.725  0.0000E+00  0.0000E+00  0.0000E+00
     12.000  0.0000E+00  0.0000E+00  0.0000E+00
     12.276  0.0000E+00  0.0000E+00  0.0000E+00
     12.552  0.0000E+00  0.0000E+00  0.0000E+00
     12.827  0.0000E+00  0.0000E+00  0.0000E+00
     13.103  0.0000E+00  0.0000E+00  0.0000E+00
     13.379  0.0000E+00  0.0000E+00  0.0000E+00
     13.655  0.0000E+00  0.0000E+00  0.0000E+00
     13.930  0.0000E+00  0.0000E+00  0.0000E+00
     14.206  0.0000E+00  0.0000E+00  0.0000E+00
     14.482  0.0000E+00  0.0000E+00  0.0000E+00
     14.757  0.0000E+00  0.0000E+00  0.0000E+00
     15.033  0.0000E+00  0.0000E+00  0.0000E+00
     15.03304431    -67.67850756  301      4.79748977      1.00000000
    -67.679  0.0000E+00  0.0000E+00  0.0000E+00
    -67.403  0.0000E+00  0.0000E+00  0.0000E+00
    -67.127  0.0000E+00  0.0000E+00  0.0000E+00
    -66.851  0.0000E+00  0.0000E+00  0.0000E+00
    -66.576  0.0000E+00  0.0000E+00  0.0000E+00
    -66.300  0.0000E+00  0.0000E+00  0.0000E+00
    -66.024  0.0000E+00  0.0000E+00  0.0000E+00
    -65.749  0.0000E+00  0.0000E+00  0.0000E+00
    -65.473  0.0000E+00  0.0000E+00  0.0000E+00
    -65.197  0.0000E+00  0.0000E+00  0.0000E+00
    -64.921  0.0000E+00  0.0000E+00  0.0000E+00
    -64.646  0.0000E+00  0.0000E+00  0.0000E+00
    -64.370  0.0000E+00  0.0000E+00  0.0000E+00
    -64.094  0.0000E+00  0.0000E+00  0.0000E+00
    -63.819  0.2475E-08  0.1446E+02  0.6336E-05
    -63.543  0.0000E+00  0.0000E+00  0.0000E+00
    -63.267  0.0000E+00  0.0000E+00  0.0000E+00
    -62.992  0.0000E+00  0.0000E+00  0.0000E+00
    -62.716  0.0000E+00  0.0000E+00  0.0000E+00
    -62.440  0.0000E+00  0.0000E+00  0.0000E+00
    -62.164  0.0000E+00  0.0000E+00  0.0000E+00
    -61.889  0.0000E+00  0.0000E+00  0.0000E+00
    -61.613  0.0000E+00  0.0000E+00  0.0000E+00
    -61.337  0.0000E+00  0.0000E+00  0.0000E+00
    -61.062  0.0000E+00  0.0000E+00  0.0000E+00
    -60.786  0.0000E+00  0.0000E+00  0.0000E+00
    -60.510  0.0000E+00  0.0000E+00  0.0000E+00
    -60.234  0.0000E+00  0.0000E+00  0.0000E+00
    -59.959  0.0000E+00  0.0000E+00  0.0000E+00
    -59.683  0.0000E+00  0.0000E+00  0.0000E+00
    -59.407  0.0000E+00  0.0000E+00  0.0000E+00
    -59.132  0.0000E+00  0.0000E+00  0.0000E+00
    -58.856  0.0000E+00  0.0000E+00  0.0000E+00
    -58.580  0.0000E+00  0.0000E+00  0.0000E+00
    -58.305  0.0000E+00  0.0000E+00  0.0000E+00
    -58.029  0.0000E+00  0.0000E+00  0.0000E+00
    -57.753  0.0000E+00  0.0000E+00  0.0000E+00
    -57.477  0.0000E+00  0.0000E+00  0.0000E+00
    -57.202  0.0000E+00  0.0000E+00  0.0000E+00
    -56.926  0.0000E+00  0.0000E+00  0.0000E+00
    -56.650  0.0000E+00  0.0000E+00  0.0000E+00
    -56.375  0.0000E+00  0.0000E+00  0.0000E+00
    -56.099  0.0000E+00  0.0000E+00  0.0000E+00
    -55.823  0.0000E+00  0.0000E+00  0.0000E+00
    -55.547  0.0000E+00  0.0000E+00  0.0000E+00
    -55.272  0.0000E+00  0.0000E+00  0.0000E+00
    -54.996  0.0000E+00  0.0000E+00  0.0000E+00
    -54.720  0.0000E+00  0.0000E+00  0.0000E+00
    -54.445  0.0000E+00  0.0000E+00  0.0000E+00
    -54.169  0.0000E+00  0.0000E+00  0.0000E+00
    -53.893  0.0000E+00  0.0000E+00  0.0000E+00
    -53.618  0.0000E+00  0.0000E+00  0.0000E+00
    -53.342  0.0000E+00  0.0000E+00  0.0000E+00
    -53.066  0.0000E+00  0.0000E+00  0.0000E+00
    -52.790  0.0000E+00  0.0000E+00  0.0000E+00
    -52.515  0.0000E+00  0.0000E+00  0.0000E+00
    -52.239  0.0000E+00  0.0000E+00  0.0000E+00
    -51.963  0.0000E+00  0.0000E+00  0.0000E+00
    -51.688  0.0000E+00  0.0000E+00  0.0000E+00
    -51.412  0.0000E+00  0.0000E+00  0.0000E+00
    -51.136  0.0000E+00  0.0000E+00  0.0000E+00
    -50.860  0.0000E+00  0.0000E+00  0.0000E+00
    -50.585  0.0000E+00  0.0000E+00  0.0000E+00
    -50.309  0.0000E+00  0.0000E+00  0.0000E+00
    -50.033  0.0000E+00  0.0000E+00  0.0000E+00
    -49.758  0.0000E+00  0.0000E+00  0.0000E+00
    -49.482  0.0000E+00  0.0000E+00  0.0000E+00
    -49.206  0.0000E+00  0.0000E+00  0.0000E+00
    -48.931  0.0000E+00  0.0000E+00  0.0000E+00
    -48.655  0.0000E+00  0.0000E+00  0.0000E+00
    -48.379  0.0000E+00  0.0000E+00  0.0000E+00
    -48.103  0.0000E+00  0.0000E+00  0.0000E+00
    -47.828  0.0000E+00  0.0000E+00  0.0000E+00
    -47.552  0.0000E+00  0.0000E+00  0.0000E+00
    -47.276  0.0000E+00  0.0000E+00  0.0000E+00
    -47.001  0.0000E+00  0.0000E+00  0.0000E+00
    -46.725  0.0000E+00  0.0000E+00  0.0000E+00
    -46.449  0.0000E+00  0.0000E+00  0.0000E+00
    -46.174  0.0000E+00  0.0000E+00  0.0000E+00
    -45.898  0.0000E+00  0.0000E+00  0.0000E+00
    -45.622  0.0000E+00  0.0000E+00  0.0000E+00
    -45.346  0.0000E+00  0.0000E+00  0.0000E+00
    -45.071  0.0000E+00  0.0000E+00  0.0000E+00
    -44.795  0.0000E+00  0.0000E+00  0.0000E+00
    -44.519  0.0000E+00  0.0000E+00  0.0000E+00
    -44.244  0.0000E+00  0.0000E+00  0.0000E+00
    -43.968  0.0000E+00  0.0000E+00  0.0000E+00
    -43.692  0.0000E+00  0.0000E+00  0.0000E+00
    -43.416  0.0000E+00  0.0000E+00  0.0000E+00
    -43.141  0.0000E+00  0.0000E+00  0.0000E+00