       N       E                     dE             d eps       ncg     rms          rms(c)
DAV:   1     0.961012714894E+03    0.96101E+03   -0.44457E+04 15208   0.198E+03
DAV:   2     0.983556697813E+02   -0.86266E+03   -0.83660E+03 12816   0.597E+02
DAV:   3    -0.294988514571E+02   -0.12785E+03   -0.12441E+03 14184   0.208E+02
DAV:   4    -0.377015548287E+02   -0.82027E+01   -0.81159E+01 15208   0.512E+01
DAV:   5    -0.379744845102E+02   -0.27293E+00   -0.27250E+00 17156   0.102E+01
DAV:   6    -0.379846080118E+02   -0.10124E-01   -0.10121E-01 17720   0.168E+00
DAV:   7    -0.379850108027E+02   -0.40279E-03   -0.40277E-03 18396   0.280E-01
DAV:   8    -0.379850151038E+02   -0.43011E-05   -0.43011E-05 16876   0.318E-02
DAV:   9    -0.379850151742E+02   -0.70371E-07   -0.70438E-07 10184   0.475E-03
   1 F= -.37985015E+02 E0= -.37985015E+02  d E =-.492328E-15
