 vasp.5.4.1 24Jun15 (build Nov 25 2015 16:01:35) complex                        
  
 executed on         CrayXC-Intel date 2016.05.26  09:46:29
 running on   96 total cores
 distrk:  each k-point on   24 cores,    4 groups
 distr:  one band on NCORES_PER_BAND=   6 cores,    4 groups


--------------------------------------------------------------------------------------------------------


 INCAR:
 POTCAR:   PAW Cu_pv 19Apr2000                    
 POTCAR:   PAW Zn 03Mar1998                       
 POTCAR:   PAW Sn_d 09Feb1998                     
 POTCAR:   PAW S 21Jan2003                        

 ----------------------------------------------------------------------------- 
|                                                                             |
|           W    W    AA    RRRRR   N    N  II  N    N   GGGG   !!!           |
|           W    W   A  A   R    R  NN   N  II  NN   N  G    G  !!!           |
|           W    W  A    A  R    R  N N  N  II  N N  N  G       !!!           |
|           W WW W  AAAAAA  RRRRR   N  N N  II  N  N N  G  GGG   !            |
|           WW  WW  A    A  R   R   N   NN  II  N   NN  G    G                |
|           W    W  A    A  R    R  N    N  II  N    N   GGGG   !!!           |
|                                                                             |
|      You have enabled k-point parallelism (KPAR>1).                         |
|      This developmental code was originally  written by Paul Kent at ORNL,  |
|      and carefully double checked in Vienna.                                |
|      GW as well as linear response parallelism added by Martijn Marsman     |
|      and Georg Kresse.                                                      |
|      Carefully verify results versus KPAR=1.                                |
|      Report problems to Paul Kent and Vienna.                               |
|                                                                             |
 ----------------------------------------------------------------------------- 

 POTCAR:   PAW Cu_pv 19Apr2000                    
   VRHFIN =Cu: d10 p1                                                           
   LEXCH  = CA                                                                  
   EATOM  =  4124.1158 eV,  303.1140 Ry                                         
                                                                                
   TITEL  = PAW Cu_pv 19Apr2000                                                 
   LULTRA =        F    use ultrasoft PP ?                                      
   IUNSCR =        1    unscreen: 0-lin 1-nonlin 2-no                           
   RPACOR =    1.500    partial core radius                                     
   POMASS =   63.546; ZVAL   =   17.000    mass and valenz                      
   RCORE  =    2.000    outmost cutoff radius                                   
   RWIGS  =    2.000; RWIGS  =    1.058    wigner-seitz radius (au A)           
   ENMAX  =  368.406; ENMIN  =  276.305 eV                                      
   RCLOC  =    1.304    cutoff for local pot                                    
   LCOR   =        T    correct aug charges                                     
   LPAW   =        T    paw PP                                                  
   EAUG   =  758.233                                                            
   DEXC   =    -.002                                                            
   RMAX   =    2.402    core radius for proj-oper                               
   RAUG   =    1.300    factor for augmentation sphere                          
   RDEP   =    2.025    core radius for depl-charge                             
   QCUT   =   -5.204; QGAM   =   10.407    optimization parameters              
                                                                                
   Description                                                                  
     l     E      TYP  RCUT    TYP  RCUT                                        
     1   .000     23  1.700                                                     
     1  -.100     23  1.700                                                     
     2   .000     23  2.000                                                     
     2   .000     23  2.000                                                     
     0   .000     23  1.800                                                     
     0   .000     23  1.800                                                     
     3   .000      7   .000                                                     
  local pseudopotential read in
  partial core-charges read in
  atomic valenz-charges read in
  non local Contribution for L=           1  read in
    real space projection operators read in
  non local Contribution for L=           1  read in
    real space projection operators read in
  non local Contribution for L=           2  read in
    real space projection operators read in
  non local Contribution for L=           2  read in
    real space projection operators read in
  non local Contribution for L=           0  read in
    real space projection operators read in
  non local Contribution for L=           0  read in
    real space projection operators read in
    PAW grid and wavefunctions read in
 
   number of l-projection  operators is LMAX  =           6
   number of lm-projection operators is LMMAX =          18
 
 POTCAR:   PAW Zn 03Mar1998                       
   VRHFIN =Zn: d10 p2                                                           
   LEXCH  = CA                                                                  
   EATOM  =  1754.0560 eV,  128.9195 Ry                                         
                                                                                
   TITEL  = PAW Zn 03Mar1998                                                    
   LULTRA =        F    use ultrasoft PP ?                                      
   IUNSCR =        1    unscreen: 0-lin 1-nonlin 2-no                           
   RPACOR =    2.000    partial core radius                                     
   POMASS =   65.390; ZVAL   =   12.000    mass and valenz                      
   RCORE  =    2.300    outmost cutoff radius                                   
   RWIGS  =    2.400; RWIGS  =    1.270    wigner-seitz radius (au A)           
   ENMAX  =  276.847; ENMIN  =  207.636 eV                                      
   RCLOC  =    1.828    cutoff for local pot                                    
   LCOR   =        T    correct aug charges                                     
   LPAW   =        T    paw PP                                                  
   EAUG   =  575.892                                                            
   DEXC   =    -.003                                                            
   RMAX   =    2.771    core radius for proj-oper                               
   RAUG   =    1.300    factor for augmentation sphere                          
   RDEP   =    2.324    core radius for depl-charge                             
   QCUT   =   -4.511; QGAM   =    9.022    optimization parameters              
                                                                                
   Description                                                                  
     l     E      TYP  RCUT    TYP  RCUT                                        
     2   .000     23  2.300                                                     
     2   .000     23  2.300                                                     
     0   .000     23  2.300                                                     
     0   .000     23  2.300                                                     
     1  -.200     23  2.300                                                     
     1   .000     23  2.300                                                     
     3   .000      7   .000                                                     
  local pseudopotential read in
  partial core-charges read in
  atomic valenz-charges read in
  non local Contribution for L=           2  read in
    real space projection operators read in
  non local Contribution for L=           2  read in
    real space projection operators read in
  non local Contribution for L=           0  read in
    real space projection operators read in
  non local Contribution for L=           0  read in
    real space projection operators read in
  non local Contribution for L=           1  read in
    real space projection operators read in
  non local Contribution for L=           1  read in
    real space projection operators read in
    PAW grid and wavefunctions read in
 
   number of l-projection  operators is LMAX  =           6
   number of lm-projection operators is LMMAX =          18
 
 POTCAR:   PAW Sn_d 09Feb1998                     
   VRHFIN =Sn: s2p2                                                             
   LEXCH  = CA                                                                  
   EATOM  =  1896.7356 eV,  139.4061 Ry                                         
                                                                                
   TITEL  = PAW Sn_d 09Feb1998                                                  
   LULTRA =        F    use ultrasoft PP ?                                      
   IUNSCR =        1    unscreen: 0-lin 1-nonlin 2-no                           
   RPACOR =    2.300    partial core radius                                     
   POMASS =  118.710; ZVAL   =   14.000    mass and valenz                      
   RCORE  =    2.500    outmost cutoff radius                                   
   RWIGS  =    2.960; RWIGS  =    1.566    wigner-seitz radius (au A)           
   ENMAX  =  241.107; ENMIN  =  180.830 eV                                      
   ICORE  =        3    local potential                                         
   LCOR   =        T    correct aug charges                                     
   LPAW   =        T    paw PP                                                  
   EAUG   =  439.825                                                            
   DEXC   =    -.001                                                            
   RMAX   =    2.969    core radius for proj-oper                               
   RDEP   =    2.659    core radius for depl-charge                             
   QCUT   =   -4.210; QGAM   =    8.419    optimization parameters              
                                                                                
   Description                                                                  
     l     E      TYP  RCUT    TYP  RCUT                                        
     2   .000     23  2.500                                                     
     2  -.400     23  2.500                                                     
     0   .000     23  2.500                                                     
     0  1.000     23  2.500                                                     
     1   .000     23  2.500                                                     
     1   .000     23  2.500                                                     
     3  -.100      7  2.500                                                     
  local pseudopotential read in
  partial core-charges read in
  atomic valenz-charges read in
  non local Contribution for L=           2  read in
    real space projection operators read in
  non local Contribution for L=           2  read in
    real space projection operators read in
  non local Contribution for L=           0  read in
    real space projection operators read in
  non local Contribution for L=           0  read in
    real space projection operators read in
  non local Contribution for L=           1  read in
    real space projection operators read in
  non local Contribution for L=           1  read in
    real space projection operators read in
    PAW grid and wavefunctions read in
 
   number of l-projection  operators is LMAX  =           6
   number of lm-projection operators is LMMAX =          18
 
 POTCAR:   PAW S 21Jan2003                        
   VRHFIN =S : s2p4                                                             
   LEXCH  = CA                                                                  
   EATOM  =   277.3803 eV,   20.3869 Ry                                         
                                                                                
   TITEL  = PAW S 21Jan2003                                                     
   LULTRA =        F    use ultrasoft PP ?                                      
   IUNSCR =        1    unscreen: 0-lin 1-nonlin 2-no                           
   RPACOR =    1.500    partial core radius                                     
   POMASS =   32.066; ZVAL   =    6.000    mass and valenz                      
   RCORE  =    1.900    outmost cutoff radius                                   
   RWIGS  =    2.200; RWIGS  =    1.164    wigner-seitz radius (au A)           
   ENMAX  =  280.000; ENMIN  =  193.952 eV                                      
   ICORE  =        2    local potential                                         
   LCOR   =        T    correct aug charges                                     
   LPAW   =        T    paw PP                                                  
   EAUG   =  335.092                                                            
   DEXC   =     .000                                                            
   RMAX   =    2.867    core radius for proj-oper                               
   RAUG   =    1.300    factor for augmentation sphere                          
   RDEP   =    1.954    core radius for depl-charge                             
   QCUT   =   -4.360; QGAM   =    8.719    optimization parameters              
                                                                                
   Description                                                                  
     l     E      TYP  RCUT    TYP  RCUT                                        
     0   .000     23  1.900                                                     
     0   .000     23  1.900                                                     
     1   .000     23  1.900                                                     
     1   .000     23  1.900                                                     
     2   .000      7  1.900                                                     
  local pseudopotential read in
  partial core-charges read in
  atomic valenz-charges read in
  non local Contribution for L=           0  read in
    real space projection operators read in
  non local Contribution for L=           0  read in
    real space projection operators read in
  non local Contribution for L=           1  read in
    real space projection operators read in
  non local Contribution for L=           1  read in
    real space projection operators read in
    PAW grid and wavefunctions read in
 
   number of l-projection  operators is LMAX  =           4
   number of lm-projection operators is LMMAX =           8
 
 PAW Cu_pv 19Apr2000                    :
 energy of atom  1       EATOM=-4124.1158
 kinetic energy error for atom=    0.0655 (will be added to EATOM!!)
 PAW Zn 03Mar1998                       :
 energy of atom  2       EATOM=-1754.0560
 kinetic energy error for atom=    0.0030 (will be added to EATOM!!)
 PAW Sn_d 09Feb1998                     :
 energy of atom  3       EATOM=-1896.7356
 kinetic energy error for atom=    0.0033 (will be added to EATOM!!)
 PAW S 21Jan2003                        :
 energy of atom  4       EATOM= -277.3803
 kinetic energy error for atom=    0.0019 (will be added to EATOM!!)
 
 
 POSCAR: Cu2ZnSnS4 (LaFond 2014, 293 K)          
  positions in direct lattice
  velocities in cartesian coordinates
 exchange correlation table for  LEXCH =        2
   RHO(1)=    0.500       N(1)  =     2000
   RHO(2)=  100.500       N(2)  =     4000
 


--------------------------------------------------------------------------------------------------------


 ion  position               nearest neighbor table
   1  0.000  0.000  0.000-   5 2.32   6 2.32   7 2.32   8 2.32
   2  0.750  0.250  0.500-   8 2.32   6 2.32   7 2.32   5 2.32
   3  0.500  0.500  0.000-   8 2.35   6 2.35   7 2.35   5 2.35
   4  0.250  0.750  0.500-   8 2.42   6 2.42   7 2.42   5 2.42
   5  0.118  0.134  0.244-   1 2.32   2 2.32   3 2.35   4 2.42
   6  0.639  0.623  0.244-   1 2.32   2 2.32   3 2.35   4 2.42
   7  0.866  0.361  0.756-   1 2.32   2 2.32   3 2.35   4 2.42
   8  0.377  0.882  0.756-   1 2.32   2 2.32   3 2.35   4 2.42
 
  LATTYP: Found a body centered tetragonal cell.
 ALAT       =     5.4353000000
 C/A-ratio  =     1.9955400000
  
  Lattice vectors:
  
 A1 = (   2.7176500000,  -2.7176500000,   5.4231792810)
 A2 = (  -2.7176500000,   2.7176500000,   5.4231792810)
 A3 = (  -2.7176500000,  -2.7176500000,  -5.4231792810)


Analysis of symmetry for initial positions (statically):
=====================================================================
 Subroutine PRICEL returns:
 Original cell was already a primitive cell.
 

 Routine SETGRP: Setting up the symmetry group for a 
 body centered tetragonal supercell.


 Subroutine GETGRP returns: Found  4 space group operations
 (whereof  4 operations were pure point group operations)
 out of a pool of 16 trial point group operations.


The static configuration has the point symmetry S_4 .


Analysis of symmetry for dynamics (positions and initial velocities):
=====================================================================
 Subroutine PRICEL returns:
 Original cell was already a primitive cell.
 

 Routine SETGRP: Setting up the symmetry group for a 
 body centered tetragonal supercell.


 Subroutine GETGRP returns: Found  4 space group operations
 (whereof  4 operations were pure point group operations)
 out of a pool of 16 trial point group operations.


The dynamic configuration has the point symmetry S_4 .


 Subroutine INISYM returns: Found  4 space group operations
 (whereof  4 operations are pure point group operations),
 and found     1 'primitive' translations

 
 
 KPOINTS: Automatically generated mesh SCF: 51 to 
  k-points in reciprocal lattice
Space group operators:
 irot       det(A)        alpha          n_x          n_y          n_z        tau_x        tau_y        tau_z
    1     1.000000     0.000000     1.000000     0.000000     0.000000     0.000000     0.000000     0.000000
    2    -1.000000    90.000000     0.000000     0.000000    -1.000000     0.000000     0.000000     0.000000
    3     1.000000   179.999999     0.000000     0.000000     1.000000     0.000000     0.000000     0.000000
    4    -1.000000    90.000000     0.000000     0.000000     1.000000     0.000000     0.000000     0.000000


--------------------------------------------------------------------------------------------------------




 Dimension of arrays:
   k-points           NKPTS =    123   k-points in BZ     NKDIM =    123   number of bands    NBANDS=     52
   number of dos      NEDOS =    301   number of ions     NIONS =      8
   non local maximal  LDIM  =      6   non local SUM 2l+1 LMDIM =     18
   total plane-waves  NPLWV =  76800
   max r-space proj   IRMAX =      1   max aug-charges    IRDMAX=  21604
   dimension x,y,z NGX =    40 NGY =   40 NGZ =   48
   dimension x,y,z NGXF=    80 NGYF=   80 NGZF=   96
   support grid    NGXF=    80 NGYF=   80 NGZF=   96
   ions per type =               2   1   1   4
 NGX,Y,Z   is equivalent  to a cutoff of  12.23, 12.23, 12.01 a.u.
 NGXF,Y,Z  is equivalent  to a cutoff of  24.47, 24.47, 24.01 a.u.


 I would recommend the setting:
   dimension x,y,z NGX =    40 NGY =   40 NGZ =   48
 SYSTEM =  Name                                    
 POSCAR =  Cu2ZnSnS4 (LaFond 2014, 293 K)          

 Startparameter for this run:
   NWRITE =      2    write-flag & timer
   PREC   = accura    normal or accurate (medium, high low for compatibility)
   ISTART =      0    job   : 0-new  1-cont  2-samecut
   ICHARG =     11    charge: 1-file 2-atom 10-const
   ISPIN  =      1    spin polarized calculation?
   LNONCOLLINEAR =      F non collinear calculations
   LSORBIT =      F    spin-orbit coupling
   INIWAV =      1    electr: 0-lowe 1-rand  2-diag
   LASPH  =      F    aspherical Exc in radial PAW
   METAGGA=      F    non-selfconsistent MetaGGA calc.

 Electronic Relaxation 1
   ENCUT  =  500.0 eV  36.75 Ry    6.06 a.u.   9.91  9.91 12.12*2*pi/ulx,y,z
   ENINI  =  500.0     initial cutoff
   ENAUG  =  758.2 eV  augmentation charge cutoff
   NELM   =     60;   NELMIN=  2; NELMDL=  0     # of ELM steps 
   EDIFF  = 0.1E-05   stopping-criterion for ELM
   LREAL  =      F    real-space projection
   NLSPLINE    = F    spline interpolate recip. space projectors
   LCOMPAT=      F    compatible to vasp.4.4
   GGA_COMPAT  = T    GGA compatible to vasp.4.4-vasp.4.6
   LMAXPAW     = -100 max onsite density
   LMAXMIX     =    2 max onsite mixed and CHGCAR
   VOSKOWN=      0    Vosko Wilk Nusair interpolation
   ROPT   =    0.00000   0.00000   0.00000   0.00000
 Ionic relaxation
   EDIFFG = -.5E-02   stopping-criterion for IOM
   NSW    =      0    number of steps for IOM
   NBLOCK =      1;   KBLOCK =      1    inner block; outer block 
   IBRION =     -1    ionic relax: 0-MD 1-quasi-New 2-CG
   NFREE  =      1    steps in history (QN), initial steepest desc. (CG)
   ISIF   =      3    stress and relaxation
   IWAVPR =     10    prediction:  0-non 1-charg 2-wave 3-comb
   ISYM   =      2    0-nonsym 1-usesym 2-fastsym
   LCORR  =      T    Harris-Foulkes like correction to forces

   POTIM  = 0.5000    time-step for ionic-motion
   TEIN   =    0.0    initial temperature
   TEBEG  =    0.0;   TEEND  =   0.0 temperature during run
   SMASS  =  -3.00    Nose mass-parameter (am)
   estimated Nose-frequenzy (Omega)   =  0.10E-29 period in steps =****** mass=  -0.675E-27a.u.
   SCALEE = 1.0000    scale energy and forces
   NPACO  =    256;   APACO  = 16.0  distance and # of slots for P.C.
   PSTRESS=    0.0 pullay stress

  Mass of Ions in am
   POMASS =  63.55 65.39118.71 32.07
  Ionic Valenz
   ZVAL   =  17.00 12.00 14.00  6.00
  Atomic Wigner-Seitz radii
   RWIGS  =  -1.00 -1.00 -1.00 -1.00
  virtual crystal weights 
   VCA    =   1.00  1.00  1.00  1.00
   NELECT =      84.0000    total number of electrons
   NUPDOWN=      -1.0000    fix difference up-down

 DOS related values:
   EMIN   =  10.00;   EMAX   =-10.00  energy-range for DOS
   EFERMI =   0.00
   ISMEAR =     0;   SIGMA  =   0.01  broadening in eV -4-tet -1-fermi 0-gaus

 Electronic relaxation 2 (details)
   IALGO  =     38    algorithm
   LDIAG  =      T    sub-space diagonalisation (order eigenvalues)
   LSUBROT=      F    optimize rotation matrix (better conditioning)
   TURBO    =      0    0=normal 1=particle mesh
   IRESTART =      0    0=no restart 2=restart with 2 vectors
   NREBOOT  =      0    no. of reboots
   NMIN     =      0    reboot dimension
   EREF     =   0.00    reference energy to select bands
   IMIX   =      4    mixing-type and parameters
     AMIX     =   0.40;   BMIX     =  1.00
     AMIX_MAG =   1.60;   BMIX_MAG =  1.00
     AMIN     =   0.01
     WC   =   100.;   INIMIX=   1;  MIXPRE=   1;  MAXMIX= -45

 Intra band minimization:
   WEIMIN = 0.0000     energy-eigenvalue tresh-hold
   EBREAK =  0.48E-08  absolut break condition
   DEPER  =   0.30     relativ break condition  

   TIME   =   0.40     timestep for ELM

  volume/ion in A,a.u.               =      20.03       135.15
  Fermi-wavevector in a.u.,A,eV,Ry     =   1.320082  2.494593 23.709739  1.742617
  Thomas-Fermi vector in A             =   2.449934
 
 Write flags
   LWAVE  =      T    write WAVECAR
   LCHARG =      T    write CHGCAR
   LVTOT  =      F    write LOCPOT, total local potential
   LVHAR  =      F    write LOCPOT, Hartree potential only
   LELF   =      F    write electronic localiz. function (ELF)
   LORBIT =     10    0 simple, 1 ext, 2 COOP (PROOUT)


 Dipole corrections
   LMONO  =      F    monopole corrections only (constant potential shift)
   LDIPOL =      F    correct potential (dipole corrections)
   IDIPOL =      0    1-x, 2-y, 3-z, 4-all directions 
   EPSILON=  1.0000000 bulk dielectric constant

 Core level calculations are selected ICORELEVEL =  1
 Exchange correlation treatment:
   GGA     =    --    GGA type
   LEXCH   =     2    internal setting for exchange type
   VOSKOWN=      0    Vosko Wilk Nusair interpolation
   LHFCALC =     F    Hartree Fock is set to
   LHFONE  =     F    Hartree Fock one center treatment
   AEXX    =    0.0000 exact exchange contribution

 Linear response parameters
   LEPSILON=     F    determine dielectric tensor
   LRPA    =     F    only Hartree local field effects (RPA)
   LNABLA  =     F    use nabla operator in PAW spheres
   LVEL    =     F    velocity operator in full k-point grid
   LINTERFAST=   F  fast interpolation
   KINTER  =     0    interpolate to denser k-point grid
   CSHIFT  =0.1000    complex shift for real part using Kramers Kronig
   OMEGAMAX=  -1.0    maximum frequency
   DEG_THRESHOLD= 0.2000000E-02 threshold for treating states as degnerate
   RTIME   =    0.100 relaxation time in fs

 Orbital magnetization related:
   ORBITALMAG=     F  switch on orbital magnetization
   LCHIMAG   =     F  perturbation theory with respect to B field
   DQ        =  0.001000  dq finite difference perturbation B field



--------------------------------------------------------------------------------------------------------


 Static calculation
 charge density and potential remain constant during run
 non-spin polarized calculation
 Variant of blocked Davidson
 Davidson routine will perform the subspace rotation
 perform sub-space diagonalisation
    after iterative eigenvector-optimisation
 no mixing
 using additional bands           10
 reciprocal scheme for non local part
 use partial core corrections
 calculate Harris-corrections to forces 
   (improved forces if not selfconsistent)
 use of overlap-Matrix (Vanderbilt PP)
 Gauss-broadening in eV      SIGMA  =   0.01


--------------------------------------------------------------------------------------------------------


  energy-cutoff  :      500.00
  volume of cell :      160.21
      direct lattice vectors                 reciprocal lattice vectors
     5.435300000  0.000000000  0.000000000     0.183982485  0.000000000 -0.092196841
     0.000000000  5.435300000  0.000000000     0.000000000  0.183982485 -0.092196841
     2.717650000  2.717650000  5.423179281     0.000000000  0.000000000  0.184393683

  length of vectors
     5.435300000  5.435300000  6.646962958     0.205790700  0.205790700  0.184393683


 
 k-points in units of 2pi/SCALE and weight: Automatically generated mesh SCF: 51 to 
   0.00000000  0.00000000  0.00000000       0.007
   0.16666667  0.00000000 -0.08351958       0.028
   0.33333333  0.00000000 -0.16703916       0.028
   0.50000000  0.00000000 -0.25055875       0.028
   0.16666667  0.16666667 -0.16703916       0.014
   0.33333333  0.16666667 -0.25055875       0.028
   0.50000000  0.16666667 -0.33407833       0.028
  -0.33333333  0.16666667  0.08351958       0.014
  -0.16666667  0.16666667  0.00000000       0.014
   0.16666667  0.33333333 -0.25055875       0.028
   0.33333333  0.33333333 -0.33407833       0.014
   0.50000000  0.33333333 -0.41759791       0.028
  -0.33333333  0.33333333  0.00000000       0.014
  -0.16666667  0.33333333 -0.08351958       0.014
   0.16666667  0.50000000 -0.33407833       0.028
   0.33333333  0.50000000 -0.41759791       0.028
   0.50000000  0.50000000 -0.50111749       0.014
   0.00000000  0.00000000  0.25055875       0.014
   0.16666667  0.00000000  0.16703916       0.028
   0.33333333  0.00000000  0.08351958       0.028
   0.50000000  0.00000000  0.00000000       0.028
  -0.33333333  0.00000000  0.41759791       0.028
  -0.16666667  0.00000000  0.33407833       0.028
   0.16666667  0.16666667  0.08351958       0.014
   0.33333333  0.16666667  0.00000000       0.014
   0.50000000  0.16666667 -0.08351958       0.028
  -0.33333333  0.16666667  0.33407833       0.014
  -0.16666667  0.16666667  0.25055875       0.028
   0.16666667  0.33333333  0.00000000       0.014
   0.33333333  0.33333333 -0.08351958       0.014
   0.50000000  0.33333333 -0.16703916       0.028
  -0.33333333  0.33333333  0.25055875       0.028
  -0.16666667  0.33333333  0.16703916       0.014
   0.16666667  0.50000000 -0.08351958       0.028
   0.33333333  0.50000000 -0.16703916       0.028
   0.50000000  0.50000000 -0.25055875       0.014
   0.16666667 -0.33333333  0.33407833       0.014
  -0.33333333 -0.33333333  0.58463707       0.014
  -0.16666667 -0.33333333  0.50111749       0.014
   0.33333333 -0.16666667  0.16703916       0.014
  -0.33333333 -0.16666667  0.50111749       0.014
  -0.16666667 -0.16666667  0.41759791       0.014
   0.00000000  0.00000000  0.50111749       0.007
   0.16666667  0.00000000  0.41759791       0.028
   0.33333333  0.00000000  0.33407833       0.028
   0.16666667  0.16666667  0.33407833       0.014
  -0.33333333  0.16666667  0.58463707       0.014
  -0.16666667  0.16666667  0.50111749       0.014
   0.33333333  0.33333333  0.16703916       0.014
  -0.33333333  0.33333333  0.50111749       0.014
  -0.16666667  0.33333333  0.41759791       0.014
   0.00000000  0.00000000  0.00000000       0.000
   0.00000000  0.02941176 -0.01473875       0.000
   0.00000000  0.05882353 -0.02947750       0.000
   0.00000000  0.08823530 -0.04421625       0.000
   0.00000000  0.11764706 -0.05895500       0.000
   0.00000000  0.14705883 -0.07369375       0.000
   0.00000000  0.17647059 -0.08843250       0.000
   0.00000000  0.20588236 -0.10317125       0.000
   0.00000000  0.23529412 -0.11791000       0.000
   0.00000000  0.26470590 -0.13264876       0.000
   0.00000000  0.29411766 -0.14738750       0.000
   0.00000000  0.32352942 -0.16212625       0.000
   0.00000000  0.35294119 -0.17686500       0.000
   0.00000000  0.38235295 -0.19160375       0.000
   0.00000000  0.41176471 -0.20634250       0.000
   0.00000000  0.44117647 -0.22108125       0.000
   0.00000000  0.47058824 -0.23582000       0.000
   0.00000000  0.50000000 -0.25055875       0.000
   0.02941176  0.50000000 -0.26529749       0.000
   0.05882353  0.50000000 -0.28003625       0.000
   0.08823530  0.50000000 -0.29477500       0.000
   0.11764706  0.50000000 -0.30951375       0.000
   0.14705883  0.50000000 -0.32425250       0.000
   0.17647059  0.50000000 -0.33899125       0.000
   0.20588236  0.50000000 -0.35373000       0.000
   0.23529412  0.50000000 -0.36846875       0.000
   0.26470590  0.50000000 -0.38320750       0.000
   0.29411766  0.50000000 -0.39794625       0.000
   0.32352942  0.50000000 -0.41268500       0.000
   0.35294119  0.50000000 -0.42742375       0.000
   0.38235295  0.50000000 -0.44216250       0.000
   0.41176471  0.50000000 -0.45690124       0.000
   0.44117647  0.50000000 -0.47163999       0.000
   0.47058824  0.50000000 -0.48637874       0.000
   0.50000000  0.50000000 -0.50111749       0.000
   0.47916666  0.47916666 -0.48023759       0.000
   0.45833334  0.45833334 -0.45935771       0.000
   0.43750000  0.43750000 -0.43847781       0.000
   0.41666666  0.41666666 -0.41759790       0.000
   0.39583334  0.39583334 -0.39671802       0.000
   0.37500000  0.37500000 -0.37583812       0.000
   0.35416669  0.35416669 -0.35495825       0.000
   0.33333331  0.33333331 -0.33407830       0.000
   0.31250000  0.31250000 -0.31319843       0.000
   0.29166669  0.29166669 -0.29231856       0.000
   0.27083331  0.27083331 -0.27143862       0.000
   0.25000000  0.25000000 -0.25055875       0.000
   0.22916666  0.22916666 -0.22967884       0.000
   0.20833334  0.20833334 -0.20879896       0.000
   0.18750000  0.18750000 -0.18791906       0.000
   0.16666666  0.16666666 -0.16703916       0.000
   0.14583331  0.14583331 -0.14615925       0.000
   0.12500000  0.12500000 -0.12527937       0.000
   0.10416666  0.10416666 -0.10439947       0.000
   0.08333334  0.08333334 -0.08351959       0.000
   0.06249997  0.06249997 -0.06263966       0.000
   0.04166666  0.04166666 -0.04175978       0.000
   0.02083331  0.02083331 -0.02087987       0.000
   0.00000000  0.00000000  0.00000000       0.000
   0.00000000  0.00000000  0.03854750       0.000
   0.00000000  0.00000000  0.07709500       0.000
   0.00000000  0.00000000  0.11564250       0.000
   0.00000000  0.00000000  0.15419000       0.000
   0.00000000  0.00000000  0.19273750       0.000
   0.00000000  0.00000000  0.23128502       0.000
   0.00000000  0.00000000  0.26983251       0.000
   0.00000000  0.00000000  0.30838001       0.000
   0.00000000  0.00000000  0.34692751       0.000
   0.00000000  0.00000000  0.38547500       0.000
   0.00000000  0.00000000  0.42402250       0.000
   0.00000000  0.00000000  0.46257002       0.000
   0.00000000  0.00000000  0.50111749       0.000
 
 k-points in reciprocal lattice and weights: Automatically generated mesh SCF: 51 to 
   0.00000000  0.00000000  0.00000000       0.007
   0.16666667  0.00000000  0.00000000       0.028
   0.33333333  0.00000000  0.00000000       0.028
   0.50000000  0.00000000  0.00000000       0.028
   0.16666667  0.16666667  0.00000000       0.014
   0.33333333  0.16666667  0.00000000       0.028
   0.50000000  0.16666667  0.00000000       0.028
  -0.33333333  0.16666667  0.00000000       0.014
  -0.16666667  0.16666667  0.00000000       0.014
   0.16666667  0.33333333  0.00000000       0.028
   0.33333333  0.33333333  0.00000000       0.014
   0.50000000  0.33333333  0.00000000       0.028
  -0.33333333  0.33333333  0.00000000       0.014
  -0.16666667  0.33333333  0.00000000       0.014
   0.16666667  0.50000000  0.00000000       0.028
   0.33333333  0.50000000  0.00000000       0.028
   0.50000000  0.50000000  0.00000000       0.014
   0.00000000  0.00000000  0.25000000       0.014
   0.16666667  0.00000000  0.25000000       0.028
   0.33333333  0.00000000  0.25000000       0.028
   0.50000000  0.00000000  0.25000000       0.028
  -0.33333333  0.00000000  0.25000000       0.028
  -0.16666667  0.00000000  0.25000000       0.028
   0.16666667  0.16666667  0.25000000       0.014
   0.33333333  0.16666667  0.25000000       0.014
   0.50000000  0.16666667  0.25000000       0.028
  -0.33333333  0.16666667  0.25000000       0.014
  -0.16666667  0.16666667  0.25000000       0.028
   0.16666667  0.33333333  0.25000000       0.014
   0.33333333  0.33333333  0.25000000       0.014
   0.50000000  0.33333333  0.25000000       0.028
  -0.33333333  0.33333333  0.25000000       0.028
  -0.16666667  0.33333333  0.25000000       0.014
   0.16666667  0.50000000  0.25000000       0.028
   0.33333333  0.50000000  0.25000000       0.028
   0.50000000  0.50000000  0.25000000       0.014
   0.16666667 -0.33333333  0.25000000       0.014
  -0.33333333 -0.33333333  0.25000000       0.014
  -0.16666667 -0.33333333  0.25000000       0.014
   0.33333333 -0.16666667  0.25000000       0.014
  -0.33333333 -0.16666667  0.25000000       0.014
  -0.16666667 -0.16666667  0.25000000       0.014
   0.00000000  0.00000000  0.50000000       0.007
   0.16666667  0.00000000  0.50000000       0.028
   0.33333333  0.00000000  0.50000000       0.028
   0.16666667  0.16666667  0.50000000       0.014
  -0.33333333  0.16666667  0.50000000       0.014
  -0.16666667  0.16666667  0.50000000       0.014
   0.33333333  0.33333333  0.50000000       0.014
  -0.33333333  0.33333333  0.50000000       0.014
  -0.16666667  0.33333333  0.50000000       0.014
   0.00000000  0.00000000  0.00000000       0.000
   0.00000000  0.02941176  0.00000000       0.000
   0.00000000  0.05882353  0.00000000       0.000
   0.00000000  0.08823530  0.00000000       0.000
   0.00000000  0.11764706  0.00000000       0.000
   0.00000000  0.14705883  0.00000000       0.000
   0.00000000  0.17647059  0.00000000       0.000
   0.00000000  0.20588236  0.00000000       0.000
   0.00000000  0.23529412  0.00000000       0.000
   0.00000000  0.26470590  0.00000000       0.000
   0.00000000  0.29411766  0.00000000       0.000
   0.00000000  0.32352942  0.00000000       0.000
   0.00000000  0.35294119  0.00000000       0.000
   0.00000000  0.38235295  0.00000000       0.000
   0.00000000  0.41176471  0.00000000       0.000
   0.00000000  0.44117647  0.00000000       0.000
   0.00000000  0.47058824  0.00000000       0.000
   0.00000000  0.50000000  0.00000000       0.000
   0.02941176  0.50000000  0.00000000       0.000
   0.05882353  0.50000000  0.00000000       0.000
   0.08823530  0.50000000  0.00000000       0.000
   0.11764706  0.50000000  0.00000000       0.000
   0.14705883  0.50000000  0.00000000       0.000
   0.17647059  0.50000000  0.00000000       0.000
   0.20588236  0.50000000  0.00000000       0.000
   0.23529412  0.50000000  0.00000000       0.000
   0.26470590  0.50000000  0.00000000       0.000
   0.29411766  0.50000000  0.00000000       0.000
   0.32352942  0.50000000  0.00000000       0.000
   0.35294119  0.50000000  0.00000000       0.000
   0.38235295  0.50000000  0.00000000       0.000
   0.41176471  0.50000000  0.00000000       0.000
   0.44117647  0.50000000  0.00000000       0.000
   0.47058824  0.50000000  0.00000000       0.000
   0.50000000  0.50000000  0.00000000       0.000
   0.47916666  0.47916666  0.00000000       0.000
   0.45833334  0.45833334  0.00000000       0.000
   0.43750000  0.43750000  0.00000000       0.000
   0.41666666  0.41666666  0.00000000       0.000
   0.39583334  0.39583334  0.00000000       0.000
   0.37500000  0.37500000  0.00000000       0.000
   0.35416669  0.35416669  0.00000000       0.000
   0.33333331  0.33333331  0.00000000       0.000
   0.31250000  0.31250000  0.00000000       0.000
   0.29166669  0.29166669  0.00000000       0.000
   0.27083331  0.27083331  0.00000000       0.000
   0.25000000  0.25000000  0.00000000       0.000
   0.22916666  0.22916666  0.00000000       0.000
   0.20833334  0.20833334  0.00000000       0.000
   0.18750000  0.18750000  0.00000000       0.000
   0.16666666  0.16666666  0.00000000       0.000
   0.14583331  0.14583331  0.00000000       0.000
   0.12500000  0.12500000  0.00000000       0.000
   0.10416666  0.10416666  0.00000000       0.000
   0.08333334  0.08333334  0.00000000       0.000
   0.06249997  0.06249997  0.00000000       0.000
   0.04166666  0.04166666  0.00000000       0.000
   0.02083331  0.02083331  0.00000000       0.000
   0.00000000  0.00000000  0.00000000       0.000
   0.00000000  0.00000000  0.03846154       0.000
   0.00000000  0.00000000  0.07692308       0.000
   0.00000000  0.00000000  0.11538462       0.000
   0.00000000  0.00000000  0.15384616       0.000
   0.00000000  0.00000000  0.19230770       0.000
   0.00000000  0.00000000  0.23076925       0.000
   0.00000000  0.00000000  0.26923078       0.000
   0.00000000  0.00000000  0.30769232       0.000
   0.00000000  0.00000000  0.34615386       0.000
   0.00000000  0.00000000  0.38461539       0.000
   0.00000000  0.00000000  0.42307693       0.000
   0.00000000  0.00000000  0.46153849       0.000
   0.00000000  0.00000000  0.50000000       0.000
 
 position of ions in fractional coordinates (direct lattice) 
   0.00000000  0.00000000  0.00000000
   0.75000000  0.25000000  0.50000000
   0.50000000  0.50000000  0.00000000
   0.25000000  0.75000000  0.50000000
   0.11777234  0.13390109  0.24359300
   0.63863466  0.62250591  0.24359300
   0.86609891  0.36136534  0.75640700
   0.37749409  0.88222766  0.75640700
 
 position of ions in cartesian coordinates  (Angst):
   0.00000000  0.00000000  0.00000000
   5.43530000  2.71765000  2.71158964
   2.71765000  2.71765000  0.00000000
   2.71765000  5.43530000  2.71158964
   1.30212853  1.38979311  1.32104849
   4.13317147  4.04550689  1.32104849
   6.76315689  4.01977853  4.10213079
   4.10744311  6.85082147  4.10213079
 


--------------------------------------------------------------------------------------------------------


 k-point  1 :   0.0000 0.0000 0.0000  plane waves:    4055
 k-point  2 :   0.1667 0.0000 0.0000  plane waves:    4054
 k-point  3 :   0.3333 0.0000 0.0000  plane waves:    4078
 k-point  4 :   0.5000 0.0000 0.0000  plane waves:    4072
 k-point  5 :   0.1667 0.1667 0.0000  plane waves:    4054
 k-point  6 :   0.3333 0.1667 0.0000  plane waves:    4071
 k-point  7 :   0.5000 0.1667 0.0000  plane waves:    4069
 k-point  8 :  -0.3333 0.1667 0.0000  plane waves:    4066
 k-point  9 :  -0.1667 0.1667 0.0000  plane waves:    4058
 k-point 10 :   0.1667 0.3333 0.0000  plane waves:    4071
 k-point 11 :   0.3333 0.3333 0.0000  plane waves:    4064
 k-point 12 :   0.5000 0.3333 0.0000  plane waves:    4074
 k-point 13 :  -0.3333 0.3333 0.0000  plane waves:    4068
 k-point 14 :  -0.1667 0.3333 0.0000  plane waves:    4066
 k-point 15 :   0.1667 0.5000 0.0000  plane waves:    4069
 k-point 16 :   0.3333 0.5000 0.0000  plane waves:    4074
 k-point 17 :   0.5000 0.5000 0.0000  plane waves:    4054
 k-point 18 :   0.0000 0.0000 0.2500  plane waves:    4056
 k-point 19 :   0.1667 0.0000 0.2500  plane waves:    4052
 k-point 20 :   0.3333 0.0000 0.2500  plane waves:    4063
 k-point 21 :   0.5000 0.0000 0.2500  plane waves:    4072
 k-point 22 :  -0.3333 0.0000 0.2500  plane waves:    4078
 k-point 23 :  -0.1667 0.0000 0.2500  plane waves:    4068
 k-point 24 :   0.1667 0.1667 0.2500  plane waves:    4060
 k-point 25 :   0.3333 0.1667 0.2500  plane waves:    4064
 k-point 26 :   0.5000 0.1667 0.2500  plane waves:    4070
 k-point 27 :  -0.3333 0.1667 0.2500  plane waves:    4071
 k-point 28 :  -0.1667 0.1667 0.2500  plane waves:    4057
 k-point 29 :   0.1667 0.3333 0.2500  plane waves:    4064
 k-point 30 :   0.3333 0.3333 0.2500  plane waves:    4061
 k-point 31 :   0.5000 0.3333 0.2500  plane waves:    4074
 k-point 32 :  -0.3333 0.3333 0.2500  plane waves:    4055
 k-point 33 :  -0.1667 0.3333 0.2500  plane waves:    4063
 k-point 34 :   0.1667 0.5000 0.2500  plane waves:    4070
 k-point 35 :   0.3333 0.5000 0.2500  plane waves:    4074
 k-point 36 :   0.5000 0.5000 0.2500  plane waves:    4080
 k-point 37 :   0.1667-0.3333 0.2500  plane waves:    4071
 k-point 38 :  -0.3333-0.3333 0.2500  plane waves:    4085
 k-point 39 :  -0.1667-0.3333 0.2500  plane waves:    4082
 k-point 40 :   0.3333-0.1667 0.2500  plane waves:    4063
 k-point 41 :  -0.3333-0.1667 0.2500  plane waves:    4082
 k-point 42 :  -0.1667-0.1667 0.2500  plane waves:    4064
 k-point 43 :   0.0000 0.0000 0.5000  plane waves:    4040
 k-point 44 :   0.1667 0.0000 0.5000  plane waves:    4060
 k-point 45 :   0.3333 0.0000 0.5000  plane waves:    4074
 k-point 46 :   0.1667 0.1667 0.5000  plane waves:    4069
 k-point 47 :  -0.3333 0.1667 0.5000  plane waves:    4077
 k-point 48 :  -0.1667 0.1667 0.5000  plane waves:    4058
 k-point 49 :   0.3333 0.3333 0.5000  plane waves:    4050
 k-point 50 :  -0.3333 0.3333 0.5000  plane waves:    4094
 k-point 51 :  -0.1667 0.3333 0.5000  plane waves:    4077
 k-point 52 :   0.0000 0.0000 0.0000  plane waves:    4055
 k-point 53 :   0.0000 0.0294 0.0000  plane waves:    4051
 k-point 54 :   0.0000 0.0588 0.0000  plane waves:    4047
 k-point 55 :   0.0000 0.0882 0.0000  plane waves:    4047
 k-point 56 :   0.0000 0.1176 0.0000  plane waves:    4051
 k-point 57 :   0.0000 0.1471 0.0000  plane waves:    4043
 k-point 58 :   0.0000 0.1765 0.0000  plane waves:    4056
 k-point 59 :   0.0000 0.2059 0.0000  plane waves:    4061
 k-point 60 :   0.0000 0.2353 0.0000  plane waves:    4055
 k-point 61 :   0.0000 0.2647 0.0000  plane waves:    4060
 k-point 62 :   0.0000 0.2941 0.0000  plane waves:    4071
 k-point 63 :   0.0000 0.3235 0.0000  plane waves:    4072
 k-point 64 :   0.0000 0.3529 0.0000  plane waves:    4080
 k-point 65 :   0.0000 0.3824 0.0000  plane waves:    4080
 k-point 66 :   0.0000 0.4118 0.0000  plane waves:    4076
 k-point 67 :   0.0000 0.4412 0.0000  plane waves:    4075
 k-point 68 :   0.0000 0.4706 0.0000  plane waves:    4066
 k-point 69 :   0.0000 0.5000 0.0000  plane waves:    4072
 k-point 70 :   0.0294 0.5000 0.0000  plane waves:    4068
 k-point 71 :   0.0588 0.5000 0.0000  plane waves:    4066
 k-point 72 :   0.0882 0.5000 0.0000  plane waves:    4068
 k-point 73 :   0.1176 0.5000 0.0000  plane waves:    4068
 k-point 74 :   0.1471 0.5000 0.0000  plane waves:    4076
 k-point 75 :   0.1765 0.5000 0.0000  plane waves:    4071
 k-point 76 :   0.2059 0.5000 0.0000  plane waves:    4071
 k-point 77 :   0.2353 0.5000 0.0000  plane waves:    4072
 k-point 78 :   0.2647 0.5000 0.0000  plane waves:    4072
 k-point 79 :   0.2941 0.5000 0.0000  plane waves:    4073
 k-point 80 :   0.3235 0.5000 0.0000  plane waves:    4073
 k-point 81 :   0.3529 0.5000 0.0000  plane waves:    4073
 k-point 82 :   0.3824 0.5000 0.0000  plane waves:    4072
 k-point 83 :   0.4118 0.5000 0.0000  plane waves:    4073
 k-point 84 :   0.4412 0.5000 0.0000  plane waves:    4076
 k-point 85 :   0.4706 0.5000 0.0000  plane waves:    4058
 k-point 86 :   0.5000 0.5000 0.0000  plane waves:    4054
 k-point 87 :   0.4792 0.4792 0.0000  plane waves:    4064
 k-point 88 :   0.4583 0.4583 0.0000  plane waves:    4072
 k-point 89 :   0.4375 0.4375 0.0000  plane waves:    4087
 k-point 90 :   0.4167 0.4167 0.0000  plane waves:    4082
 k-point 91 :   0.3958 0.3958 0.0000  plane waves:    4082
 k-point 92 :   0.3750 0.3750 0.0000  plane waves:    4073
 k-point 93 :   0.3542 0.3542 0.0000  plane waves:    4068
 k-point 94 :   0.3333 0.3333 0.0000  plane waves:    4064
 k-point 95 :   0.3125 0.3125 0.0000  plane waves:    4063
 k-point 96 :   0.2917 0.2917 0.0000  plane waves:    4070
 k-point 97 :   0.2708 0.2708 0.0000  plane waves:    4068
 k-point 98 :   0.2500 0.2500 0.0000  plane waves:    4051
 k-point 99 :   0.2292 0.2292 0.0000  plane waves:    4057
 k-point ** :   0.2083 0.2083 0.0000  plane waves:    4058
 k-point ** :   0.1875 0.1875 0.0000  plane waves:    4055
 k-point ** :   0.1667 0.1667 0.0000  plane waves:    4054
 k-point ** :   0.1458 0.1458 0.0000  plane waves:    4039
 k-point ** :   0.1250 0.1250 0.0000  plane waves:    4043
 k-point ** :   0.1042 0.1042 0.0000  plane waves:    4045
 k-point ** :   0.0833 0.0833 0.0000  plane waves:    4053
 k-point ** :   0.0625 0.0625 0.0000  plane waves:    4042
 k-point ** :   0.0417 0.0417 0.0000  plane waves:    4043
 k-point ** :   0.0208 0.0208 0.0000  plane waves:    4050
 k-point ** :   0.0000 0.0000 0.0000  plane waves:    4055
 k-point ** :   0.0000 0.0000 0.0385  plane waves:    4043
 k-point ** :   0.0000 0.0000 0.0769  plane waves:    4051
 k-point ** :   0.0000 0.0000 0.1154  plane waves:    4056
 k-point ** :   0.0000 0.0000 0.1538  plane waves:    4040
 k-point ** :   0.0000 0.0000 0.1923  plane waves:    4052
 k-point ** :   0.0000 0.0000 0.2308  plane waves:    4072
 k-point ** :   0.0000 0.0000 0.2692  plane waves:    4048
 k-point ** :   0.0000 0.0000 0.3077  plane waves:    4048
 k-point ** :   0.0000 0.0000 0.3462  plane waves:    4040
 k-point ** :   0.0000 0.0000 0.3846  plane waves:    4036
 k-point ** :   0.0000 0.0000 0.4231  plane waves:    4060
 k-point ** :   0.0000 0.0000 0.4615  plane waves:    4056
 k-point ** :   0.0000 0.0000 0.5000  plane waves:    4040

 maximum and minimum number of plane-waves per node :       702      650

 maximum number of plane-waves:      4094
 maximum index in each direction: 
   IXMAX=   10   IYMAX=   10   IZMAX=   12
   IXMIN=  -10   IYMIN=  -10   IZMIN=  -12

 WARNING: aliasing errors must be expected set NGX to  42 to avoid them
 WARNING: aliasing errors must be expected set NGY to  42 to avoid them
 WARNING: aliasing errors must be expected set NGZ to  50 to avoid them
 aliasing errors are usually negligible using standard VASP settings
 and one can safely disregard these warnings

 parallel 3D FFT for wavefunctions:
    minimum data exchange during FFTs selected (reduces bandwidth)
 parallel 3D FFT for charge:
    minimum data exchange during FFTs selected (reduces bandwidth)


 total amount of memory used by VASP on root node   101378. kBytes
========================================================================

   base      :      30000. kBytes
   nonl-proj :      48831. kBytes
   fftplans  :       1409. kBytes
   grid      :       2789. kBytes
   one-center:         31. kBytes
   wavefun   :      18318. kBytes
 
     INWAV:  cpu time    0.0000: real time    0.0000
 initial charge density was supplied:
 number of electron      83.9999898 magnetization 
 keeping initial charge density in first step


--------------------------------------------------------------------------------------------------------


 Maximum index for augmentation-charges         1037 (set IRDMAX)


--------------------------------------------------------------------------------------------------------


 First call to EWALD:  gamma=   0.326
 Maximum number of real-space cells 3x 3x 3
 Maximum number of reciprocal cells 3x 3x 3

 FEWALD executed in parallel
    FEWALD:  cpu time    0.0000: real time    0.0030


----------------------------------------- Iteration    1(   1)  ---------------------------------------


    POTLOK:  cpu time    0.0040: real time    0.0045
    SETDIJ:  cpu time    0.0040: real time    0.0017
     EDDAV:  cpu time    1.1681: real time    1.1704
       DOS:  cpu time    0.0000: real time    0.0023
    --------------------------------------------
      LOOP:  cpu time    1.1801: real time    1.2017

 eigenvalue-minimisations  : 15208
 total energy-change (2. order) : 0.9610127E+03  (-0.4445708E+04)
 number of electron      83.9999898 magnetization 
 augmentation part       83.9999898 magnetization 

 Free energy of the ion-electron system (eV)
  ---------------------------------------------------
  alpha Z        PSCENC =       249.48649896
  Ewald energy   TEWEN  =     -7155.92568703
  -Hartree energ DENC   =     -5035.05875093
  -exchange      EXHF   =         0.00000000
  -V(xc)+E(xc)   XCENC  =       384.01810247
  PAW double counting   =      9618.65938397   -10147.75643411
  entropy T*S    EENTRO =        -0.00000001
  eigenvalues    EBANDS =        39.18990514
  atomic energy  EATOM  =     13008.39969644
  Solvation  Ediel_sol  =         0.00000000
  ---------------------------------------------------
  free energy    TOTEN  =       961.01271489 eV

  energy without entropy =      961.01271490  energy(sigma->0) =      961.01271490


--------------------------------------------------------------------------------------------------------




----------------------------------------- Iteration    1(   2)  ---------------------------------------


     EDDAV:  cpu time    1.0161: real time    1.0171
       DOS:  cpu time    0.0040: real time    0.0041
    --------------------------------------------
      LOOP:  cpu time    1.0241: real time    1.0291

 eigenvalue-minimisations  : 12816
 total energy-change (2. order) :-0.8626570E+03  (-0.8366014E+03)
 number of electron      83.9999898 magnetization 
 augmentation part       83.9999898 magnetization 

 Free energy of the ion-electron system (eV)
  ---------------------------------------------------
  alpha Z        PSCENC =       249.48649896
  Ewald energy   TEWEN  =     -7155.92568703
  -Hartree energ DENC   =     -5035.05875093
  -exchange      EXHF   =         0.00000000
  -V(xc)+E(xc)   XCENC  =       384.01810247
  PAW double counting   =      9618.65938397   -10147.75643411
  entropy T*S    EENTRO =        -0.00007843
  eigenvalues    EBANDS =      -823.46706156
  atomic energy  EATOM  =     13008.39969644
  Solvation  Ediel_sol  =         0.00000000
  ---------------------------------------------------
  free energy    TOTEN  =        98.35566978 eV

  energy without entropy =       98.35574821  energy(sigma->0) =       98.35570899


--------------------------------------------------------------------------------------------------------




----------------------------------------- Iteration    1(   3)  ---------------------------------------


     EDDAV:  cpu time    1.0681: real time    1.0688
       DOS:  cpu time    0.0000: real time    0.0015
    --------------------------------------------
      LOOP:  cpu time    1.0681: real time    1.1078

 eigenvalue-minimisations  : 14184
 total energy-change (2. order) :-0.1278545E+03  (-0.1244050E+03)
 number of electron      83.9999898 magnetization 
 augmentation part       83.9999898 magnetization 

 Free energy of the ion-electron system (eV)
  ---------------------------------------------------
  alpha Z        PSCENC =       249.48649896
  Ewald energy   TEWEN  =     -7155.92568703
  -Hartree energ DENC   =     -5035.05875093
  -exchange      EXHF   =         0.00000000
  -V(xc)+E(xc)   XCENC  =       384.01810247
  PAW double counting   =      9618.65938397   -10147.75643411
  entropy T*S    EENTRO =        -0.00000000
  eigenvalues    EBANDS =      -951.32166122
  atomic energy  EATOM  =     13008.39969644
  Solvation  Ediel_sol  =         0.00000000
  ---------------------------------------------------
  free energy    TOTEN  =       -29.49885146 eV

  energy without entropy =      -29.49885146  energy(sigma->0) =      -29.49885146


--------------------------------------------------------------------------------------------------------




----------------------------------------- Iteration    1(   4)  ---------------------------------------


     EDDAV:  cpu time    1.1521: real time    1.1526
       DOS:  cpu time    0.0000: real time    0.0013
    --------------------------------------------
      LOOP:  cpu time    1.1561: real time    1.1614

 eigenvalue-minimisations  : 15208
 total energy-change (2. order) :-0.8202703E+01  (-0.8115919E+01)
 number of electron      83.9999898 magnetization 
 augmentation part       83.9999898 magnetization 

 Free energy of the ion-electron system (eV)
  ---------------------------------------------------
  alpha Z        PSCENC =       249.48649896
  Ewald energy   TEWEN  =     -7155.92568703
  -Hartree energ DENC   =     -5035.05875093
  -exchange      EXHF   =         0.00000000
  -V(xc)+E(xc)   XCENC  =       384.01810247
  PAW double counting   =      9618.65938397   -10147.75643411
  entropy T*S    EENTRO =        -0.00000000
  eigenvalues    EBANDS =      -959.52436459
  atomic energy  EATOM  =     13008.39969644
  Solvation  Ediel_sol  =         0.00000000
  ---------------------------------------------------
  free energy    TOTEN  =       -37.70155483 eV

  energy without entropy =      -37.70155483  energy(sigma->0) =      -37.70155483


--------------------------------------------------------------------------------------------------------




----------------------------------------- Iteration    1(   5)  ---------------------------------------


     EDDAV:  cpu time    1.2481: real time    1.2456
       DOS:  cpu time    0.0000: real time    0.0014
    --------------------------------------------
      LOOP:  cpu time    1.2481: real time    1.2554

 eigenvalue-minimisations  : 17156
 total energy-change (2. order) :-0.2729297E+00  (-0.2724970E+00)
 number of electron      83.9999898 magnetization 
 augmentation part       83.9999898 magnetization 

 Free energy of the ion-electron system (eV)
  ---------------------------------------------------
  alpha Z        PSCENC =       249.48649896
  Ewald energy   TEWEN  =     -7155.92568703
  -Hartree energ DENC   =     -5035.05875093
  -exchange      EXHF   =         0.00000000
  -V(xc)+E(xc)   XCENC  =       384.01810247
  PAW double counting   =      9618.65938397   -10147.75643411
  entropy T*S    EENTRO =        -0.00000000
  eigenvalues    EBANDS =      -959.79729427
  atomic energy  EATOM  =     13008.39969644
  Solvation  Ediel_sol  =         0.00000000
  ---------------------------------------------------
  free energy    TOTEN  =       -37.97448451 eV

  energy without entropy =      -37.97448451  energy(sigma->0) =      -37.97448451


--------------------------------------------------------------------------------------------------------




----------------------------------------- Iteration    1(   6)  ---------------------------------------


     EDDAV:  cpu time    1.2841: real time    1.2830
       DOS:  cpu time    0.0000: real time    0.0013
    --------------------------------------------
      LOOP:  cpu time    1.2841: real time    1.2909

 eigenvalue-minimisations  : 17720
 total energy-change (2. order) :-0.1012350E-01  (-0.1012077E-01)
 number of electron      83.9999898 magnetization 
 augmentation part       83.9999898 magnetization 

 Free energy of the ion-electron system (eV)
  ---------------------------------------------------
  alpha Z        PSCENC =       249.48649896
  Ewald energy   TEWEN  =     -7155.92568703
  -Hartree energ DENC   =     -5035.05875093
  -exchange      EXHF   =         0.00000000
  -V(xc)+E(xc)   XCENC  =       384.01810247
  PAW double counting   =      9618.65938397   -10147.75643411
  entropy T*S    EENTRO =        -0.00000000
  eigenvalues    EBANDS =      -959.80741778
  atomic energy  EATOM  =     13008.39969644
  Solvation  Ediel_sol  =         0.00000000
  ---------------------------------------------------
  free energy    TOTEN  =       -37.98460801 eV

  energy without entropy =      -37.98460801  energy(sigma->0) =      -37.98460801


--------------------------------------------------------------------------------------------------------




----------------------------------------- Iteration    1(   7)  ---------------------------------------


     EDDAV:  cpu time    1.3201: real time    1.3235
       DOS:  cpu time    0.0040: real time    0.0018
    --------------------------------------------
      LOOP:  cpu time    1.3281: real time    1.3322

 eigenvalue-minimisations  : 18396
 total energy-change (2. order) :-0.4027909E-03  (-0.4027743E-03)
 number of electron      83.9999898 magnetization 
 augmentation part       83.9999898 magnetization 

 Free energy of the ion-electron system (eV)
  ---------------------------------------------------
  alpha Z        PSCENC =       249.48649896
  Ewald energy   TEWEN  =     -7155.92568703
  -Hartree energ DENC   =     -5035.05875093
  -exchange      EXHF   =         0.00000000
  -V(xc)+E(xc)   XCENC  =       384.01810247
  PAW double counting   =      9618.65938397   -10147.75643411
  entropy T*S    EENTRO =        -0.00000000
  eigenvalues    EBANDS =      -959.80782057
  atomic energy  EATOM  =     13008.39969644
  Solvation  Ediel_sol  =         0.00000000
  ---------------------------------------------------
  free energy    TOTEN  =       -37.98501080 eV

  energy without entropy =      -37.98501080  energy(sigma->0) =      -37.98501080


--------------------------------------------------------------------------------------------------------




----------------------------------------- Iteration    1(   8)  ---------------------------------------


     EDDAV:  cpu time    1.2361: real time    1.2365
       DOS:  cpu time    0.0000: real time    0.0018
    --------------------------------------------
      LOOP:  cpu time    1.2361: real time    1.2422

 eigenvalue-minimisations  : 16876
 total energy-change (2. order) :-0.4301068E-05  (-0.4301062E-05)
 number of electron      83.9999898 magnetization 
 augmentation part       83.9999898 magnetization 

 Free energy of the ion-electron system (eV)
  ---------------------------------------------------
  alpha Z        PSCENC =       249.48649896
  Ewald energy   TEWEN  =     -7155.92568703
  -Hartree energ DENC   =     -5035.05875093
  -exchange      EXHF   =         0.00000000
  -V(xc)+E(xc)   XCENC  =       384.01810247
  PAW double counting   =      9618.65938397   -10147.75643411
  entropy T*S    EENTRO =        -0.00000000
  eigenvalues    EBANDS =      -959.80782487
  atomic energy  EATOM  =     13008.39969644
  Solvation  Ediel_sol  =         0.00000000
  ---------------------------------------------------
  free energy    TOTEN  =       -37.98501510 eV

  energy without entropy =      -37.98501510  energy(sigma->0) =      -37.98501510


--------------------------------------------------------------------------------------------------------




----------------------------------------- Iteration    1(   9)  ---------------------------------------


     EDDAV:  cpu time    0.8841: real time    0.8857
       DOS:  cpu time    0.0000: real time    0.0017
    --------------------------------------------
      LOOP:  cpu time    0.9241: real time    0.9272

 eigenvalue-minimisations  : 10184
 total energy-change (2. order) :-0.7037124E-07  (-0.7043823E-07)
 number of electron      83.9999898 magnetization 
 augmentation part       83.9999898 magnetization 

 Free energy of the ion-electron system (eV)
  ---------------------------------------------------
  alpha Z        PSCENC =       249.48649896
  Ewald energy   TEWEN  =     -7155.92568703
  -Hartree energ DENC   =     -5035.05875093
  -exchange      EXHF   =         0.00000000
  -V(xc)+E(xc)   XCENC  =       384.01810247
  PAW double counting   =      9618.65938397   -10147.75643411
  entropy T*S    EENTRO =        -0.00000000
  eigenvalues    EBANDS =      -959.80782494
  atomic energy  EATOM  =     13008.39969644
  Solvation  Ediel_sol  =         0.00000000
  ---------------------------------------------------
  free energy    TOTEN  =       -37.98501517 eV

  energy without entropy =      -37.98501517  energy(sigma->0) =      -37.98501517


--------------------------------------------------------------------------------------------------------




 the core state eigenenergies are
   1-  1s  -8798.8793  2s  -1050.3854  2p   -907.5247  3s   -105.5711
   2-  1s  -8798.8959  2s  -1050.3981  2p   -907.5378  3s   -105.5849
   3-  1s  -9469.3681  2s  -1145.2263  2p   -993.7445  3s   -120.0715  3p    -74.8427
     
   4-  1s -28831.7637  2s  -4350.7217  2p  -3911.1078  3s   -832.3494  3p   -688.1007
       3d   -464.5499  4s   -124.5043  4p    -80.6603
   5-  1s  -2382.4684  2s   -199.9944  2p   -145.8593
   6-  1s  -2382.4684  2s   -199.9944  2p   -145.8593
   7-  1s  -2382.4684  2s   -199.9944  2p   -145.8593
   8-  1s  -2382.4684  2s   -199.9944  2p   -145.8593
 
 E-fermi :   4.7975     XC(G=0): -10.2352     alpha+bet :-10.1852


 k-point     1 :       0.0000    0.0000    0.0000
  band No.  band energies     occupation 
      1     -63.9188      2.00000
      2     -63.8638      2.00000
      3     -63.8638      2.00000
      4     -63.8428      2.00000
      5     -63.8428      2.00000
      6     -63.8355      2.00000
      7     -17.4121      2.00000
      8     -17.4082      2.00000
      9     -17.4082      2.00000
     10     -17.3168      2.00000
     11     -17.3115      2.00000
     12      -9.7090      2.00000
     13      -8.1410      2.00000
     14      -8.1301      2.00000
     15      -8.1301      2.00000
     16      -3.3594      2.00000
     17      -2.4924      2.00000
     18      -2.4242      2.00000
     19      -2.4220      2.00000
     20      -2.4220      2.00000
     21      -2.3219      2.00000
     22      -0.9321      2.00000
     23      -0.2901      2.00000
     24      -0.1864      2.00000
     25       0.2720      2.00000
     26       0.2720      2.00000
     27       0.3009      2.00000
     28       1.0215      2.00000
     29       1.0215      2.00000
     30       1.4788      2.00000
     31       1.4788      2.00000
     32       1.4928      2.00000
     33       2.5848      2.00000
     34       2.6277      2.00000
     35       2.8237      2.00000
     36       3.0805      2.00000
     37       3.1001      2.00000
     38       3.1001      2.00000
     39       3.2611      2.00000
     40       4.6722      2.00000
     41       4.6722      2.00000
     42       4.7474      2.00000
     43       4.9159      0.00000
     44       6.6487      0.00000
     45       7.4756      0.00000
     46       8.4556      0.00000
     47       8.4556      0.00000
     48       9.5399      0.00000
     49       9.6244      0.00000
     50       9.8892      0.00000
     51       9.8892      0.00000
     52      10.2867      0.00000

 k-point     2 :       0.1667    0.0000    0.0000
  band No.  band energies     occupation 
      1     -63.9188      2.00000
      2     -63.8638      2.00000
      3     -63.8638      2.00000
      4     -63.8428      2.00000
      5     -63.8428      2.00000
      6     -63.8355      2.00000
      7     -17.4122      2.00000
      8     -17.4084      2.00000
      9     -17.4082      2.00000
     10     -17.3166      2.00000
     11     -17.3114      2.00000
     12      -9.6156      2.00000
     13      -8.2157      2.00000
     14      -8.1730      2.00000
     15      -8.1591      2.00000
     16      -3.3139      2.00000
     17      -2.4662      2.00000
     18      -2.4501      2.00000
     19      -2.4284      2.00000
     20      -2.4136      2.00000
     21      -2.3069      2.00000
     22      -0.9806      2.00000
     23      -0.4263      2.00000
     24      -0.1851      2.00000
     25       0.1227      2.00000
     26       0.4412      2.00000
     27       0.5931      2.00000
     28       0.9303      2.00000
     29       1.0252      2.00000
     30       1.3891      2.00000
     31       1.4521      2.00000
     32       1.5855      2.00000
     33       2.6256      2.00000
     34       2.7125      2.00000
     35       2.8468      2.00000
     36       2.9684      2.00000
     37       3.0474      2.00000
     38       3.2248      2.00000
     39       3.3389      2.00000
     40       4.0304      2.00000
     41       4.4494      2.00000
     42       4.6322      2.00000
     43       5.6679      0.00000
     44       7.0606      0.00000
     45       7.6918      0.00000
     46       8.2014      0.00000
     47       8.3017      0.00000
     48       9.2982      0.00000
     49       9.7666      0.00000
     50       9.8905      0.00000
     51      10.0185      0.00000
     52      10.2782      0.00000

 k-point     3 :       0.3333    0.0000    0.0000
  band No.  band energies     occupation 
      1     -63.9188      2.00000
      2     -63.8639      2.00000
      3     -63.8639      2.00000
      4     -63.8429      2.00000
      5     -63.8429      2.00000
      6     -63.8355      2.00000
      7     -17.4124      2.00000
      8     -17.4086      2.00000
      9     -17.4082      2.00000
     10     -17.3164      2.00000
     11     -17.3112      2.00000
     12      -9.3637      2.00000
     13      -8.4675      2.00000
     14      -8.2423      2.00000
     15      -8.2006      2.00000
     16      -3.2259      2.00000
     17      -2.4885      2.00000
     18      -2.4580      2.00000
     19      -2.4099      2.00000
     20      -2.3929      2.00000
     21      -2.2700      2.00000
     22      -0.9878      2.00000
     23      -0.5074      2.00000
     24      -0.2002      2.00000
     25       0.2514      2.00000
     26       0.3671      2.00000
     27       0.6074      2.00000
     28       0.8262      2.00000
     29       1.0539      2.00000
     30       1.3389      2.00000
     31       1.4570      2.00000
     32       1.6880      2.00000
     33       2.7431      2.00000
     34       2.8055      2.00000
     35       2.8809      2.00000
     36       2.9366      2.00000
     37       3.0696      2.00000
     38       3.3115      2.00000
     39       3.4413      2.00000
     40       3.7261      2.00000
     41       3.9774      2.00000
     42       4.3975      2.00000
     43       6.2381      0.00000
     44       7.6423      0.00000
     45       7.9574      0.00000
     46       8.0915      0.00000
     47       8.5837      0.00000
     48       9.3466      0.00000
     49       9.8203      0.00000
     50       9.8718      0.00000
     51      10.4517      0.00000
     52      10.5637      0.00000

 k-point     4 :       0.5000    0.0000    0.0000
  band No.  band energies     occupation 
      1     -63.9188      2.00000
      2     -63.8639      2.00000
      3     -63.8638      2.00000
      4     -63.8429      2.00000
      5     -63.8428      2.00000
      6     -63.8355      2.00000
      7     -17.4126      2.00000
      8     -17.4087      2.00000
      9     -17.4082      2.00000
     10     -17.3162      2.00000
     11     -17.3112      2.00000
     12      -9.1364      2.00000
     13      -8.7012      2.00000
     14      -8.2733      2.00000
     15      -8.2206      2.00000
     16      -3.1843      2.00000
     17      -2.4991      2.00000
     18      -2.4675      2.00000
     19      -2.3997      2.00000
     20      -2.3764      2.00000
     21      -2.2457      2.00000
     22      -0.9269      2.00000
     23      -0.5262      2.00000
     24      -0.1701      2.00000
     25       0.0941      2.00000
     26       0.4092      2.00000
     27       0.4891      2.00000
     28       0.9461      2.00000
     29       1.1060      2.00000
     30       1.2533      2.00000
     31       1.4740      2.00000
     32       1.6869      2.00000
     33       2.7670      2.00000
     34       2.8018      2.00000
     35       2.8933      2.00000
     36       3.0055      2.00000
     37       3.1035      2.00000
     38       3.4276      2.00000
     39       3.5469      2.00000
     40       3.6127      2.00000
     41       3.6818      2.00000
     42       4.2256      2.00000
     43       6.4432      0.00000
     44       7.8173      0.00000
     45       7.9679      0.00000
     46       8.8777      0.00000
     47       8.9301      0.00000
     48       9.2433      0.00000
     49       9.6867      0.00000
     50       9.9907      0.00000
     51      10.2719      0.00000
     52      10.7536      0.00000

 k-point     5 :       0.1667    0.1667    0.0000
  band No.  band energies     occupation 
      1     -63.9187      2.00000
      2     -63.8638      2.00000
      3     -63.8638      2.00000
      4     -63.8429      2.00000
      5     -63.8428      2.00000
      6     -63.8354      2.00000
      7     -17.4123      2.00000
      8     -17.4083      2.00000
      9     -17.4083      2.00000
     10     -17.3165      2.00000
     11     -17.3113      2.00000
     12      -9.4926      2.00000
     13      -8.2998      2.00000
     14      -8.2188      2.00000
     15      -8.2127      2.00000
     16      -3.3057      2.00000
     17      -2.4732      2.00000
     18      -2.4623      2.00000
     19      -2.4096      2.00000
     20      -2.3982      2.00000
     21      -2.2791      2.00000
     22      -1.0802      2.00000
     23      -0.5606      2.00000
     24      -0.0230      2.00000
     25       0.2478      2.00000
     26       0.3521      2.00000
     27       0.6860      2.00000
     28       0.9411      2.00000
     29       1.0602      2.00000
     30       1.3231      2.00000
     31       1.5319      2.00000
     32       1.5936      2.00000
     33       2.6564      2.00000
     34       2.7904      2.00000
     35       2.8738      2.00000
     36       2.9470      2.00000
     37       3.0797      2.00000
     38       3.2541      2.00000
     39       3.3798      2.00000
     40       3.7419      2.00000
     41       4.4737      2.00000
     42       4.5193      2.00000
     43       5.7898      0.00000
     44       7.3027      0.00000
     45       7.5622      0.00000
     46       7.8600      0.00000
     47       8.3228      0.00000
     48       9.3907      0.00000
     49       9.7286      0.00000
     50       9.9400      0.00000
     51      10.1353      0.00000
     52      10.2717      0.00000

 k-point     6 :       0.3333    0.1667    0.0000
  band No.  band energies     occupation 
      1     -63.9188      2.00000
      2     -63.8639      2.00000
      3     -63.8638      2.00000
      4     -63.8429      2.00000
      5     -63.8428      2.00000
      6     -63.8355      2.00000
      7     -17.4126      2.00000
      8     -17.4086      2.00000
      9     -17.4083      2.00000
     10     -17.3162      2.00000
     11     -17.3112      2.00000
     12      -9.2391      2.00000
     13      -8.5065      2.00000
     14      -8.3187      2.00000
     15      -8.2384      2.00000
     16      -3.2649      2.00000
     17      -2.5106      2.00000
     18      -2.4640      2.00000
     19      -2.3957      2.00000
     20      -2.3697      2.00000
     21      -2.2490      2.00000
     22      -1.1029      2.00000
     23      -0.6933      2.00000
     24      -0.1535      2.00000
     25       0.1805      2.00000
     26       0.5129      2.00000
     27       0.7447      2.00000
     28       0.9775      2.00000
     29       1.0243      2.00000
     30       1.3475      2.00000
     31       1.5622      2.00000
     32       1.6426      2.00000
     33       2.7118      2.00000
     34       2.8146      2.00000
     35       2.9052      2.00000
     36       2.9638      2.00000
     37       3.1431      2.00000
     38       3.3977      2.00000
     39       3.4449      2.00000
     40       3.6735      2.00000
     41       4.0985      2.00000
     42       4.3545      2.00000
     43       6.0353      0.00000
     44       7.4717      0.00000
     45       7.7536      0.00000
     46       8.0763      0.00000
     47       8.6070      0.00000
     48       9.6092      0.00000
     49       9.9027      0.00000
     50      10.0961      0.00000
     51      10.3654      0.00000
     52      10.5670      0.00000

 k-point     7 :       0.5000    0.1667    0.0000
  band No.  band energies     occupation 
      1     -63.9188      2.00000
      2     -63.8639      2.00000
      3     -63.8638      2.00000
      4     -63.8429      2.00000
      5     -63.8428      2.00000
      6     -63.8355      2.00000
      7     -17.4127      2.00000
      8     -17.4087      2.00000
      9     -17.4083      2.00000
     10     -17.3160      2.00000
     11     -17.3111      2.00000
     12      -9.1015      2.00000
     13      -8.6467      2.00000
     14      -8.3504      2.00000
     15      -8.2188      2.00000
     16      -3.2382      2.00000
     17      -2.5007      2.00000
     18      -2.4614      2.00000
     19      -2.3977      2.00000
     20      -2.3648      2.00000
     21      -2.2694      2.00000
     22      -1.1118      2.00000
     23      -0.7538      2.00000
     24      -0.2397      2.00000
     25       0.0628      2.00000
     26       0.5695      2.00000
     27       0.7533      2.00000
     28       0.9469      2.00000
     29       1.0977      2.00000
     30       1.3839      2.00000
     31       1.5248      2.00000
     32       1.7045      2.00000
     33       2.7540      2.00000
     34       2.8082      2.00000
     35       2.8730      2.00000
     36       2.9368      2.00000
     37       3.2849      2.00000
     38       3.3966      2.00000
     39       3.5987      2.00000
     40       3.6639      2.00000
     41       3.9344      2.00000
     42       4.1460      2.00000
     43       6.2244      0.00000
     44       7.6640      0.00000
     45       7.9773      0.00000
     46       8.6422      0.00000
     47       8.9096      0.00000
     48       9.3878      0.00000
     49       9.6231      0.00000
     50       9.9313      0.00000
     51      10.5071      0.00000
     52      10.8020      0.00000

 k-point     8 :      -0.3333    0.1667    0.0000
  band No.  band energies     occupation 
      1     -63.9188      2.00000
      2     -63.8639      2.00000
      3     -63.8638      2.00000
      4     -63.8429      2.00000
      5     -63.8428      2.00000
      6     -63.8355      2.00000
      7     -17.4126      2.00000
      8     -17.4086      2.00000
      9     -17.4083      2.00000
     10     -17.3162      2.00000
     11     -17.3112      2.00000
     12      -9.3486      2.00000
     13      -8.4304      2.00000
     14      -8.2993      2.00000
     15      -8.1718      2.00000
     16      -3.2501      2.00000
     17      -2.4700      2.00000
     18      -2.4584      2.00000
     19      -2.4259      2.00000
     20      -2.3790      2.00000
     21      -2.3047      2.00000
     22      -1.1901      2.00000
     23      -0.7043      2.00000
     24      -0.1208      2.00000
     25       0.0465      2.00000
     26       0.4709      2.00000
     27       0.7898      2.00000
     28       0.9105      2.00000
     29       1.0646      2.00000
     30       1.3484      2.00000
     31       1.5200      2.00000
     32       1.7501      2.00000
     33       2.7410      2.00000
     34       2.8133      2.00000
     35       2.8823      2.00000
     36       2.9376      2.00000
     37       3.1562      2.00000
     38       3.2816      2.00000
     39       3.5434      2.00000
     40       3.6639      2.00000
     41       4.1782      2.00000
     42       4.3336      2.00000
     43       6.1192      0.00000
     44       7.7232      0.00000
     45       7.8984      0.00000
     46       8.0972      0.00000
     47       8.7818      0.00000
     48       9.3352      0.00000
     49       9.6818      0.00000
     50      10.0823      0.00000
     51      10.4868      0.00000
     52      10.6403      0.00000

 k-point     9 :      -0.1667    0.1667    0.0000
  band No.  band energies     occupation 
      1     -63.9187      2.00000
      2     -63.8638      2.00000
      3     -63.8638      2.00000
      4     -63.8429      2.00000
      5     -63.8428      2.00000
      6     -63.8354      2.00000
      7     -17.4123      2.00000
      8     -17.4084      2.00000
      9     -17.4083      2.00000
     10     -17.3165      2.00000
     11     -17.3113      2.00000
     12      -9.5623      2.00000
     13      -8.2628      2.00000
     14      -8.2088      2.00000
     15      -8.1407      2.00000
     16      -3.2848      2.00000
     17      -2.4827      2.00000
     18      -2.4478      2.00000
     19      -2.4348      2.00000
     20      -2.3968      2.00000
     21      -2.3149      2.00000
     22      -1.0825      2.00000
     23      -0.5762      2.00000
     24      -0.1148      2.00000
     25       0.1066      2.00000
     26       0.3136      2.00000
     27       0.8001      2.00000
     28       0.9406      2.00000
     29       1.0584      2.00000
     30       1.2640      2.00000
     31       1.5374      2.00000
     32       1.6334      2.00000
     33       2.6643      2.00000
     34       2.7494      2.00000
     35       2.8769      2.00000
     36       2.9138      2.00000
     37       3.0216      2.00000
     38       3.2956      2.00000
     39       3.4283      2.00000
     40       3.8115      2.00000
     41       4.4207      2.00000
     42       4.6093      2.00000
     43       5.7799      0.00000
     44       7.2105      0.00000
     45       7.9108      0.00000
     46       8.3291      0.00000
     47       8.4834      0.00000
     48       9.3042      0.00000
     49       9.6495      0.00000
     50       9.9804      0.00000
     51      10.1434      0.00000
     52      10.2250      0.00000

 k-point    10 :       0.1667    0.3333    0.0000
  band No.  band energies     occupation 
      1     -63.9188      2.00000
      2     -63.8639      2.00000
      3     -63.8638      2.00000
      4     -63.8429      2.00000
      5     -63.8428      2.00000
      6     -63.8355      2.00000
      7     -17.4126      2.00000
      8     -17.4086      2.00000
      9     -17.4083      2.00000
     10     -17.3162      2.00000
     11     -17.3112      2.00000
     12      -9.2391      2.00000
     13      -8.5066      2.00000
     14      -8.3184      2.00000
     15      -8.2386      2.00000
     16      -3.2653      2.00000
     17      -2.5060      2.00000
     18      -2.4750      2.00000
     19      -2.3938      2.00000
[...]
     24       0.3509      2.00000
     25       0.5284      2.00000
     26       0.5284      2.00000
     27       0.5767      2.00000
     28       1.0434      2.00000
     29       1.0434      2.00000
     30       1.2973      2.00000
     31       1.5070      2.00000
     32       1.5071      2.00000
     33       2.4785      2.00000
     34       2.7543      2.00000
     35       2.8110      2.00000
     36       2.9341      2.00000
     37       3.3229      2.00000
     38       3.4166      2.00000
     39       3.4166      2.00000
     40       3.8059      2.00000
     41       4.0840      2.00000
     42       4.0840      2.00000
     43       6.1103      0.00000
     44       6.9556      0.00000
     45       7.0159      0.00000
     46       7.0159      0.00000
     47       7.7630      0.00000
     48       8.2752      0.00000
     49       8.8367      0.00000
     50       9.0840      0.00000
     51      10.7217      0.00000
     52      10.7218      0.00000

 k-point   120 :       0.0000    0.0000    0.3846
  band No.  band energies     occupation 
      1     -63.9188      2.00000
      2     -63.8637      2.00000
      3     -63.8637      2.00000
      4     -63.8427      2.00000
      5     -63.8427      2.00000
      6     -63.8355      2.00000
      7     -17.4122      2.00000
      8     -17.4080      2.00000
      9     -17.4080      2.00000
     10     -17.3168      2.00000
     11     -17.3114      2.00000
     12      -9.3441      2.00000
     13      -8.6839      2.00000
     14      -8.1436      2.00000
     15      -8.1436      2.00000
     16      -3.4269      2.00000
     17      -2.5027      2.00000
     18      -2.4568      2.00000
     19      -2.4568      2.00000
     20      -2.3749      2.00000
     21      -2.1082      2.00000
     22      -1.1935      2.00000
     23      -0.1057      2.00000
     24       0.4035      2.00000
     25       0.5070      2.00000
     26       0.5583      2.00000
     27       0.5583      2.00000
     28       1.0478      2.00000
     29       1.0478      2.00000
     30       1.3270      2.00000
     31       1.5120      2.00000
     32       1.5120      2.00000
     33       2.4739      2.00000
     34       2.7494      2.00000
     35       2.7930      2.00000
     36       2.9197      2.00000
     37       3.3701      2.00000
     38       3.4719      2.00000
     39       3.4719      2.00000
     40       3.7457      2.00000
     41       4.0037      2.00000
     42       4.0037      2.00000
     43       6.1355      0.00000
     44       6.8803      0.00000
     45       6.8803      0.00000
     46       6.9975      0.00000
     47       7.8186      0.00000
     48       8.1877      0.00000
     49       8.8203      0.00000
     50       8.9904      0.00000
     51      10.9073      0.00000
     52      10.9073      0.00000

 k-point   121 :       0.0000    0.0000    0.4231
  band No.  band energies     occupation 
      1     -63.9188      2.00000
      2     -63.8638      2.00000
      3     -63.8638      2.00000
      4     -63.8428      2.00000
      5     -63.8428      2.00000
      6     -63.8355      2.00000
      7     -17.4122      2.00000
      8     -17.4080      2.00000
      9     -17.4080      2.00000
     10     -17.3168      2.00000
     11     -17.3114      2.00000
     12      -9.2882      2.00000
     13      -8.7530      2.00000
     14      -8.1446      2.00000
     15      -8.1446      2.00000
     16      -3.4313      2.00000
     17      -2.5073      2.00000
     18      -2.4593      2.00000
     19      -2.4593      2.00000
     20      -2.3754      2.00000
     21      -2.0876      2.00000
     22      -1.2091      2.00000
     23      -0.0168      2.00000
     24       0.3845      2.00000
     25       0.4782      2.00000
     26       0.5810      2.00000
     27       0.5810      2.00000
     28       1.0514      2.00000
     29       1.0514      2.00000
     30       1.3558      2.00000
     31       1.5161      2.00000
     32       1.5161      2.00000
     33       2.4699      2.00000
     34       2.7430      2.00000
     35       2.7876      2.00000
     36       2.8995      2.00000
     37       3.4212      2.00000
     38       3.5226      2.00000
     39       3.5226      2.00000
     40       3.6898      2.00000
     41       3.9349      2.00000
     42       3.9349      2.00000
     43       6.1451      0.00000
     44       6.7792      0.00000
     45       6.7792      0.00000
     46       7.0319      0.00000
     47       7.8554      0.00000
     48       8.1291      0.00000
     49       8.8231      0.00000
     50       8.9225      0.00000
     51      11.0810      0.00000
     52      11.0811      0.00000

 k-point   122 :       0.0000    0.0000    0.4615
  band No.  band energies     occupation 
      1     -63.9188      2.00000
      2     -63.8638      2.00000
      3     -63.8638      2.00000
      4     -63.8428      2.00000
      5     -63.8428      2.00000
      6     -63.8355      2.00000
      7     -17.4122      2.00000
      8     -17.4080      2.00000
      9     -17.4080      2.00000
     10     -17.3168      2.00000
     11     -17.3114      2.00000
     12      -9.2447      2.00000
     13      -8.8046      2.00000
     14      -8.1453      2.00000
     15      -8.1453      2.00000
     16      -3.4339      2.00000
     17      -2.5101      2.00000
     18      -2.4609      2.00000
     19      -2.4609      2.00000
     20      -2.3758      2.00000
     21      -2.0750      2.00000
     22      -1.2187      2.00000
     23       0.0807      2.00000
     24       0.2902      2.00000
     25       0.4993      2.00000
     26       0.5950      2.00000
     27       0.5950      2.00000
     28       1.0539      2.00000
     29       1.0539      2.00000
     30       1.3759      2.00000
     31       1.5189      2.00000
     32       1.5189      2.00000
     33       2.4672      2.00000
     34       2.7378      2.00000
     35       2.7906      2.00000
     36       2.8806      2.00000
     37       3.4686      2.00000
     38       3.5618      2.00000
     39       3.5618      2.00000
     40       3.6415      2.00000
     41       3.8848      2.00000
     42       3.8848      2.00000
     43       6.1471      0.00000
     44       6.7168      0.00000
     45       6.7168      0.00000
     46       7.0550      0.00000
     47       7.8694      0.00000
     48       8.1014      0.00000
     49       8.8298      0.00000
     50       8.8841      0.00000
     51      11.2165      0.00000
     52      11.2190      0.00000

 k-point   123 :       0.0000    0.0000    0.5000
  band No.  band energies     occupation 
      1     -63.9187      2.00000
      2     -63.8638      2.00000
      3     -63.8638      2.00000
      4     -63.8428      2.00000
      5     -63.8428      2.00000
      6     -63.8354      2.00000
      7     -17.4122      2.00000
      8     -17.4080      2.00000
      9     -17.4080      2.00000
     10     -17.3168      2.00000
     11     -17.3114      2.00000
     12      -9.2274      2.00000
     13      -8.8246      2.00000
     14      -8.1455      2.00000
     15      -8.1455      2.00000
     16      -3.4348      2.00000
     17      -2.5111      2.00000
     18      -2.4615      2.00000
     19      -2.4615      2.00000
     20      -2.3760      2.00000
     21      -2.0707      2.00000
     22      -1.2219      2.00000
     23       0.1712      2.00000
     24       0.1988      2.00000
     25       0.5084      2.00000
     26       0.5998      2.00000
     27       0.5998      2.00000
     28       1.0548      2.00000
     29       1.0548      2.00000
     30       1.3830      2.00000
     31       1.5199      2.00000
     32       1.5199      2.00000
     33       2.4663      2.00000
     34       2.7360      2.00000
     35       2.7935      2.00000
     36       2.8724      2.00000
     37       3.4924      2.00000
     38       3.5776      2.00000
     39       3.5776      2.00000
     40       3.6176      2.00000
     41       3.8655      2.00000
     42       3.8655      2.00000
     43       6.1471      0.00000
     44       6.6957      0.00000
     45       6.6957      0.00000
     46       7.0633      0.00000
     47       7.8715      0.00000
     48       8.0946      0.00000
     49       8.8316      0.00000
     50       8.8732      0.00000
     51      11.2708      0.00000
     52      11.2734      0.00000


--------------------------------------------------------------------------------------------------------


 soft charge-density along one line, spin component           1
         0         1         2         3         4         5         6         7         8         9
 total charge-density along one line
 
 pseudopotential strength for first ion, spin component:           1
-67.786  -0.000  -0.000  32.186   0.000   0.000   0.000  -0.000
 -0.000 -67.764  -0.000   0.000  32.170   0.000  -0.008   0.000
 -0.000  -0.000 -67.786   0.000   0.000  32.186   0.000  -0.008
 32.186   0.000   0.000  -9.262  -0.000  -0.000  -0.000   0.000
  0.000  32.170   0.000  -0.000  -9.252  -0.000   0.003  -0.000
  0.000   0.000  32.186  -0.000  -0.000  -9.262  -0.000   0.003
  0.000  -0.008   0.000  -0.000   0.003  -0.000  -7.456   0.000
 -0.000   0.000  -0.008   0.000  -0.000   0.003   0.000  -7.442
 -0.000   0.000   0.000   0.000  -0.000  -0.000  -0.000   0.000
 -0.008  -0.000   0.000   0.003   0.000  -0.000   0.000  -0.000
  0.000   0.000  -0.000  -0.000  -0.000   0.000   0.003   0.000
 -0.000   0.002  -0.000   0.000  -0.001   0.000  -0.483  -0.000
  0.000  -0.000   0.002  -0.000   0.000  -0.001  -0.000  -0.487
  0.000  -0.000  -0.000  -0.000   0.000   0.000   0.000  -0.000
  0.002   0.000  -0.000  -0.001  -0.000   0.000  -0.000   0.000
 -0.000  -0.000   0.000   0.000   0.000  -0.000  -0.001  -0.000
 -0.000   0.000   0.000   0.000  -0.000  -0.000   0.000   0.000
  0.000  -0.000  -0.000  -0.000   0.000   0.000  -0.000  -0.000
 total augmentation occupancy for first ion, spin component:           1
  2.000   0.000   0.000   0.000   0.000   0.000   0.000   0.000   0.000   0.000   0.000   0.000   0.000   0.000   0.000   0.000
  0.000   2.000   0.000   0.000   0.000   0.000   0.000   0.000   0.000   0.000   0.000   0.000   0.000   0.000   0.000   0.000
  0.000   0.000   2.000   0.000   0.000   0.000   0.000   0.000   0.000   0.000   0.000   0.000   0.000   0.000   0.000   0.000
  0.000   0.000   0.000   0.000   0.000   0.000   0.000   0.000   0.000   0.000   0.000   0.000   0.000   0.000   0.000   0.000
  0.000   0.000   0.000   0.000   0.000   0.000   0.000   0.000   0.000   0.000   0.000   0.000   0.000   0.000   0.000   0.000
  0.000   0.000   0.000   0.000   0.000   0.000   0.000   0.000   0.000   0.000   0.000   0.000   0.000   0.000   0.000   0.000
  0.000   0.000   0.000   0.000   0.000   0.000   2.000   0.000   0.000   0.000   0.000   0.000   0.000   0.000   0.000   0.000
  0.000   0.000   0.000   0.000   0.000   0.000   0.000   2.000   0.000   0.000   0.000   0.000   0.000   0.000   0.000   0.000
  0.000   0.000   0.000   0.000   0.000   0.000   0.000   0.000   2.000   0.000   0.000   0.000   0.000   0.000   0.000   0.000
  0.000   0.000   0.000   0.000   0.000   0.000   0.000   0.000   0.000   2.000   0.000   0.000   0.000   0.000   0.000   0.000
  0.000   0.000   0.000   0.000   0.000   0.000   0.000   0.000   0.000   0.000   2.000   0.000   0.000   0.000   0.000   0.000
  0.000   0.000   0.000   0.000   0.000   0.000   0.000   0.000   0.000   0.000   0.000   0.000   0.000   0.000   0.000   0.000
  0.000   0.000   0.000   0.000   0.000   0.000   0.000   0.000   0.000   0.000   0.000   0.000   0.000   0.000   0.000   0.000
  0.000   0.000   0.000   0.000   0.000   0.000   0.000   0.000   0.000   0.000   0.000   0.000   0.000   0.000   0.000   0.000
  0.000   0.000   0.000   0.000   0.000   0.000   0.000   0.000   0.000   0.000   0.000   0.000   0.000   0.000   0.000   0.000
  0.000   0.000   0.000   0.000   0.000   0.000   0.000   0.000   0.000   0.000   0.000   0.000   0.000   0.000   0.000   0.000
  0.000   0.000   0.000   0.000   0.000   0.000   0.000   0.000   0.000   0.000   0.000   0.000   0.000   0.000   0.000   0.000
  0.000   0.000   0.000   0.000   0.000   0.000   0.000   0.000   0.000   0.000   0.000   0.000   0.000   0.000   0.000   0.000


------------------------ aborting loop because EDIFF is reached ----------------------------------------


 


 total charge     
 
# of ion     s       p       d       tot
----------------------------------------
  1        0.241   6.176   8.963  15.380
  2        0.240   6.173   8.963  15.377
  3        0.541   0.476   9.797  10.814
  4        1.117   1.133  10.107  12.357
  5        1.327   2.362   0.000   3.689
  6        1.328   2.362   0.000   3.689
  7        1.327   2.362   0.000   3.689
  8        1.327   2.361   0.000   3.688
------------------------------------------------
tot        7.448  23.406  37.829  68.684
 
    CHARGE:  cpu time    0.0320: real time    0.0352
    FORLOC:  cpu time    0.0040: real time    0.0023
    FORNL :  cpu time    0.2800: real time    0.2799
    STRESS:  cpu time    0.9161: real time    0.9162
    FORCOR:  cpu time    0.0080: real time    0.0075
    FORHAR:  cpu time    0.0040: real time    0.0050
    OFIELD:  cpu time    0.0000: real time    0.0001

  FORCE on cell =-STRESS in cart. coord.  units (eV):
  Direction    XX          YY          ZZ          XY          YZ          ZX
  --------------------------------------------------------------------------------------
  Alpha Z   249.48650   249.48650   249.48650
  Ewald   -2394.86127 -2394.86127 -2366.21278     0.00000     0.00000     0.00000
  Hartree  1668.07216  1668.07216  1698.85605     0.00000     0.00016     0.00014
  E(xc)    -483.81912  -483.81912  -483.81854    -0.00000    -0.00000    -0.00000
  Local    -671.37334  -671.37334  -730.96513     0.00001    -0.00023    -0.00020
  n-local   230.88763   231.04721   231.58015     0.04796    -0.04604     0.11143
  augment   484.28377   484.28376   483.82158     0.00023    -0.00242    -0.00242
  Kinetic   911.54811   913.85814   912.70309    -0.03266    -0.19447    -0.39653
  Fock        0.00000     0.00000     0.00000     0.00000     0.00000     0.00000
  -------------------------------------------------------------------------------------
  Total      -4.54077    -4.54077    -4.54908    -0.00000     0.00000     0.00000
  in kB     -45.40872   -45.40872   -45.49178    -0.00000     0.00000     0.00000
  external pressure =      -45.44 kB  Pullay stress =        0.00 kB


 VOLUME and BASIS-vectors are now :
 -----------------------------------------------------------------------------
  energy-cutoff  :      500.00
  volume of cell :      160.21
      direct lattice vectors                 reciprocal lattice vectors
     5.435300000  0.000000000  0.000000000     0.183982485  0.000000000 -0.092196841
     0.000000000  5.435300000  0.000000000     0.000000000  0.183982485 -0.092196841
     2.717650000  2.717650000  5.423179281     0.000000000  0.000000000  0.184393683

  length of vectors
     5.435300000  5.435300000  6.646962958     0.205790700  0.205790700  0.184393683


 FORCES acting on ions
    electron-ion (+dipol)            ewald-force                    non-local-force                 convergence-correction
 -----------------------------------------------------------------------------------------------
   -.331E-05 -.337E-06 0.841E-06   0.792E-11 -.246E-11 -.853E-11   -.108E-17 -.217E-18 0.000E+00   -.448E-07 -.149E-06 -.873E-07
   0.648E-06 0.342E-05 0.157E-05   -.757E-11 -.244E-11 0.882E-11   0.000E+00 0.434E-18 0.000E+00   -.153E-06 -.233E-06 -.171E-06
   0.210E-05 -.320E-05 -.919E-06   0.544E-11 -.267E-11 0.605E-11   0.000E+00 0.217E-18 0.000E+00   -.231E-07 0.699E-07 0.700E-07
   0.241E-05 -.179E-05 -.992E-06   -.553E-11 -.253E-11 -.624E-11   0.108E-18 0.108E-18 0.000E+00   0.255E-07 0.777E-07 -.464E-07
   -.634E+02 -.739E+01 0.597E+01   0.613E+02 0.840E+01 -.704E+01   0.170E+01 -.823E+00 0.865E+00   0.293E-02 -.711E-03 0.268E-03
   0.634E+02 0.739E+01 0.597E+01   -.613E+02 -.840E+01 -.704E+01   -.170E+01 0.823E+00 0.865E+00   -.293E-02 0.711E-03 0.268E-03
   0.739E+01 -.634E+02 -.597E+01   -.840E+01 0.613E+02 0.704E+01   0.823E+00 0.170E+01 -.865E+00   0.711E-03 0.293E-02 -.268E-03
   -.739E+01 0.634E+02 -.597E+01   0.840E+01 -.613E+02 0.704E+01   -.823E+00 -.170E+01 -.865E+00   -.711E-03 -.293E-02 -.268E-03
 -----------------------------------------------------------------------------------------------
   -.193E-04 -.196E-04 0.529E-05   -.178E-13 -.711E-14 -.888E-15   0.000E+00 0.000E+00 0.000E+00   -.216E-06 -.266E-06 -.310E-06
 
 
 POSITION                                       TOTAL-FORCE (eV/Angst)
 -----------------------------------------------------------------------------------
      0.00000      0.00000      0.00000         0.000000      0.000000      0.000000
      5.43530      2.71765      2.71159         0.000000      0.000000      0.000000
      2.71765      2.71765      0.00000         0.000000      0.000000      0.000000
      2.71765      5.43530      2.71159        -0.000000     -0.000000      0.000000
      1.30213      1.38979      1.32105        -0.387702      0.194206     -0.208394
      4.13317      4.04551      1.32105         0.387702     -0.194206     -0.208394
      6.76316      4.01978      4.10213        -0.194206     -0.387702      0.208394
      4.10744      6.85082      4.10213         0.194206      0.387702      0.208394
 -----------------------------------------------------------------------------------
    total drift:                               -0.000019     -0.000020      0.000005


--------------------------------------------------------------------------------------------------------



  FREE ENERGIE OF THE ION-ELECTRON SYSTEM (eV)
  ---------------------------------------------------
  free  energy   TOTEN  =       -37.98501517 eV

  energy  without entropy=      -37.98501517  energy(sigma->0) =      -37.98501517
 


--------------------------------------------------------------------------------------------------------


    POTLOK:  cpu time    0.0080: real time    0.0079


--------------------------------------------------------------------------------------------------------


 writing wavefunctions
     LOOP+:  cpu time   14.8409: real time   17.1126
    4ORBIT:  cpu time    0.0000: real time    0.0000
 


 total charge     
 
# of ion     s       p       d       tot
----------------------------------------
  1        0.241   6.176   8.963  15.380
  2        0.240   6.173   8.963  15.377
  3        0.541   0.476   9.797  10.814
  4        1.117   1.133  10.107  12.357
  5        1.327   2.362   0.000   3.689
  6        1.328   2.362   0.000   3.689
  7        1.327   2.362   0.000   3.689
  8        1.327   2.361   0.000   3.688
------------------------------------------------
tot        7.448  23.406  37.829  68.684
 

 total amount of memory used by VASP on root node   101378. kBytes
========================================================================

   base      :      30000. kBytes
   nonl-proj :      48831. kBytes
   fftplans  :       1409. kBytes
   grid      :       2789. kBytes
   one-center:         31. kBytes
   wavefun   :      18318. kBytes
 
  
  
 General timing and accounting informations for this job:
 ========================================================
  
                  Total CPU time used (sec):       22.557
                            User time (sec):       17.553
                          System time (sec):        5.004
                         Elapsed time (sec):       25.792
  
                   Maximum memory used (kb):       93316.
                   Average memory used (kb):           0.
  
                          Minor page faults:        23995
                          Major page faults:            0
                 Voluntary context switches:         1217
