PROCAR new format
# of k-points:  123         # of bands:  52         # of ions:   8

 k-point    1 :    0.00000000 0.00000000 0.00000000     weight = 0.00694444

band   1 # energy  -63.91877860 # occ.  2.00000000
 
ion      s      p      d    tot
  1  0.000  0.000  0.000  0.000
  2  0.000  0.997  0.000  0.997
  3  0.000  0.000  0.000  0.000
  4  0.000  0.000  0.000  0.000
  5  0.000  0.000  0.000  0.000
  6  0.000  0.000  0.000  0.000
  7  0.000  0.000  0.000  0.000
  8  0.000  0.000  0.000  0.000
tot  0.000  0.997  0.000  0.997
 
band   2 # energy  -63.86380617 # occ.  2.00000000
 
ion      s      p      d    tot
  1  0.000  0.997  0.000  0.997
  2  0.000  0.000  0.000  0.000
  3  0.000  0.000  0.000  0.000
  4  0.000  0.000  0.000  0.000
  5  0.000  0.000  0.000  0.000
  6  0.000  0.000  0.000  0.000
  7  0.000  0.000  0.000  0.000
  8  0.000  0.000  0.000  0.000
tot  0.000  0.997  0.000  0.997
 
band   3 # energy  -63.86380564 # occ.  2.00000000
 
ion      s      p      d    tot
  1  0.000  0.997  0.000  0.997
  2  0.000  0.000  0.000  0.000
  3  0.000  0.000  0.000  0.000
  4  0.000  0.000  0.000  0.000
  5  0.000  0.000  0.000  0.000
  6  0.000  0.000  0.000  0.000
  7  0.000  0.000  0.000  0.000
  8  0.000  0.000  0.000  0.000
tot  0.000  0.997  0.000  0.997
 
band   4 # energy  -63.84281517 # occ.  2.00000000
 
ion      s      p      d    tot
  1  0.000  0.000  0.000  0.000
  2  0.000  0.997  0.000  0.997
  3  0.000  0.000  0.000  0.000
  4  0.000  0.000  0.000  0.000
  5  0.000  0.000  0.000  0.000
  6  0.000  0.000  0.000  0.000
  7  0.000  0.000  0.000  0.000
  8  0.000  0.000  0.000  0.000
tot  0.000  0.997  0.000  0.997
 
band   5 # energy  -63.84281461 # occ.  2.00000000
 
ion      s      p      d    tot
  1  0.000  0.000  0.000  0.000
  2  0.000  0.997  0.000  0.997
  3  0.000  0.000  0.000  0.000
  4  0.000  0.000  0.000  0.000
  5  0.000  0.000  0.000  0.000
  6  0.000  0.000  0.000  0.000
  7  0.000  0.000  0.000  0.000
  8  0.000  0.000  0.000  0.000
tot  0.000  0.997  0.000  0.997
 
band   6 # energy  -63.83547554 # occ.  2.00000000
 
ion      s      p      d    tot
  1  0.000  0.997  0.000  0.997
  2  0.000  0.000  0.000  0.000
  3  0.000  0.000  0.000  0.000
  4  0.000  0.000  0.000  0.000
  5  0.000  0.000  0.000  0.000
  6  0.000  0.000  0.000  0.000
  7  0.000  0.000  0.000  0.000
  8  0.000  0.000  0.000  0.000
tot  0.000  0.997  0.000  0.997
 
band   7 # energy  -17.41206161 # occ.  2.00000000
 
ion      s      p      d    tot
  1  0.000  0.000  0.000  0.000
  2  0.000  0.000  0.000  0.000
  3  0.000  0.000  0.000  0.000
  4  0.000  0.000  0.984  0.984
  5  0.001  0.000  0.000  0.001
  6  0.001  0.000  0.000  0.001
  7  0.001  0.000  0.000  0.001
  8  0.001  0.000  0.000  0.001
tot  0.003  0.002  0.984  0.989
 
band   8 # energy  -17.40822956 # occ.  2.00000000
 
ion      s      p      d    tot
  1  0.000  0.000  0.000  0.000
  2  0.000  0.000  0.000  0.000
  3  0.000  0.000  0.000  0.000
  4  0.000  0.000  0.984  0.984
  5  0.002  0.001  0.000  0.002
  6  0.002  0.001  0.000  0.002
  7  0.000  0.000  0.000  0.000
  8  0.000  0.000  0.000  0.000
tot  0.003  0.002  0.984  0.989
 
band   9 # energy  -17.40822943 # occ.  2.00000000
 
ion      s      p      d    tot
  1  0.000  0.000  0.000  0.000
  2  0.000  0.000  0.000  0.000
  3  0.000  0.000  0.000  0.000
  4  0.000  0.000  0.984  0.984
  5  0.000  0.000  0.000  0.000
  6  0.000  0.000  0.000  0.000
  7  0.002  0.001  0.000  0.002
  8  0.002  0.001  0.000  0.002
tot  0.003  0.002  0.984  0.989
 
band  10 # energy  -17.31678844 # occ.  2.00000000
 
ion      s      p      d    tot
  1  0.000  0.000  0.000  0.000
  2  0.000  0.000  0.000  0.000
  3  0.000  0.000  0.000  0.000
  4  0.000  0.000  0.990  0.990
  5  0.000  0.000  0.000  0.000
  6  0.000  0.000  0.000  0.000
  7  0.000  0.000  0.000  0.000
  8  0.000  0.000  0.000  0.000
tot  0.000  0.000  0.990  0.991
 
band  11 # energy  -17.31145466 # occ.  2.00000000
 
ion      s      p      d    tot
  1  0.000  0.000  0.000  0.000
  2  0.000  0.000  0.000  0.000
  3  0.000  0.000  0.000  0.000
  4  0.000  0.000  0.990  0.990
  5  0.000  0.000  0.000  0.000
  6  0.000  0.000  0.000  0.000
  7  0.000  0.000  0.000  0.000
  8  0.000  0.000  0.000  0.000
tot  0.000  0.000  0.990  0.991
 
band  12 # energy   -9.70901128 # occ.  2.00000000
 
ion      s      p      d    tot
  1  0.009  0.000  0.000  0.009
  2  0.009  0.000  0.000  0.009
  3  0.023  0.000  0.000  0.023
  4  0.088  0.000  0.000  0.088
  5  0.128  0.001  0.000  0.128
  6  0.128  0.001  0.000  0.128
  7  0.128  0.001  0.000  0.128
  8  0.128  0.001  0.000  0.128
tot  0.639  0.003  0.000  0.642
 
band  13 # energy   -8.14099466 # occ.  2.00000000
 
ion      s      p      d    tot
  1  0.000  0.003  0.004  0.007
  2  0.000  0.003  0.004  0.007
  3  0.000  0.009  0.014  0.022
  4  0.000  0.022  0.010  0.032
  5  0.163  0.000  0.000  0.163
  6  0.163  0.000  0.000  0.163
  7  0.163  0.000  0.000  0.163
  8  0.163  0.000  0.000  0.163
tot  0.650  0.037  0.031  0.719
 
band  14 # energy   -8.13014394 # occ.  2.00000000
 
ion      s      p      d    tot
  1  0.000  0.003  0.004  0.007
  2  0.000  0.003  0.004  0.007
  3  0.000  0.009  0.014  0.022
  4  0.000  0.021  0.010  0.032
  5  0.000  0.000  0.000  0.000
  6  0.000  0.000  0.000  0.000
  7  0.326  0.000  0.000  0.326
  8  0.326  0.000  0.000  0.326
tot  0.652  0.036  0.033  0.721
 
band  15 # energy   -8.13014387 # occ.  2.00000000
 
ion      s      p      d    tot
  1  0.000  0.003  0.004  0.007
  2  0.000  0.003  0.004  0.007
  3  0.000  0.009  0.014  0.022
  4  0.000  0.021  0.010  0.032
  5  0.326  0.000  0.000  0.326
  6  0.326  0.000  0.000  0.326
  7  0.000  0.000  0.000  0.000
  8  0.000  0.000  0.000  0.000
tot  0.652  0.036  0.033  0.721
 
band  16 # energy   -3.35937358 # occ.  2.00000000
 
ion      s      p      d    tot
  1  0.009  0.000  0.002  0.010
  2  0.004  0.000  0.004  0.008
  3  0.031  0.000  0.037  0.068
  4  0.384  0.000  0.000  0.385
  5  0.010  0.044  0.000  0.053
  6  0.010  0.044  0.000  0.053
  7  0.010  0.044  0.000  0.053
  8  0.010  0.044  0.000  0.053
tot  0.467  0.174  0.043  0.684
 
band  17 # energy   -2.49235630 # occ.  2.00000000
 
ion      s      p      d    tot
  1  0.000  0.000  0.000  0.001
  2  0.000  0.000  0.001  0.001
  3  0.000  0.000  0.883  0.884
  4  0.000  0.008  0.001  0.009
  5  0.001  0.009  0.000  0.010
  6  0.001  0.009  0.000  0.010
  7  0.001  0.009  0.000  0.010
  8  0.001  0.009  0.000  0.010
tot  0.003  0.044  0.885  0.933
 
band  18 # energy   -2.42420046 # occ.  2.00000000
 
ion      s      p      d    tot
  1  0.000  0.000  0.001  0.001
  2  0.000  0.001  0.001  0.002
  3  0.000  0.000  0.902  0.902
  4  0.000  0.001  0.000  0.001
  5  0.001  0.006  0.000  0.007
  6  0.001  0.006  0.000  0.007
  7  0.001  0.006  0.000  0.007
  8  0.001  0.006  0.000  0.007
tot  0.003  0.027  0.904  0.933
 
band  19 # energy   -2.42199041 # occ.  2.00000000
 
ion      s      p      d    tot
  1  0.000  0.000  0.002  0.002
  2  0.000  0.000  0.001  0.002
  3  0.000  0.001  0.907  0.908
  4  0.000  0.002  0.001  0.003
  5  0.000  0.001  0.000  0.001
  6  0.000  0.001  0.000  0.001
  7  0.004  0.014  0.000  0.018
  8  0.004  0.014  0.000  0.018
tot  0.007  0.032  0.911  0.950
 
band  20 # energy   -2.42199001 # occ.  2.00000000
 
ion      s      p      d    tot
  1  0.000  0.000  0.002  0.002
  2  0.000  0.000  0.001  0.002
  3  0.000  0.001  0.907  0.908
  4  0.000  0.002  0.001  0.003
  5  0.004  0.014  0.000  0.018
  6  0.004  0.014  0.000  0.018
  7  0.000  0.001  0.000  0.001
  8  0.000  0.001  0.000  0.001
tot  0.007  0.032  0.911  0.950
 
band  21 # energy   -2.32191146 # occ.  2.00000000
 
ion      s      p      d    tot
  1  0.001  0.000  0.000  0.001
  2  0.003  0.000  0.000  0.004
  3  0.002  0.000  0.880  0.882
  4  0.025  0.000  0.000  0.025
  5  0.001  0.005  0.000  0.006
  6  0.001  0.005  0.000  0.006
  7  0.001  0.005  0.000  0.006
  8  0.001  0.005  0.000  0.006
tot  0.034  0.021  0.880  0.935
 
band  22 # energy   -0.93209815 # occ.  2.00000000
 
ion      s      p      d    tot
  1  0.011  0.000  0.013  0.024
  2  0.039  0.000  0.000  0.040
  3  0.170  0.000  0.002  0.172
  4  0.011  0.000  0.003  0.013
  5  0.002  0.074  0.000  0.075
  6  0.002  0.074  0.000  0.075
  7  0.002  0.074  0.000  0.075
  8  0.002  0.074  0.000  0.075
tot  0.239  0.295  0.017  0.551
 
band  23 # energy   -0.29009789 # occ.  2.00000000
 
ion      s      p      d    tot
  1  0.080  0.000  0.001  0.081
  2  0.048  0.000  0.002  0.050
  3  0.013  0.000  0.052  0.065
  4  0.001  0.000  0.004  0.004
  5  0.000  0.079  0.000  0.079
  6  0.000  0.079  0.000  0.079
  7  0.000  0.079  0.000  0.079
  8  0.000  0.079  0.000  0.079
tot  0.142  0.317  0.059  0.517
 
band  24 # energy   -0.18643913 # occ.  2.00000000
 
ion      s      p      d    tot
  1  0.000  0.000  0.050  0.051
  2  0.000  0.012  0.025  0.037
  3  0.000  0.000  0.083  0.083
  4  0.000  0.105  0.004  0.109
  5  0.001  0.077  0.000  0.078
  6  0.001  0.077  0.000  0.078
  7  0.001  0.077  0.000  0.078
  8  0.001  0.077  0.000  0.078
tot  0.004  0.427  0.161  0.592
 
band  25 # energy    0.27199456 # occ.  2.00000000
 
ion      s      p      d    tot
  1  0.000  0.009  0.011  0.020
  2  0.000  0.001  0.007  0.007
  3  0.000  0.024  0.004  0.029
  4  0.000  0.151  0.004  0.156
  5  0.001  0.100  0.000  0.101
  6  0.001  0.100  0.000  0.101
  7  0.001  0.077  0.000  0.078
  8  0.001  0.077  0.000  0.078
tot  0.004  0.540  0.027  0.571
 
band  26 # energy    0.27199462 # occ.  2.00000000
 
ion      s      p      d    tot
  1  0.000  0.009  0.011  0.020
  2  0.000  0.001  0.007  0.007
  3  0.000  0.024  0.004  0.029
  4  0.000  0.151  0.004  0.156
  5  0.001  0.077  0.000  0.078
  6  0.001  0.077  0.000  0.078
  7  0.001  0.100  0.000  0.101
  8  0.001  0.100  0.000  0.101
tot  0.004  0.540  0.027  0.571
 
band  27 # energy    0.30090902 # occ.  2.00000000
 
ion      s      p      d    tot
  1  0.000  0.014  0.065  0.079
  2  0.000  0.001  0.071  0.072
  3  0.000  0.035  0.017  0.052
  4  0.000  0.000  0.009  0.010
  5  0.000  0.083  0.000  0.083
  6  0.000  0.083  0.000  0.083
  7  0.000  0.083  0.000  0.083
  8  0.000  0.083  0.000  0.083
tot  0.000  0.381  0.162  0.544
 
band  28 # energy    1.02150290 # occ.  2.00000000
 
ion      s      p      d    tot
  1  0.000  0.010  0.047  0.056
  2  0.000  0.018  0.157  0.175
  3  0.000  0.014  0.001  0.015
  4  0.000  0.004  0.002  0.006
  5  0.000  0.024  0.000  0.024
  6  0.000  0.024  0.000  0.024
  7  0.000  0.162  0.000  0.162
  8  0.000  0.162  0.000  0.162
tot  0.000  0.418  0.206  0.625
 
band  29 # energy    1.02150370 # occ.  2.00000000
 
ion      s      p      d    tot
  1  0.000  0.010  0.047  0.056
  2  0.000  0.018  0.157  0.175
  3  0.000  0.014  0.001  0.015
  4  0.000  0.004  0.002  0.006
  5  0.000  0.162  0.000  0.162
  6  0.000  0.162  0.000  0.162
  7  0.000  0.024  0.000  0.024
  8  0.000  0.024  0.000  0.024
tot  0.000  0.418  0.206  0.625
 
band  30 # energy    1.47882770 # occ.  2.00000000
 
ion      s      p      d    tot
  1  0.000  0.001  0.257  0.258
  2  0.000  0.002  0.127  0.129
  3  0.000  0.025  0.039  0.064
  4  0.000  0.001  0.005  0.006
  5  0.001  0.110  0.000  0.111
  6  0.001  0.110  0.000  0.111
  7  0.000  0.022  0.000  0.022
  8  0.000  0.022  0.000  0.022
tot  0.001  0.292  0.428  0.721
 
band  31 # energy    1.47883029 # occ.  2.00000000
 
ion      s      p      d    tot
  1  0.000  0.001  0.257  0.258
  2  0.000  0.002  0.127  0.129
  3  0.000  0.025  0.039  0.064
  4  0.000  0.001  0.005  0.006
  5  0.000  0.022  0.000  0.022
  6  0.000  0.022  0.000  0.022
  7  0.001  0.110  0.000  0.111
  8  0.001  0.110  0.000  0.111
tot  0.001  0.292  0.428  0.721
 
band  32 # energy    1.49275039 # occ.  2.00000000
 
ion      s      p      d    tot
  1  0.000  0.000  0.197  0.197
  2  0.000  0.001  0.242  0.243
  3  0.000  0.010  0.038  0.048
  4  0.000  0.006  0.008  0.014
  5  0.000  0.062  0.000  0.062
  6  0.000  0.062  0.000  0.062
  7  0.000  0.062  0.000  0.062
  8  0.000  0.062  0.000  0.062
tot  0.001  0.265  0.486  0.752
 
band  33 # energy    2.58483764 # occ.  2.00000000
 
ion      s      p      d    tot
  1  0.001  0.000  0.079  0.080
  2  0.003  0.000  0.729  0.732
  3  0.005  0.000  0.000  0.005
  4  0.033  0.000  0.000  0.033
  5  0.001  0.003  0.000  0.004
  6  0.001  0.003  0.000  0.004
  7  0.001  0.003  0.000  0.004
  8  0.001  0.003  0.000  0.004
tot  0.046  0.013  0.809  0.869
 
band  34 # energy    2.62767661 # occ.  2.00000000
 
ion      s      p      d    tot
  1  0.000  0.001  0.439  0.440
  2  0.000  0.001  0.400  0.401
  3  0.000  0.002  0.000  0.002
  4  0.000  0.007  0.000  0.007
  5  0.000  0.000  0.000  0.000
  6  0.000  0.000  0.000  0.000
  7  0.000  0.000  0.000  0.000
  8  0.000  0.000  0.000  0.000
tot  0.000  0.010  0.839  0.850
 
band  35 # energy    2.82370900 # occ.  2.00000000
 
ion      s      p      d    tot
  1  0.000  0.000  0.782  0.782
  2  0.003  0.000  0.106  0.109
  3  0.010  0.000  0.000  0.011
  4  0.000  0.000  0.000  0.000
  5  0.000  0.000  0.000  0.000
  6  0.000  0.000  0.000  0.000
  7  0.000  0.000  0.000  0.000
  8  0.000  0.000  0.000  0.000
tot  0.013  0.002  0.889  0.904
 
band  36 # energy    3.08047371 # occ.  2.00000000
 
ion      s      p      d    tot
  1  0.000  0.000  0.638  0.638
  2  0.000  0.002  0.206  0.208
  3  0.000  0.004  0.004  0.007
  4  0.000  0.014  0.002  0.016
  5  0.000  0.010  0.000  0.010
  6  0.000  0.010  0.000  0.010
  7  0.000  0.010  0.000  0.010
  8  0.000  0.010  0.000  0.010
tot  0.001  0.058  0.849  0.909
 
band  37 # energy    3.10012814 # occ.  2.00000000
 
ion      s      p      d    tot
  1  0.000  0.005  0.354  0.359
  2  0.000  0.005  0.396  0.401
  3  0.000  0.001  0.003  0.004
  4  0.000  0.001  0.001  0.003
  5  0.001  0.013  0.000  0.014
  6  0.001  0.013  0.000  0.014
  7  0.001  0.014  0.000  0.016
  8  0.001  0.014  0.000  0.016
tot  0.004  0.067  0.754  0.825
 
band  38 # energy    3.10013356 # occ.  2.00000000
 
ion      s      p      d    tot
  1  0.000  0.005  0.354  0.359
  2  0.000  0.005  0.396  0.401
  3  0.000  0.001  0.003  0.004
  4  0.000  0.001  0.001  0.003
  5  0.001  0.014  0.000  0.016
  6  0.001  0.014  0.000  0.016
  7  0.001  0.013  0.000  0.014
  8  0.001  0.013  0.000  0.014
tot  0.004  0.067  0.754  0.825
 
band  39 # energy    3.26107765 # occ.  2.00000000
 
ion      s      p      d    tot
  1  0.000  0.005  0.168  0.173
  2  0.000  0.002  0.622  0.624
  3  0.000  0.006  0.005  0.011
  4  0.000  0.000  0.002  0.003
  5  0.000  0.013  0.000  0.014
  6  0.000  0.013  0.000  0.014
  7  0.000  0.013  0.000  0.014
  8  0.000  0.013  0.000  0.014
tot  0.001  0.067  0.797  0.865
 
band  40 # energy    4.67221298 # occ.  2.00000000
 
ion      s      p      d    tot
  1  0.000  0.004  0.231  0.236
  2  0.000  0.004  0.212  0.215
  3  0.000  0.003  0.020  0.023
  4  0.000  0.001  0.016  0.017
  5  0.001  0.082  0.000  0.083
  6  0.001  0.082  0.000  0.083
  7  0.001  0.071  0.000  0.072
  8  0.001  0.071  0.000  0.072
tot  0.003  0.319  0.479  0.801
 
band  41 # energy    4.67221606 # occ.  2.00000000
 
ion      s      p      d    tot
  1  0.000  0.004  0.231  0.236
  2  0.000  0.004  0.212  0.215
  3  0.000  0.003  0.020  0.023
  4  0.000  0.001  0.016  0.017
  5  0.001  0.071  0.000  0.072
  6  0.001  0.071  0.000  0.072
  7  0.001  0.082  0.000  0.083
  8  0.001  0.082  0.000  0.083
tot  0.003  0.319  0.479  0.801
 
band  42 # energy    4.74738983 # occ.  2.00000000
 
ion      s      p      d    tot
  1  0.000  0.004  0.233  0.237
  2  0.000  0.005  0.235  0.239
  3  0.000  0.002  0.017  0.019
  4  0.000  0.001  0.013  0.014
  5  0.000  0.075  0.000  0.075
  6  0.000  0.075  0.000  0.075
  7  0.000  0.075  0.000  0.075
  8  0.000  0.075  0.000  0.075
tot  0.000  0.312  0.498  0.810
 
band  43 # energy    4.91592476 # occ.  0.00000000
 
ion      s      p      d    tot
  1  0.022  0.000  0.006  0.028
  2  0.029  0.000  0.038  0.067
  3  0.045  0.000  0.001  0.047
  4  0.125  0.000  0.000  0.125
  5  0.049  0.035  0.000  0.084
  6  0.049  0.035  0.000  0.084
  7  0.049  0.035  0.000  0.084
  8  0.049  0.035  0.000  0.084
tot  0.419  0.139  0.045  0.602
 
band  44 # energy    6.64871053 # occ.  0.00000000
 
ion      s      p      d    tot
  1  0.000  0.006  0.050  0.056
  2  0.000  0.017  0.045  0.062
  3  0.000  0.015  0.015  0.030
  4  0.000  0.118  0.029  0.147
  5  0.014  0.006  0.000  0.020
  6  0.014  0.006  0.000  0.020
  7  0.014  0.006  0.000  0.020
  8  0.014  0.006  0.000  0.020
tot  0.055  0.179  0.139  0.373
 
band  45 # energy    7.47557638 # occ.  0.00000000
 
ion      s      p      d    tot
  1  0.037  0.000  0.039  0.076
  2  0.000  0.000  0.052  0.052
  3  0.116  0.000  0.008  0.124
  4  0.065  0.000  0.009  0.074
  5  0.008  0.034  0.000  0.042
  6  0.008  0.034  0.000  0.042
  7  0.008  0.034  0.000  0.042
  8  0.008  0.034  0.000  0.042
tot  0.252  0.136  0.108  0.496
 
band  46 # energy    8.45557766 # occ.  0.00000000
 
ion      s      p      d    tot
  1  0.000  0.008  0.014  0.023
  2  0.000  0.001  0.026  0.027
  3  0.000  0.023  0.005  0.028
  4  0.000  0.208  0.030  0.237
  5  0.000  0.021  0.000  0.021
  6  0.000  0.021  0.000  0.021
  7  0.005  0.062  0.000  0.066
  8  0.005  0.062  0.000  0.066
tot  0.010  0.406  0.075  0.491
 
band  47 # energy    8.45557775 # occ.  0.00000000
 
ion      s      p      d    tot
  1  0.000  0.008  0.014  0.023
  2  0.000  0.001  0.026  0.027
  3  0.000  0.023  0.005  0.028
  4  0.000  0.208  0.030  0.237
  5  0.005  0.062  0.000  0.066
  6  0.005  0.062  0.000  0.066
  7  0.000  0.021  0.000  0.021
  8  0.000  0.021  0.000  0.021
tot  0.010  0.406  0.075  0.491
 
band  48 # energy    9.53991011 # occ.  0.00000000
 
ion      s      p      d    tot
  1  0.000  0.040  0.004  0.044
  2  0.000  0.012  0.001  0.014
  3  0.000  0.109  0.003  0.112
  4  0.000  0.165  0.001  0.166
  5  0.000  0.005  0.000  0.005
  6  0.000  0.005  0.000  0.005
  7  0.000  0.005  0.000  0.005
  8  0.000  0.005  0.000  0.005
tot  0.001  0.346  0.010  0.356
 
band  49 # energy    9.62436190 # occ.  0.00000000
 
ion      s      p      d    tot
  1  0.000  0.000  0.005  0.006
  2  0.150  0.000  0.000  0.151
  3  0.012  0.000  0.001  0.014
  4  0.049  0.000  0.032  0.081
  5  0.004  0.047  0.000  0.051
  6  0.004  0.047  0.000  0.051
  7  0.004  0.047  0.000  0.051
  8  0.004  0.047  0.000  0.051
tot  0.230  0.187  0.039  0.456
 
band  50 # energy    9.88920450 # occ.  0.00000000
 
ion      s      p      d    tot
  1  0.000  0.018  0.021  0.039
  2  0.000  0.022  0.012  0.034
  3  0.000  0.072  0.014  0.086
  4  0.000  0.065  0.009  0.074
  5  0.001  0.013  0.000  0.014
  6  0.001  0.013  0.000  0.014
  7  0.004  0.017  0.000  0.021
  8  0.004  0.017  0.000  0.021
tot  0.011  0.238  0.056  0.305
 
band  51 # energy    9.88920549 # occ.  0.00000000
 
ion      s      p      d    tot
  1  0.000  0.018  0.021  0.039
  2  0.000  0.022  0.012  0.034
  3  0.000  0.072  0.014  0.086
  4  0.000  0.065  0.009  0.074
  5  0.004  0.017  0.000  0.021
  6  0.004  0.017  0.000  0.021
  7  0.001  0.013  0.000  0.014
  8  0.001  0.013  0.000  0.014
tot  0.011  0.238  0.056  0.305
 
band  52 # energy   10.28668403 # occ.  0.00000000
 
ion      s      p      d    tot
  1  0.129  0.000  0.005  0.134
  2  0.003  0.000  0.001  0.003
  3  0.127  0.000  0.012  0.139
  4  0.000  0.000  0.002  0.002
  5  0.000  0.058  0.000  0.058
  6  0.000  0.058  0.000  0.058
  7  0.000  0.058  0.000  0.058
  8  0.000  0.058  0.000  0.058
tot  0.260  0.231  0.020  0.510
 

 k-point    2 :    0.16666667 0.00000000 0.00000000     weight = 0.02777778

band   1 # energy  -63.91877770 # occ.  2.00000000
 
ion      s      p      d    tot
  1  0.000  0.000  0.000  0.000
  2  0.000  0.997  0.000  0.997
  3  0.000  0.000  0.000  0.000
  4  0.000  0.000  0.000  0.000
  5  0.000  0.000  0.000  0.000
  6  0.000  0.000  0.000  0.000
  7  0.000  0.000  0.000  0.000
  8  0.000  0.000  0.000  0.000
tot  0.000  0.997  0.000  0.997
 
band   2 # energy  -63.86383444 # occ.  2.00000000
 
ion      s      p      d    tot
  1  0.000  0.997  0.000  0.997
  2  0.000  0.000  0.000  0.000
  3  0.000  0.000  0.000  0.000
  4  0.000  0.000  0.000  0.000
  5  0.000  0.000  0.000  0.000
  6  0.000  0.000  0.000  0.000
  7  0.000  0.000  0.000  0.000
  8  0.000  0.000  0.000  0.000
tot  0.000  0.997  0.000  0.997
 
band   3 # energy  -63.86376405 # occ.  2.00000000
 
ion      s      p      d    tot
  1  0.000  0.997  0.000  0.997
  2  0.000  0.000  0.000  0.000
  3  0.000  0.000  0.000  0.000
  4  0.000  0.000  0.000  0.000
  5  0.000  0.000  0.000  0.000
  6  0.000  0.000  0.000  0.000
  7  0.000  0.000  0.000  0.000
  8  0.000  0.000  0.000  0.000
tot  0.000  0.997  0.000  0.997
 
band   4 # energy  -63.84284700 # occ.  2.00000000
 
ion      s      p      d    tot
  1  0.000  0.000  0.000  0.000
  2  0.000  0.997  0.000  0.997
  3  0.000  0.000  0.000  0.000
  4  0.000  0.000  0.000  0.000
  5  0.000  0.000  0.000  0.000
  6  0.000  0.000  0.000  0.000
  7  0.000  0.000  0.000  0.000
  8  0.000  0.000  0.000  0.000
tot  0.000  0.997  0.000  0.997
 
band   5 # energy  -63.84277637 # occ.  2.00000000
 
ion      s      p      d    tot
  1  0.000  0.000  0.000  0.000
  2  0.000  0.997  0.000  0.997
  3  0.000  0.000  0.000  0.000
  4  0.000  0.000  0.000  0.000
  5  0.000  0.000  0.000  0.000
  6  0.000  0.000  0.000  0.000
  7  0.000  0.000  0.000  0.000
  8  0.000  0.000  0.000  0.000
tot  0.000  0.997  0.000  0.997
 
band   6 # energy  -63.83547480 # occ.  2.00000000
 
ion      s      p      d    tot
  1  0.000  0.997  0.000  0.997
  2  0.000  0.000  0.000  0.000
  3  0.000  0.000  0.000  0.000
  4  0.000  0.000  0.000  0.000
  5  0.000  0.000  0.000  0.000
  6  0.000  0.000  0.000  0.000
  7  0.000  0.000  0.000  0.000
  8  0.000  0.000  0.000  0.000
tot  0.000  0.997  0.000  0.997
 
band   7 # energy  -17.41218467 # occ.  2.00000000
 
ion      s      p      d    tot
  1  0.000  0.000  0.000  0.000
  2  0.000  0.000  0.000  0.000
  3  0.000  0.000  0.000  0.000
  4  0.000  0.000  0.984  0.984
  5  0.001  0.000  0.000  0.001
  6  0.001  0.000  0.000  0.001
  7  0.001  0.000  0.000  0.001
  8  0.001  0.000  0.000  0.001
tot  0.003  0.002  0.984  0.989
 
band   8 # energy  -17.40835146 # occ.  2.00000000
 
ion      s      p      d    tot
  1  0.000  0.000  0.000  0.000
  2  0.000  0.000  0.000  0.000
  3  0.000  0.000  0.000  0.000
  4  0.000  0.000  0.984  0.984
  5  0.001  0.000  0.000  0.001
  6  0.001  0.000  0.000  0.001
  7  0.001  0.000  0.000  0.001
  8  0.001  0.000  0.000  0.001
tot  0.003  0.002  0.984  0.989
 
band   9 # energy  -17.40821857 # occ.  2.00000000
 
ion      s      p      d    tot
  1  0.000  0.000  0.000  0.000
  2  0.000  0.000  0.000  0.000
  3  0.000  0.000  0.000  0.000
  4  0.000  0.000  0.984  0.984
  5  0.001  0.000  0.000  0.001
  6  0.001  0.000  0.000  0.001
  7  0.001  0.000  0.000  0.001
  8  0.001  0.000  0.000  0.001
tot  0.003  0.002  0.984  0.989
 
band  10 # energy  -17.31664051 # occ.  2.00000000
 
ion      s      p      d    tot
  1  0.000  0.000  0.000  0.000
  2  0.000  0.000  0.000  0.000
  3  0.000  0.000  0.000  0.000
  4  0.000  0.000  0.990  0.990
  5  0.000  0.000  0.000  0.000
  6  0.000  0.000  0.000  0.000
  7  0.000  0.000  0.000  0.000
  8  0.000  0.000  0.000  0.000
tot  0.000  0.000  0.990  0.991
 
band  11 # energy  -17.31138594 # occ.  2.00000000
 
ion      s      p      d    tot
  1  0.000  0.000  0.000  0.000
  2  0.000  0.000  0.000  0.000
  3  0.000  0.000  0.000  0.000
  4  0.000  0.000  0.990  0.990
  5  0.000  0.000  0.000  0.000
  6  0.000  0.000  0.000  0.000
  7  0.000  0.000  0.000  0.000
  8  0.000  0.000  0.000  0.000
tot  0.000  0.000  0.990  0.991
 
band  12 # energy   -9.61564508 # occ.  2.00000000
 
ion      s      p      d    tot
  1  0.008  0.000  0.000  0.008
  2  0.008  0.000  0.000  0.008
  3  0.021  0.001  0.000  0.022
  4  0.088  0.001  0.000  0.089
  5  0.131  0.001  0.000  0.132
  6  0.127  0.001  0.000  0.128
  7  0.126  0.001  0.000  0.127
  8  0.131  0.001  0.000  0.132
tot  0.640  0.005  0.001  0.646
 
band  13 # energy   -8.21573075 # occ.  2.00000000
 
ion      s      p      d    tot
  1  0.000  0.003  0.004  0.007
  2  0.001  0.003  0.004  0.007
  3  0.001  0.008  0.013  0.022
  4  0.006  0.020  0.010  0.036
  5  0.061  0.000  0.000  0.061
  6  0.239  0.000  0.000  0.240
  7  0.269  0.000  0.000  0.269
  8  0.072  0.000  0.000  0.072
tot  0.650  0.035  0.030  0.715
 
band  14 # energy   -8.17300521 # occ.  2.00000000
 
ion      s      p      d    tot
  1  0.001  0.003  0.004  0.007
  2  0.000  0.003  0.004  0.007
  3  0.002  0.008  0.013  0.023
  4  0.001  0.020  0.010  0.031
  5  0.191  0.000  0.000  0.191
  6  0.174  0.000  0.000  0.174
  7  0.189  0.000  0.000  0.189
  8  0.095  0.000  0.000  0.095
tot  0.651  0.035  0.031  0.717
 
band  15 # energy   -8.15905783 # occ.  2.00000000
 
ion      s      p      d    tot
  1  0.000  0.003  0.004  0.007
  2  0.001  0.003  0.004  0.007
  3  0.000  0.009  0.013  0.022
  4  0.000  0.022  0.010  0.032
  5  0.231  0.000  0.000  0.232
  6  0.072  0.000  0.000  0.072
  7  0.028  0.000  0.000  0.028
  8  0.316  0.000  0.000  0.317
tot  0.650  0.037  0.031  0.718
 
band  16 # energy   -3.31390363 # occ.  2.00000000
 
ion      s      p      d    tot
  1  0.007  0.000  0.002  0.009
  2  0.004  0.000  0.004  0.008
  3  0.026  0.001  0.070  0.097
  4  0.369  0.000  0.000  0.369
  5  0.011  0.042  0.000  0.053
  6  0.012  0.042  0.000  0.054
  7  0.012  0.042  0.000  0.054
  8  0.011  0.041  0.000  0.052
tot  0.452  0.169  0.077  0.698
 
band  17 # energy   -2.46618781 # occ.  2.00000000
 
ion      s      p      d    tot
  1  0.000  0.000  0.001  0.001
  2  0.000  0.000  0.001  0.001
  3  0.001  0.000  0.881  0.883
  4  0.004  0.006  0.001  0.011
  5  0.001  0.006  0.000  0.007
  6  0.002  0.009  0.000  0.010
  7  0.001  0.004  0.000  0.005
  8  0.002  0.016  0.000  0.018
tot  0.010  0.042  0.884  0.936
 
band  18 # energy   -2.45012507 # occ.  2.00000000
 
ion      s      p      d    tot
  1  0.001  0.000  0.001  0.003
  2  0.001  0.000  0.001  0.002
  3  0.000  0.001  0.891  0.892
  4  0.001  0.002  0.000  0.003
  5  0.002  0.014  0.000  0.017
  6  0.001  0.009  0.000  0.010
  7  0.001  0.004  0.000  0.005
  8  0.001  0.005  0.000  0.006
tot  0.007  0.036  0.893  0.937
 
band  19 # energy   -2.42839745 # occ.  2.00000000
 
ion      s      p      d    tot
  1  0.001  0.000  0.001  0.002
  2  0.000  0.000  0.001  0.002
  3  0.000  0.000  0.899  0.899
  4  0.001  0.002  0.001  0.003
  5  0.000  0.004  0.000  0.004
  6  0.001  0.005  0.000  0.006
  7  0.004  0.015  0.000  0.019
  8  0.002  0.008  0.000  0.009
tot  0.008  0.035  0.902  0.945
 
band  20 # energy   -2.41363368 # occ.  2.00000000
 
ion      s      p      d    tot
  1  0.000  0.000  0.001  0.001
  2  0.000  0.001  0.001  0.002
  3  0.000  0.000  0.906  0.906
  4  0.000  0.001  0.000  0.002
  5  0.001  0.007  0.000  0.008
  6  0.001  0.007  0.000  0.008
  7  0.000  0.005  0.000  0.005
  8  0.000  0.005  0.000  0.005
tot  0.004  0.026  0.908  0.938
 
band  21 # energy   -2.30688454 # occ.  2.00000000
 
ion      s      p      d    tot
  1  0.000  0.000  0.000  0.001
  2  0.003  0.000  0.001  0.003
  3  0.002  0.000  0.869  0.872
  4  0.030  0.001  0.000  0.031
  5  0.001  0.004  0.000  0.006
  6  0.001  0.005  0.000  0.005
  7  0.002  0.007  0.000  0.009
  8  0.001  0.006  0.000  0.007
tot  0.041  0.023  0.871  0.935
 
band  22 # energy   -0.98063923 # occ.  2.00000000
 
ion      s      p      d    tot
  1  0.013  0.000  0.012  0.026
  2  0.025  0.001  0.005  0.030
  3  0.168  0.001  0.007  0.176
  4  0.007  0.014  0.002  0.023
  5  0.003  0.074  0.000  0.077
  6  0.003  0.073  0.000  0.076
  7  0.001  0.070  0.000  0.071
  8  0.002  0.072  0.000  0.074
tot  0.221  0.305  0.027  0.554
 
band  23 # energy   -0.42634257 # occ.  2.00000000
 
ion      s      p      d    tot
  1  0.046  0.001  0.013  0.060
  2  0.037  0.003  0.007  0.047
  3  0.003  0.006  0.046  0.055
  4  0.001  0.041  0.004  0.045
  5  0.001  0.074  0.000  0.074
  6  0.000  0.076  0.000  0.076
  7  0.001  0.089  0.000  0.090
  8  0.001  0.073  0.000  0.073
tot  0.089  0.362  0.069  0.520
 
band  24 # energy   -0.18513746 # occ.  2.00000000
 
ion      s      p      d    tot
  1  0.014  0.003  0.031  0.048
  2  0.007  0.008  0.024  0.039
  3  0.003  0.008  0.059  0.069
  4  0.000  0.083  0.004  0.086
  5  0.001  0.101  0.000  0.102
  6  0.000  0.073  0.000  0.073
  7  0.000  0.041  0.000  0.041
  8  0.002  0.100  0.000  0.102
tot  0.028  0.416  0.117  0.561
 
band  25 # energy    0.12267312 # occ.  2.00000000
 
ion      s      p      d    tot
  1  0.004  0.009  0.030  0.043
  2  0.010  0.002  0.036  0.048
  3  0.003  0.020  0.014  0.037
  4  0.001  0.084  0.005  0.089
  5  0.000  0.061  0.000  0.061
  6  0.001  0.098  0.000  0.099
  7  0.002  0.128  0.000  0.130
  8  0.000  0.050  0.000  0.050
tot  0.021  0.451  0.085  0.557
 
band  26 # energy    0.44119490 # occ.  2.00000000
 
ion      s      p      d    tot
  1  0.005  0.007  0.027  0.039
  2  0.004  0.001  0.027  0.032
  3  0.006  0.018  0.011  0.035
  4  0.000  0.125  0.006  0.131
  5  0.001  0.104  0.000  0.105
  6  0.002  0.083  0.000  0.084
  7  0.001  0.070  0.000  0.071
  8  0.001  0.100  0.000  0.101
tot  0.020  0.507  0.071  0.597
 
band  27 # energy    0.59306881 # occ.  2.00000000
 
ion      s      p      d    tot
  1  0.000  0.009  0.074  0.084
  2  0.004  0.003  0.058  0.064
  3  0.003  0.022  0.010  0.035
  4  0.001  0.052  0.009  0.062
  5  0.000  0.075  0.000  0.076
  6  0.001  0.112  0.000  0.112
  7  0.000  0.091  0.000  0.091
  8  0.001  0.076  0.000  0.076
tot  0.010  0.440  0.151  0.601
 
band  28 # energy    0.93030157 # occ.  2.00000000
 
ion      s      p      d    tot
  1  0.001  0.008  0.097  0.106