 running on   96 total cores
 distrk:  each k-point on   96 cores,    1 groups
 distr:  one band on   24 cores,    4 groups
 using from now: INCAR     
 vasp.5.4.1 24Jun15 (build Nov 25 2015 16:39:35) complex                        
  
 POSCAR found :  2 types and       2 ions
 scaLAPACK will be used

 ----------------------------------------------------------------------------- 
|                                                                             |
|           W    W    AA    RRRRR   N    N  II  N    N   GGGG   !!!           |
|           W    W   A  A   R    R  NN   N  II  NN   N  G    G  !!!           |
|           W    W  A    A  R    R  N N  N  II  N N  N  G       !!!           |
|           W WW W  AAAAAA  RRRRR   N  N N  II  N  N N  G  GGG   !            |
|           WW  WW  A    A  R   R   N   NN  II  N   NN  G    G                |
|           W    W  A    A  R    R  N    N  II  N    N   GGGG   !!!           |
|                                                                             |
|      For optimal performance we recommend to set                            |
|        NCORE= 4 - approx SQRT( number of cores)                             |
|      NCORE specifies how many cores store one orbital (NPAR=cpu/NCORE).     |
|      This setting can  greatly improve the performance of VASP for DFT.     |
|      The default, NPAR=number of cores might be grossly inefficient         |
|      on modern multi-core architectures or massively parallel machines.     |
|      Do your own testing !!!!                                               |
|      Unfortunately you need to use the default for GW and RPA calculations. |
|      (for HF NCORE is supported but not extensively tested yet)             |
|                                                                             |
 ----------------------------------------------------------------------------- 

 LDA part: xc-table for Pade appr. of Perdew
 found WAVECAR, reading the header
  number of k-points has changed, file:   254 present:    76
  trying to continue reading WAVECAR, but it might fail
 POSCAR, INCAR and KPOINTS ok, starting setup
 FFT: planning ...
 reading WAVECAR
 the WAVECAR file was read successfully
 initial charge from wavefunction
 entering main loop
       N       E                     dE             d eps       ncg     rms          ort
 EDWAV: internal error, the gradient is not orthogonal           1           1
 EDWAV: internal error, the gradient is not orthogonal           1           1
 EDWAV: internal error, the gradient is not orthogonal           1           1
  9.765625000000000E-003
 EDWAV: internal error, the gradient is not orthogonal           1           1
  9.765625000000000E-003
  9.765625000000000E-003
 EDWAV: internal error, the gradient is not orthogonal           1           1
 EDWAV: internal error, the gradient is not orthogonal           1           1
 EDWAV: internal error, the gradient is not orthogonal           1           1
 EDWAV: internal error, the gradient is not orthogonal           1           1
 EDWAV: internal error, the gradient is not orthogonal           1           1
 EDWAV: internal error, the gradient is not orthogonal           1           1
  9.765625000000000E-003
 EDWAV: internal error, the gradient is not orthogonal           1           1
 EDWAV: internal error, the gradient is not orthogonal           1           1
 EDWAV: internal error, the gradient is not orthogonal           1           1
 EDWAV: internal error, the gradient is not orthogonal           1           1
 EDWAV: internal error, the gradient is not orthogonal           1           1
 EDWAV: internal error, the gradient is not orthogonal           1           1
 EDWAV: internal error, the gradient is not orthogonal           1           1
 EDWAV: internal error, the gradient is not orthogonal           1           1
 -2.709960937500000E-002
 EDWAV: internal error, the gradient is not orthogonal           1           1
 -2.709960937500000E-002
 EDWAV: internal error, the gradient is not orthogonal           1           1
 EDWAV: internal error, the gradient is not orthogonal           1           1
 EDWAV: internal error, the gradient is not orthogonal           1           1
 EDWAV: internal error, the gradient is not orthogonal           1           1
 EDWAV: internal error, the gradient is not orthogonal           1           1
 EDWAV: internal error, the gradient is not orthogonal           1           1
 EDWAV: internal error, the gradient is not orthogonal           1           1
 EDWAV: internal error, the gradient is not orthogonal           1           1
 EDWAV: internal error, the gradient is not orthogonal           1           1
 -0.281250000000000     
 -0.281250000000000     
 -0.281250000000000     
 -0.281250000000000     
 EDWAV: internal error, the gradient is not orthogonal           1           1
 EDWAV: internal error, the gradient is not orthogonal           1           1
 EDWAV: internal error, the gradient is not orthogonal           1           1
 EDWAV: internal error, the gradient is not orthogonal           1           1
 EDWAV: internal error, the gradient is not orthogonal           1           1
 EDWAV: internal error, the gradient is not orthogonal           1           1
 EDWAV: internal error, the gradient is not orthogonal           1           1
 EDWAV: internal error, the gradient is not orthogonal           1           1
 EDWAV: internal error, the gradient is not orthogonal           1           1
 EDWAV: internal error, the gradient is not orthogonal           1           1
 EDWAV: internal error, the gradient is not orthogonal           1           1
 -0.187500000000000     
 EDWAV: internal error, the gradient is not orthogonal           1           1
 EDWAV: internal error, the gradient is not orthogonal           1           1
 EDWAV: internal error, the gradient is not orthogonal           1           1
  9.765625000000000E-003
  9.765625000000000E-003
  9.765625000000000E-003
 EDWAV: internal error, the gradient is not orthogonal           1           1
  9.765625000000000E-003
 EDWAV: internal error, the gradient is not orthogonal           1           1
 EDWAV: internal error, the gradient is not orthogonal           1           1
 EDWAV: internal error, the gradient is not orthogonal           1           1
  9.765625000000000E-003
  9.765625000000000E-003
  9.765625000000000E-003
  9.765625000000000E-003
  9.765625000000000E-003
  9.765625000000000E-003
 EDWAV: internal error, the gradient is not orthogonal           1           1
 EDWAV: internal error, the gradient is not orthogonal           1           1
 EDWAV: internal error, the gradient is not orthogonal           1           1
  9.765625000000000E-003
 EDWAV: internal error, the gradient is not orthogonal           1           1
  9.765625000000000E-003
  9.765625000000000E-003
  9.765625000000000E-003
  9.765625000000000E-003
 EDWAV: internal error, the gradient is not orthogonal           1           1
  9.765625000000000E-003
  9.765625000000000E-003
  9.765625000000000E-003
 EDWAV: internal error, the gradient is not orthogonal           1           1
 EDWAV: internal error, the gradient is not orthogonal           1           1
  9.765625000000000E-003
  9.765625000000000E-003
 EDWAV: internal error, the gradient is not orthogonal           1           1
 EDWAV: internal error, the gradient is not orthogonal           1           1
 -0.281250000000000     
 EDWAV: internal error, the gradient is not orthogonal           1           1
 -0.281250000000000     
 EDWAV: internal error, the gradient is not orthogonal           1           1
 -0.281250000000000     
 EDWAV: internal error, the gradient is not orthogonal           1           1
 -0.281250000000000     
 -0.281250000000000     
 EDWAV: internal error, the gradient is not orthogonal           1           1
 -0.281250000000000     
 EDWAV: internal error, the gradient is not orthogonal           1           1
 -0.281250000000000     
 EDWAV: internal error, the gradient is not orthogonal           1           1
 -0.281250000000000     
 -0.281250000000000     
 EDWAV: internal error, the gradient is not orthogonal           1           1
 -0.281250000000000     
 EDWAV: internal error, the gradient is not orthogonal           1           1
 EDWAV: internal error, the gradient is not orthogonal           1           1
 -0.281250000000000     
 EDWAV: internal error, the gradient is not orthogonal           1           1
 -0.281250000000000     
 -0.281250000000000     
 EDWAV: internal error, the gradient is not orthogonal           1           1
 -0.281250000000000     
 -0.281250000000000     
 -0.281250000000000     
 -0.281250000000000     
 EDWAV: internal error, the gradient is not orthogonal           1           1
 EDWAV: internal error, the gradient is not orthogonal           1           1
 -0.281250000000000     
 -0.281250000000000     
 -0.281250000000000     
 EDWAV: internal error, the gradient is not orthogonal           1           1
 -2.709960937500000E-002
 -2.709960937500000E-002
 -2.709960937500000E-002
 EDWAV: internal error, the gradient is not orthogonal           1           1
 EDWAV: internal error, the gradient is not orthogonal           1           1
 EDWAV: internal error, the gradient is not orthogonal           1           1
 -2.709960937500000E-002
 -2.709960937500000E-002
 EDWAV: internal error, the gradient is not orthogonal           1           1
 -2.709960937500000E-002
 EDWAV: internal error, the gradient is not orthogonal           1           1
 -2.709960937500000E-002
 EDWAV: internal error, the gradient is not orthogonal           1           1
 EDWAV: internal error, the gradient is not orthogonal           1           1
 -2.709960937500000E-002
 EDWAV: internal error, the gradient is not orthogonal           1           1
 -2.709960937500000E-002
 -2.709960937500000E-002
 EDWAV: internal error, the gradient is not orthogonal           1           1
 -2.709960937500000E-002
 EDWAV: internal error, the gradient is not orthogonal           1           1
 EDWAV: internal error, the gradient is not orthogonal           1           1
 -2.709960937500000E-002
 EDWAV: internal error, the gradient is not orthogonal           1           1
 -2.709960937500000E-002
 -2.709960937500000E-002
 -2.709960937500000E-002
 -2.709960937500000E-002
 -2.709960937500000E-002
 -2.709960937500000E-002
 EDWAV: internal error, the gradient is not orthogonal           1           1
 -2.709960937500000E-002
 -2.709960937500000E-002
 -2.709960937500000E-002
 EDWAV: internal error, the gradient is not orthogonal           1           1
 -2.709960937500000E-002
 EDWAV: internal error, the gradient is not orthogonal           1           1
 -0.187500000000000     
 -0.187500000000000     
 -0.187500000000000     
 EDWAV: internal error, the gradient is not orthogonal           1           1
 -0.187500000000000     
 -0.187500000000000     
 -0.187500000000000     
 -0.187500000000000     
 EDWAV: internal error, the gradient is not orthogonal           1           1
 EDWAV: internal error, the gradient is not orthogonal           1           1
 -0.187500000000000     
 EDWAV: internal error, the gradient is not orthogonal           1           1
 -0.187500000000000     
 EDWAV: internal error, the gradient is not orthogonal           1           1
 -0.187500000000000     
 -0.187500000000000     
 -0.187500000000000     
 EDWAV: internal error, the gradient is not orthogonal           1           1
 EDWAV: internal error, the gradient is not orthogonal           1           1
 -0.187500000000000     
 EDWAV: internal error, the gradient is not orthogonal           1           1
 -0.187500000000000     
 -0.187500000000000     
 -0.187500000000000     
 EDWAV: internal error, the gradient is not orthogonal           1           1
 EDWAV: internal error, the gradient is not orthogonal           1           1
 -0.187500000000000     
 EDWAV: internal error, the gradient is not orthogonal           1           1
 -0.187500000000000     
 -0.187500000000000     
 -0.187500000000000     
 -0.187500000000000     
 -0.187500000000000     
 EDWAV: internal error, the gradient is not orthogonal           1           1
 -0.187500000000000     
Application 23542910 resources: utime ~32313s, stime ~126s, Rss ~152740, inblocks ~733919, outblocks ~782371
