  96  96   0   0
  0.2080188E+02  0.1257760E-08  0.1245754E-08  0.1274818E-08  0.5000000E-15
  1.000000000000000E-004
  CAR 
 MAPbI3-Cubic                            
     10.64765576    -19.55961319  301      1.53512963      1.00000000
    -19.560  0.0000E+00  0.0000E+00
    -19.459  0.0000E+00  0.0000E+00
    -19.358  0.0000E+00  0.0000E+00
    -19.258  0.0000E+00  0.0000E+00
    -19.157  0.0000E+00  0.0000E+00
    -19.056  0.0000E+00  0.0000E+00
    -18.955  0.0000E+00  0.0000E+00
    -18.855  0.0000E+00  0.0000E+00
    -18.754  0.0000E+00  0.0000E+00
    -18.653  0.0000E+00  0.0000E+00
    -18.553  0.0000E+00  0.0000E+00
    -18.452  0.0000E+00  0.0000E+00
    -18.351  0.0000E+00  0.0000E+00
    -18.251  0.0000E+00  0.0000E+00
    -18.150  0.0000E+00  0.1600E+02
    -18.049  0.0000E+00  0.1600E+02
    -17.949  0.0000E+00  0.1600E+02
    -17.848  0.0000E+00  0.1600E+02
    -17.747  0.0000E+00  0.1600E+02
    -17.646  0.0000E+00  0.1600E+02
    -17.546  0.0000E+00  0.1600E+02
    -17.445  0.0000E+00  0.1600E+02
    -17.344  0.0000E+00  0.1600E+02
    -17.244  0.0000E+00  0.1600E+02
    -17.143  0.0000E+00  0.1600E+02
    -17.042  0.0000E+00  0.1600E+02
    -16.942  0.0000E+00  0.1600E+02
    -16.841  0.0000E+00  0.1600E+02
    -16.740  0.0000E+00  0.1600E+02
    -16.640  0.0000E+00  0.1600E+02
    -16.539  0.0000E+00  0.1600E+02
    -16.438  0.1580E+03  0.3191E+02
    -16.338  0.0000E+00  0.4800E+02
    -16.237  0.0000E+00  0.4800E+02
    -16.136  0.0000E+00  0.4800E+02
    -16.035  0.0000E+00  0.4800E+02
    -15.935  0.0000E+00  0.4800E+02
    -15.834  0.0000E+00  0.4800E+02
    -15.733  0.0000E+00  0.4800E+02
    -15.633  0.0000E+00  0.4800E+02
    -15.532  0.0000E+00  0.4800E+02
    -15.431  0.0000E+00  0.4800E+02
    -15.331  0.0000E+00  0.4800E+02
    -15.230  0.0000E+00  0.4800E+02
    -15.129  0.0000E+00  0.4800E+02
    -15.029  0.0000E+00  0.4800E+02
    -14.928  0.0000E+00  0.4800E+02
    -14.827  0.0000E+00  0.4800E+02
    -14.726  0.0000E+00  0.4800E+02
    -14.626  0.0000E+00  0.4800E+02
    -14.525  0.0000E+00  0.4800E+02
    -14.424  0.0000E+00  0.4800E+02
    -14.324  0.0000E+00  0.4800E+02
    -14.223  0.0000E+00  0.4800E+02
    -14.122  0.0000E+00  0.4800E+02
    -14.022  0.0000E+00  0.4800E+02
    -13.921  0.3201E-10  0.4800E+02
    -13.820  0.0000E+00  0.9600E+02
    -13.720  0.0000E+00  0.9600E+02
    -13.619  0.0000E+00  0.9600E+02
    -13.518  0.0000E+00  0.9600E+02
    -13.417  0.0000E+00  0.9600E+02
    -13.317  0.0000E+00  0.9600E+02
    -13.216  0.0000E+00  0.9600E+02
    -13.115  0.0000E+00  0.9600E+02
    -13.015  0.0000E+00  0.9600E+02
    -12.914  0.0000E+00  0.9600E+02
    -12.813  0.0000E+00  0.9600E+02
    -12.713  0.0000E+00  0.9600E+02
    -12.612  0.0000E+00  0.9600E+02
    -12.511  0.0000E+00  0.9600E+02
    -12.411  0.0000E+00  0.9600E+02
    -12.310  0.0000E+00  0.9600E+02
    -12.209  0.0000E+00  0.9600E+02
    -12.108  0.0000E+00  0.9600E+02
    -12.008  0.0000E+00  0.9600E+02
    -11.907  0.0000E+00  0.9600E+02
    -11.806  0.0000E+00  0.9600E+02
    -11.706  0.0000E+00  0.9600E+02
    -11.605  0.0000E+00  0.9600E+02
    -11.504  0.0000E+00  0.9600E+02
    -11.404  0.0000E+00  0.9600E+02
    -11.303  0.7357E+00  0.1040E+03
    -11.202  0.0000E+00  0.1120E+03
    -11.102  0.0000E+00  0.1120E+03
    -11.001  0.0000E+00  0.1120E+03
    -10.900  0.0000E+00  0.1120E+03
    -10.800  0.3221E-03  0.1121E+03
    -10.699  0.0000E+00  0.1141E+03
    -10.598  0.7345E+01  0.1196E+03
    -10.497  0.2677E+01  0.1266E+03
    -10.397  0.0000E+00  0.1291E+03
    -10.296  0.7612E+01  0.1362E+03
    -10.195  0.7906E+01  0.1408E+03
    -10.095  0.1225E-15  0.1442E+03
     -9.994  0.3123E+01  0.1548E+03
     -9.893  0.0000E+00  0.1600E+03
     -9.793  0.0000E+00  0.1600E+03
     -9.692  0.0000E+00  0.1600E+03
     -9.591  0.0000E+00  0.1600E+03
     -9.491  0.0000E+00  0.1600E+03
     -9.390  0.0000E+00  0.1600E+03
     -9.289  0.0000E+00  0.1600E+03
     -9.188  0.0000E+00  0.1600E+03
     -9.088  0.0000E+00  0.1600E+03
     -8.987  0.0000E+00  0.1600E+03
     -8.886  0.0000E+00  0.1600E+03
     -8.786  0.0000E+00  0.1600E+03
     -8.685  0.0000E+00  0.1600E+03
     -8.584  0.0000E+00  0.1600E+03
     -8.484  0.0000E+00  0.1600E+03
     -8.383  0.0000E+00  0.1600E+03
     -8.282  0.0000E+00  0.1600E+03
     -8.182  0.0000E+00  0.1600E+03
     -8.081  0.0000E+00  0.1600E+03
     -7.980  0.0000E+00  0.1600E+03
     -7.879  0.0000E+00  0.1600E+03
     -7.779  0.0000E+00  0.1600E+03
     -7.678  0.5222E+02  0.1680E+03
     -7.577  0.1992E-08  0.1853E+03
     -7.477  0.0000E+00  0.1920E+03
     -7.376  0.0000E+00  0.1920E+03
     -7.275  0.0000E+00  0.1920E+03
     -7.175  0.0000E+00  0.1920E+03
     -7.074  0.0000E+00  0.1920E+03
     -6.973  0.0000E+00  0.1920E+03
     -6.873  0.0000E+00  0.1921E+03
     -6.772  0.0000E+00  0.1925E+03
     -6.671  0.0000E+00  0.1934E+03
     -6.570  0.2943E+01  0.1940E+03
     -6.470  0.0000E+00  0.1944E+03
     -6.369  0.0000E+00  0.1964E+03
     -6.268  0.0000E+00  0.1988E+03
     -6.168  0.2592E+00  0.2000E+03
     -6.067  0.7777E-01  0.2015E+03
     -5.966  0.1382E+01  0.2037E+03
     -5.866  0.2207E+01  0.2058E+03
     -5.765  0.2943E+01  0.2136E+03
     -5.664  0.7357E+00  0.2226E+03
     -5.564  0.0000E+00  0.2235E+03
     -5.463  0.2207E+01  0.2239E+03
     -5.362  0.0000E+00  0.2239E+03
     -5.262  0.0000E+00  0.2240E+03
     -5.161  0.0000E+00  0.2240E+03
     -5.060  0.0000E+00  0.2240E+03
     -4.959  0.0000E+00  0.2240E+03
     -4.859  0.0000E+00  0.2240E+03
     -4.758  0.0000E+00  0.2240E+03
     -4.657  0.0000E+00  0.2240E+03
     -4.557  0.0000E+00  0.2240E+03
     -4.456  0.0000E+00  0.2240E+03
     -4.355  0.0000E+00  0.2240E+03
     -4.255  0.0000E+00  0.2240E+03
     -4.154  0.0000E+00  0.2240E+03
     -4.053  0.0000E+00  0.2240E+03
     -3.953  0.0000E+00  0.2240E+03
     -3.852  0.0000E+00  0.2240E+03
     -3.751  0.0000E+00  0.2240E+03
     -3.650  0.0000E+00  0.2240E+03
     -3.550  0.3110E+02  0.2357E+03
     -3.449  0.0000E+00  0.2560E+03
     -3.348  0.0000E+00  0.2560E+03
     -3.248  0.0000E+00  0.2560E+03
     -3.147  0.0000E+00  0.2560E+03
     -3.046  0.0000E+00  0.2560E+03
     -2.946  0.0000E+00  0.2560E+03
     -2.845  0.0000E+00  0.2560E+03
     -2.744  0.0000E+00  0.2560E+03
     -2.644  0.0000E+00  0.2560E+03
     -2.543  0.0000E+00  0.2560E+03
     -2.442  0.0000E+00  0.2560E+03
     -2.341  0.0000E+00  0.2560E+03
     -2.241  0.0000E+00  0.2560E+03
     -2.140  0.2942E+01  0.2572E+03
     -2.039  0.4147E+01  0.2601E+03
     -1.939  0.2860E+01  0.2625E+03
     -1.838  0.1471E+01  0.2653E+03
     -1.737  0.2531E-01  0.2686E+03
     -1.637  0.1721E+01  0.2727E+03
     -1.536  0.4941E+01  0.2762E+03
     -1.435  0.3613E+01  0.2793E+03
     -1.335  0.1471E+01  0.2800E+03
     -1.234  0.2798E+01  0.2811E+03
     -1.133  0.2197E+01  0.2850E+03
     -1.032  0.4535E+01  0.2876E+03
     -0.932  0.9037E+00  0.2933E+03
     -0.831  0.2952E+01  0.2977E+03
     -0.730  0.5513E-14  0.3010E+03
     -0.630  0.5479E+01  0.3035E+03
     -0.529  0.3549E+01  0.3085E+03
     -0.428  0.5187E+01  0.3144E+03
     -0.328  0.3554E+01  0.3194E+03
     -0.227  0.4357E+01  0.3233E+03
     -0.126  0.1040E+02  0.3299E+03
     -0.026  0.1053E+02  0.3378E+03
      0.075  0.5147E+01  0.3467E+03
      0.176  0.2898E+01  0.3520E+03
      0.276  0.4287E+01  0.3561E+03
      0.377  0.2611E+01  0.3609E+03
      0.478  0.5159E+01  0.3664E+03
      0.579  0.6954E+01  0.3736E+03
      0.679  0.4392E+01  0.3796E+03
      0.780  0.7603E+01  0.3879E+03
      0.881  0.1887E+01  0.3930E+03
      0.981  0.1595E+01  0.3962E+03
      1.082  0.7357E+00  0.3979E+03
      1.183  0.1471E+01  0.3992E+03
      1.283  0.0000E+00  0.3995E+03
      1.384  0.1480E-12  0.3999E+03
      1.485  0.8211E-04  0.3999E+03
      1.585  0.0000E+00  0.4000E+03
      1.686  0.0000E+00  0.4000E+03
      1.787  0.0000E+00  0.4000E+03
      1.888  0.0000E+00  0.4000E+03
      1.988  0.0000E+00  0.4000E+03
      2.089  0.0000E+00  0.4000E+03
      2.190  0.0000E+00  0.4001E+03
      2.290  0.0000E+00  0.4001E+03
      2.391  0.2439E+00  0.4002E+03
      2.492  0.1757E-01  0.4003E+03
      2.592  0.0000E+00  0.4005E+03
      2.693  0.0000E+00  0.4010E+03
      2.794  0.7357E+00  0.4014E+03
      2.894  0.1303E-02  0.4020E+03
      2.995  0.1296E-06  0.4022E+03
      3.096  0.2207E+01  0.4032E+03
      3.197  0.1192E+01  0.4042E+03
      3.297  0.3746E-03  0.4048E+03
      3.398  0.2221E+01  0.4059E+03
      3.499  0.2214E+01  0.4070E+03
      3.599  0.0000E+00  0.4087E+03
      3.700  0.0000E+00  0.4093E+03
      3.801  0.3678E+01  0.4101E+03
      3.901  0.0000E+00  0.4116E+03
      4.002  0.6060E-03  0.4129E+03
      4.103  0.5803E+00  0.4138E+03
      4.203  0.2206E+01  0.4157E+03
      4.304  0.1193E+01  0.4174E+03
      4.405  0.7596E+00  0.4195E+03
      4.506  0.2294E-01  0.4205E+03
      4.606  0.1471E+01  0.4219E+03
      4.707  0.0000E+00  0.4227E+03
      4.808  0.1141E-01  0.4236E+03
      4.908  0.1925E-01  0.4242E+03
      5.009  0.7357E+00  0.4250E+03
      5.110  0.7357E+00  0.4259E+03
      5.210  0.3616E-02  0.4267E+03
      5.311  0.7357E+00  0.4281E+03
      5.412  0.7357E+00  0.4302E+03
      5.512  0.2935E+01  0.4339E+03
      5.613  0.1471E+01  0.4368E+03
      5.714  0.2207E+01  0.4391E+03
      5.814  0.5851E-04  0.4411E+03
      5.915  0.4367E+01  0.4437E+03
      6.016  0.5869E+01  0.4472E+03
      6.117  0.3664E+01  0.4509E+03
      6.217  0.8180E+00  0.4556E+03
      6.318  0.5592E+01  0.4598E+03
      6.419  0.2076E-03  0.4637E+03
      6.519  0.5150E+01  0.4688E+03
      6.620  0.3029E+01  0.4736E+03
      6.721  0.9896E+00  0.4781E+03
      6.821  0.2207E+01  0.4818E+03
      6.922  0.2056E-03  0.4858E+03
      7.023  0.3681E+01  0.4897E+03
      7.123  0.4416E+01  0.4946E+03
      7.224  0.2935E+01  0.4988E+03
      7.325  0.1625E+01  0.5033E+03
      7.426  0.3702E+01  0.5089E+03
      7.526  0.3704E+01  0.5133E+03
      7.627  0.3678E+01  0.5182E+03
      7.728  0.1075E+01  0.5231E+03
      7.828  0.2851E+01  0.5284E+03
      7.929  0.3678E+01  0.5339E+03
      8.030  0.1462E+01  0.5395E+03
      8.130  0.1934E+01  0.5442E+03
      8.231  0.1173E+02  0.5496E+03
      8.332  0.5772E+01  0.5553E+03
      8.432  0.5409E+01  0.5616E+03
      8.533  0.3329E+01  0.5669E+03
      8.634  0.8094E+01  0.5727E+03
      8.735  0.2699E+01  0.5779E+03
      8.835  0.9845E+01  0.5843E+03
      8.936  0.3383E+01  0.5899E+03
      9.037  0.3245E+01  0.5950E+03
      9.137  0.3310E+01  0.5984E+03
      9.238  0.3120E+00  0.5999E+03
      9.339  0.0000E+00  0.6000E+03
      9.439  0.0000E+00  0.6000E+03
      9.540  0.0000E+00  0.6000E+03
      9.641  0.0000E+00  0.6000E+03
      9.741  0.0000E+00  0.6000E+03
      9.842  0.0000E+00  0.6000E+03
      9.943  0.0000E+00  0.6000E+03
     10.044  0.0000E+00  0.6000E+03
     10.144  0.0000E+00  0.6000E+03
     10.245  0.0000E+00  0.6000E+03
     10.346  0.0000E+00  0.6000E+03
     10.446  0.0000E+00  0.6000E+03
     10.547  0.0000E+00  0.6000E+03
     10.648  0.0000E+00  0.6000E+03
