 vasp.5.4.1 24Jun15 (build Nov 25 2015 16:39:35) complex                        
  
 executed on         CrayXC-Intel date 2016.06.22  00:47:58
 running on  192 total cores
 distrk:  each k-point on  192 cores,    1 groups
 distr:  one band on NCORES_PER_BAND=  24 cores,    8 groups


--------------------------------------------------------------------------------------------------------


 INCAR:
 POTCAR:    PAW_PBE C 08Apr2002                   
 POTCAR:    PAW_PBE N 08Apr2002                   
 POTCAR:    PAW_PBE H 15Jun2001                   
 POTCAR:    PAW_PBE Pb_d 06Sep2000                
 POTCAR:    PAW_PBE I 08Apr2002                   
 POTCAR:    PAW_PBE C 08Apr2002                   
   VRHFIN =C: s2p2                                                              
   LEXCH  = PE                                                                  
   EATOM  =   147.1560 eV,   10.8157 Ry                                         
                                                                                
   TITEL  = PAW_PBE C 08Apr2002                                                 
   LULTRA =        F    use ultrasoft PP ?                                      
   IUNSCR =        1    unscreen: 0-lin 1-nonlin 2-no                           
   RPACOR =    1.200    partial core radius                                     
   POMASS =   12.011; ZVAL   =    4.000    mass and valenz                      
   RCORE  =    1.500    outmost cutoff radius                                   
   RWIGS  =    1.630; RWIGS  =    0.863    wigner-seitz radius (au A)           
   ENMAX  =  400.000; ENMIN  =  300.000 eV                                      
   ICORE  =        2    local potential                                         
   LCOR   =        T    correct aug charges                                     
   LPAW   =        T    paw PP                                                  
   EAUG   =  644.873                                                            
   DEXC   =    0.000                                                            
   RMAX   =    1.529    core radius for proj-oper                               
   RAUG   =    1.300    factor for augmentation sphere                          
   RDEP   =    1.501    radius for radial grids                                 
   RDEPT  =    1.300    core radius for aug-charge                              
                                                                                
   Atomic configuration                                                         
    4 entries                                                                   
     n  l   j            E        occ.                                          
     1  0  0.50      -273.3789   2.0000                                         
     2  0  0.50       -13.7508   2.0000                                         
     2  1  0.50        -5.2854   2.0000                                         
     3  2  1.50        -5.4423   0.0000                                         
   Description                                                                  
     l       E           TYP  RCUT    TYP  RCUT                                 
     0    -13.7508458     23  1.200                                             
     0     -8.2022199     23  1.200                                             
     1     -5.2854383     23  1.500                                             
     1     34.0145650     23  1.500                                             
     2     -5.4423304      7  1.500                                             
  local pseudopotential read in
  partial core-charges read in
  partial kinetic energy density read in
  atomic valenz-charges read in
  non local Contribution for L=           0  read in
    real space projection operators read in
  non local Contribution for L=           0  read in
    real space projection operators read in
  non local Contribution for L=           1  read in
    real space projection operators read in
  non local Contribution for L=           1  read in
    real space projection operators read in
    PAW grid and wavefunctions read in
 
   number of l-projection  operators is LMAX  =           4
   number of lm-projection operators is LMMAX =           8
 
 POTCAR:    PAW_PBE N 08Apr2002                   
   VRHFIN =N: s2p3                                                              
   LEXCH  = PE                                                                  
   EATOM  =   264.5486 eV,   19.4438 Ry                                         
                                                                                
   TITEL  = PAW_PBE N 08Apr2002                                                 
   LULTRA =        F    use ultrasoft PP ?                                      
   IUNSCR =        1    unscreen: 0-lin 1-nonlin 2-no                           
   RPACOR =    1.200    partial core radius                                     
   POMASS =   14.001; ZVAL   =    5.000    mass and valenz                      
   RCORE  =    1.500    outmost cutoff radius                                   
   RWIGS  =    1.400; RWIGS  =    0.741    wigner-seitz radius (au A)           
   ENMAX  =  400.000; ENMIN  =  300.000 eV                                      
   ICORE  =        2    local potential                                         
   LCOR   =        T    correct aug charges                                     
   LPAW   =        T    paw PP                                                  
   EAUG   =  627.112                                                            
   DEXC   =    0.000                                                            
   RMAX   =    1.529    core radius for proj-oper                               
   RAUG   =    1.300    factor for augmentation sphere                          
   RDEP   =    1.514    radius for radial grids                                 
   RDEPT  =    1.338    core radius for aug-charge                              
                                                                                
   Atomic configuration                                                         
    4 entries                                                                   
     n  l   j            E        occ.                                          
     1  0  0.50      -384.7179   2.0000                                         
     2  0  0.50       -18.5828   2.0000                                         
     2  1  0.50        -7.0898   3.0000                                         
     3  2  1.50        -6.8029   0.0000                                         
   Description                                                                  
     l       E           TYP  RCUT    TYP  RCUT                                 
     0    -18.5828119     23  1.200                                             
     0    -13.5018863     23  1.200                                             
     1     -7.0897853     23  1.500                                             
     1      9.5240782     23  1.500                                             
     2     -6.8029130      7  1.500                                             
  local pseudopotential read in
  partial core-charges read in
  partial kinetic energy density read in
  atomic valenz-charges read in
  non local Contribution for L=           0  read in
    real space projection operators read in
  non local Contribution for L=           0  read in
    real space projection operators read in
  non local Contribution for L=           1  read in
    real space projection operators read in
  non local Contribution for L=           1  read in
    real space projection operators read in
    PAW grid and wavefunctions read in
 
   number of l-projection  operators is LMAX  =           4
   number of lm-projection operators is LMMAX =           8
 
 POTCAR:    PAW_PBE H 15Jun2001                   
   VRHFIN =H: ultrasoft test                                                    
   LEXCH  = PE                                                                  
   EATOM  =    12.4884 eV,    0.9179 Ry                                         
                                                                                
   TITEL  = PAW_PBE H 15Jun2001                                                 
   LULTRA =        F    use ultrasoft PP ?                                      
   IUNSCR =        0    unscreen: 0-lin 1-nonlin 2-no                           
   RPACOR =    0.000    partial core radius                                     
   POMASS =    1.000; ZVAL   =    1.000    mass and valenz                      
   RCORE  =    1.100    outmost cutoff radius                                   
   RWIGS  =    0.700; RWIGS  =    0.370    wigner-seitz radius (au A)           
   ENMAX  =  250.000; ENMIN  =  200.000 eV                                      
   RCLOC  =    0.701    cutoff for local pot                                    
   LCOR   =        T    correct aug charges                                     
   LPAW   =        T    paw PP                                                  
   EAUG   =  400.000                                                            
   RMAX   =    1.123    core radius for proj-oper                               
   RAUG   =    1.200    factor for augmentation sphere                          
   RDEP   =    1.112    radius for radial grids                                 
   RDEPT  =    0.926    core radius for aug-charge                              
                                                                                
   Atomic configuration                                                         
    2 entries                                                                   
     n  l   j            E        occ.                                          
     1  0  0.50        -6.4927   1.0000                                         
     2  1  0.50        -3.4015   0.0000                                         
   Description                                                                  
     l       E           TYP  RCUT    TYP  RCUT                                 
     0     -6.4927494     23  1.100                                             
     0      6.8029130     23  1.100                                             
     1     -4.0817478     23  1.100                                             
  local pseudopotential read in
  atomic valenz-charges read in
  non local Contribution for L=           0  read in
    real space projection operators read in
  non local Contribution for L=           0  read in
    real space projection operators read in
  non local Contribution for L=           1  read in
    real space projection operators read in
    PAW grid and wavefunctions read in
 
   number of l-projection  operators is LMAX  =           3
   number of lm-projection operators is LMMAX =           5
 
 POTCAR:    PAW_PBE Pb_d 06Sep2000                
   VRHFIN =Pb:                                                                  
   LEXCH  = PE                                                                  
   EATOM  =  1661.6185 eV,  122.1255 Ry                                         
                                                                                
   TITEL  = PAW_PBE Pb_d 06Sep2000                                              
   LULTRA =        F    use ultrasoft PP ?                                      
   IUNSCR =        1    unscreen: 0-lin 1-nonlin 2-no                           
   RPACOR =    2.200    partial core radius                                     
   POMASS =  207.200; ZVAL   =   14.000    mass and valenz                      
   RCORE  =    2.500    outmost cutoff radius                                   
   RWIGS  =    3.260; RWIGS  =    1.725    wigner-seitz radius (au A)           
   ENMAX  =  237.835; ENMIN  =  178.376 eV                                      
   ICORE  =        3    local potential                                         
   LCOR   =        T    correct aug charges                                     
   LPAW   =        T    paw PP                                                  
   EAUG   =  391.914                                                            
   DEXC   =    0.000                                                            
   RMAX   =    2.565    core radius for proj-oper                               
   RAUG   =    1.300    factor for augmentation sphere                          
   RDEP   =    2.643    radius for radial grids                                 
   RDEPT  =    2.092    core radius for aug-charge                              
                                                                                
   Atomic configuration                                                         
   16 entries                                                                   
     n  l   j            E        occ.                                          
     1  0  0.50    -88091.8466   2.0000                                         
     2  0  0.50    -15753.4197   2.0000                                         
     2  1  1.50    -13508.1797   6.0000                                         
     3  0  0.50     -3781.7194   2.0000                                         
     3  1  1.50     -3138.2529   6.0000                                         
     3  2  2.50     -2483.2977  10.0000                                         
     4  0  0.50      -856.2895   2.0000                                         
     4  1  1.50      -645.4942   6.0000                                         
     4  2  2.50      -401.8768  10.0000                                         
     4  3  3.50      -132.9059  14.0000                                         
     5  0  0.50      -144.0950   2.0000                                         
     5  1  1.50       -85.7879   6.0000                                         
     5  2  2.50       -21.1769  10.0000                                         
     6  0  0.50       -12.0372   2.0000                                         
     6  1  1.50        -3.4971   2.0000                                         
     5  3  2.50        -2.7212   0.0000                                         
   Description                                                                  
     l       E           TYP  RCUT    TYP  RCUT                                 
     2    -21.1768523     23  2.500                                             
     2      1.3605826     23  2.500                                             
     0    -12.0371562     23  2.500                                             
     0     13.6058260     23  2.500                                             
     1     -3.4971339     23  2.500                                             
     1     13.6058260     23  2.500                                             
     3     -1.3605826      7  2.500                                             
  local pseudopotential read in
  partial core-charges read in
  partial kinetic energy density read in
  atomic valenz-charges read in
  non local Contribution for L=           2  read in
    real space projection operators read in
  non local Contribution for L=           2  read in
    real space projection operators read in
  non local Contribution for L=           0  read in
    real space projection operators read in
  non local Contribution for L=           0  read in
    real space projection operators read in
  non local Contribution for L=           1  read in
    real space projection operators read in
  non local Contribution for L=           1  read in
    real space projection operators read in
    PAW grid and wavefunctions read in
 
   number of l-projection  operators is LMAX  =           6
   number of lm-projection operators is LMMAX =          18
 
 POTCAR:    PAW_PBE I 08Apr2002                   
   VRHFIN =I : s2p5                                                             
   LEXCH  = PE                                                                  
   EATOM  =   315.8678 eV,   23.2156 Ry                                         
                                                                                
   TITEL  = PAW_PBE I 08Apr2002                                                 
   LULTRA =        F    use ultrasoft PP ?                                      
   IUNSCR =        1    unscreen: 0-lin 1-nonlin 2-no                           
   RPACOR =    2.200    partial core radius                                     
   POMASS =  126.904; ZVAL   =    7.000    mass and valenz                      
   RCORE  =    2.300    outmost cutoff radius                                   
   RWIGS  =    2.810; RWIGS  =    1.487    wigner-seitz radius (au A)           
   ENMAX  =  175.647; ENMIN  =  131.735 eV                                      
   ICORE  =        3    local potential                                         
   LCOR   =        T    correct aug charges                                     
   LPAW   =        T    paw PP                                                  
   EAUG   =  370.139                                                            
   DEXC   =    0.000                                                            
   RMAX   =    2.359    core radius for proj-oper                               
   RAUG   =    1.300    factor for augmentation sphere                          
   RDEP   =    2.392    radius for radial grids                                 
   RDEPT  =    2.170    core radius for aug-charge                              
                                                                                
   Atomic configuration                                                         
   13 entries                                                                   
     n  l   j            E        occ.                                          
     1  0  0.50    -32976.3739   2.0000                                         
     2  0  0.50     -5094.5933   2.0000                                         
     2  1  1.50     -4572.0131   6.0000                                         
     3  0  0.50     -1028.2813   2.0000                                         
     3  1  1.50      -859.0250   6.0000                                         
     3  2  2.50      -605.7620  10.0000                                         
     4  0  0.50      -180.5540   2.0000                                         
     4  1  1.50      -127.5306   6.0000                                         
     4  2  2.50       -50.2720  10.0000                                         
     5  0  0.50       -17.4058   2.0000                                         
     5  1  0.50        -7.0851   5.0000                                         
     5  2  1.50        -7.0750   0.0000                                         
     4  3  2.50        -7.0750   0.0000                                         
   Description                                                                  
     l       E           TYP  RCUT    TYP  RCUT                                 
     0    -17.4058016     23  2.300                                             
     0    -18.7663842     23  2.300                                             
     1     -7.0850686     23  2.300                                             
     1     -4.2150896     23  2.300                                             
     2     -7.0750295     23  2.300                                             
     3     -1.3605826     23  2.300                                             
  local pseudopotential read in
  partial core-charges read in
  partial kinetic energy density read in
  atomic valenz-charges read in
  non local Contribution for L=           0  read in
    real space projection operators read in
  non local Contribution for L=           0  read in
    real space projection operators read in
  non local Contribution for L=           1  read in
    real space projection operators read in
  non local Contribution for L=           1  read in
    real space projection operators read in
  non local Contribution for L=           2  read in
    real space projection operators read in
    PAW grid and wavefunctions read in
 
   number of l-projection  operators is LMAX  =           5
   number of lm-projection operators is LMMAX =          13
 

 ----------------------------------------------------------------------------- 
|                                                                             |
|  ADVICE TO THIS USER RUNNING 'VASP/VAMP'   (HEAR YOUR MASTER'S VOICE ...):  |
|                                                                             |
|      You have a (more or less) 'large supercell' and for larger cells       |
|      it might be more efficient to use real space projection opertators     |
|      So try LREAL= Auto  in the INCAR   file.                               |
|      Mind: At the moment your POTCAR file does not contain real space       |
|       projectors, and has to be modified,  BUT if you                       |
|      want to do an extremely  accurate calculation you might also keep the  |
|      reciprocal projection scheme          (i.e. LREAL=.FALSE.)             |
|                                                                             |
 ----------------------------------------------------------------------------- 


 ----------------------------------------------------------------------------- 
|                                                                             |
|  ADVICE TO THIS USER RUNNING 'VASP/VAMP'   (HEAR YOUR MASTER'S VOICE ...):  |
|                                                                             |
|      You enforced a specific xc-type in the INCAR file,                     |
|      a different type was found on the POTCAR file                          |
|          I HOPE YOU KNOW, WHAT YOU ARE  DOING                               |
|                                                                             |
 ----------------------------------------------------------------------------- 

  PAW_PBE C 08Apr2002                   :
 energy of atom  1       EATOM= -147.1560
 kinetic energy error for atom=    0.0032 (will be added to EATOM!!)
  PAW_PBE N 08Apr2002                   :
 energy of atom  2       EATOM= -264.5486
 kinetic energy error for atom=    0.0061 (will be added to EATOM!!)
  PAW_PBE H 15Jun2001                   :
 energy of atom  3       EATOM=  -12.4884
 kinetic energy error for atom=    0.0002 (will be added to EATOM!!)
  PAW_PBE Pb_d 06Sep2000                :
 energy of atom  4       EATOM=-1661.6185
 kinetic energy error for atom=    0.0012 (will be added to EATOM!!)
  PAW_PBE I 08Apr2002                   :
 energy of atom  5       EATOM= -315.8678
 kinetic energy error for atom=    0.0003 (will be added to EATOM!!)
 
 
 POSCAR: C N H Pb I                              
  positions in direct lattice
  No initial velocities read in
 exchange correlation table for  LEXCH =       14
   RHO(1)=    0.500       N(1)  =     2000
   RHO(2)=  100.500       N(2)  =     4000
 


--------------------------------------------------------------------------------------------------------


 ion  position               nearest neighbor table
   1  0.205  0.250  0.217-  33 1.10  25 1.10  17 1.11   9 1.49
   2  0.689  0.250  0.241-  34 1.10  26 1.10  18 1.11  10 1.49
   3  0.189  0.750  0.241-  35 1.10  27 1.10  19 1.11  11 1.49
   4  0.705  0.750  0.217-  36 1.10  28 1.10  20 1.11  12 1.49
   5  0.205  0.250  0.717-  37 1.10  29 1.10  21 1.11  13 1.49
   6  0.689  0.250  0.741-  38 1.10  30 1.10  22 1.11  14 1.49
   7  0.189  0.750  0.741-  39 1.10  31 1.10  23 1.11  15 1.49
   8  0.705  0.750  0.717-  40 1.10  32 1.10  24 1.11  16 1.49
   9  0.307  0.250  0.275-  57 1.05  41 1.05  49 1.05   1 1.49
  10  0.802  0.250  0.273-  42 1.05  50 1.05  58 1.06   2 1.49
  11  0.302  0.750  0.273-  43 1.05  51 1.05  59 1.06   3 1.49
  12  0.807  0.750  0.275-  60 1.05  44 1.05  52 1.05   4 1.49
  13  0.307  0.250  0.775-  61 1.05  45 1.05  53 1.05   5 1.49
  14  0.802  0.250  0.773-  46 1.05  54 1.05  62 1.06   6 1.49
  15  0.302  0.750  0.773-  47 1.05  55 1.05  63 1.06   7 1.49
  16  0.807  0.750  0.775-  64 1.05  48 1.05  56 1.05   8 1.49
  17  0.224  0.250  0.131-   1 1.11
  18  0.686  0.250  0.155-   2 1.11
  19  0.186  0.750  0.155-   3 1.11
  20  0.724  0.750  0.131-   4 1.11
  21  0.224  0.250  0.631-   5 1.11
  22  0.686  0.250  0.655-   6 1.11
  23  0.186  0.750  0.655-   7 1.11
  24  0.724  0.750  0.631-   8 1.11
  25  0.159  0.322  0.238-   1 1.10
  26  0.649  0.322  0.273-   2 1.10
  27  0.149  0.822  0.273-   3 1.10
  28  0.659  0.822  0.238-   4 1.10
  29  0.159  0.322  0.738-   5 1.10
  30  0.649  0.322  0.773-   6 1.10
  31  0.149  0.822  0.773-   7 1.10
  32  0.659  0.822  0.738-   8 1.10
  33  0.159  0.177  0.238-   1 1.10
  34  0.650  0.177  0.273-   2 1.10
  35  0.150  0.677  0.273-   3 1.10
  36  0.659  0.677  0.238-   4 1.10
  37  0.159  0.177  0.738-   5 1.10
  38  0.650  0.177  0.773-   6 1.10
  39  0.150  0.677  0.773-   7 1.10
  40  0.659  0.677  0.738-   8 1.10
  41  0.353  0.318  0.257-   9 1.05
  42  0.843  0.318  0.245-  10 1.05
  43  0.343  0.818  0.245-  11 1.05
  44  0.853  0.818  0.257-  12 1.05
  45  0.353  0.318  0.757-  13 1.05
  46  0.843  0.318  0.745-  14 1.05
  47  0.343  0.818  0.745-  15 1.05
  48  0.853  0.818  0.757-  16 1.05
  49  0.353  0.182  0.257-   9 1.05
  50  0.844  0.182  0.245-  10 1.05
  51  0.344  0.682  0.245-  11 1.05
  52  0.853  0.682  0.257-  12 1.05
  53  0.353  0.182  0.757-  13 1.05
  54  0.844  0.182  0.745-  14 1.05
  55  0.344  0.682  0.745-  15 1.05
  56  0.853  0.682  0.757-  16 1.05
  57  0.294  0.250  0.356-   9 1.05
  58  0.812  0.250  0.355-  10 1.06
  59  0.312  0.750  0.355-  11 1.06
  60  0.794  0.750  0.356-  12 1.05
  61  0.294  0.250  0.856-  13 1.05
  62  0.812  0.250  0.855-  14 1.06
  63  0.312  0.750  0.855-  15 1.06
  64  0.794  0.750  0.856-  16 1.05
  65  0.472  0.501  0.489-  90 3.10  85 3.14  87 3.17  77 3.17  73 3.22  89 3.27
  66  0.972  0.499  0.489-  89 3.10  88 3.14  78 3.17  86 3.17  74 3.22  90 3.27
  67  0.472  0.999  0.489-  92 3.10  85 3.14  79 3.17  87 3.17  75 3.22  91 3.27
  68  0.972  0.001  0.489-  91 3.10  88 3.14  86 3.17  80 3.17  76 3.22  92 3.27
  69  0.472  0.501  0.989-  94 3.10  81 3.14  83 3.17  73 3.17  77 3.22  93 3.27
  70  0.972  0.499  0.989-  93 3.10  84 3.14  74 3.17  82 3.17  78 3.22  94 3.27
  71  0.472  0.999  0.989-  96 3.10  81 3.14  75 3.17  83 3.17  79 3.22  95 3.27
  72  0.972  0.001  0.989-  95 3.10  84 3.14  82 3.17  76 3.17  80 3.22  96 3.27
  73  0.455  0.501  0.238-  69 3.17  65 3.22
  74  0.955  0.499  0.238-  70 3.17  66 3.22
  75  0.455  0.999  0.238-  71 3.17  67 3.22
  76  0.955  0.001  0.238-  72 3.17  68 3.22
  77  0.455  0.501  0.738-  65 3.17  69 3.22
  78  0.955  0.499  0.738-  66 3.17  70 3.22
  79  0.455  0.999  0.738-  67 3.17  71 3.22
  80  0.955  0.001  0.738-  68 3.17  72 3.22
  81  0.475  0.250  0.007-  71 3.14  69 3.14
  82  0.925  0.250  0.017-  72 3.17  70 3.17
  83  0.425  0.750  0.017-  69 3.17  71 3.17
  84  0.975  0.750  0.007-  70 3.14  72 3.14
  85  0.475  0.250  0.507-  67 3.14  65 3.14
  86  0.925  0.250  0.517-  68 3.17  66 3.17
  87  0.425  0.750  0.517-  65 3.17  67 3.17
  88  0.975  0.750  0.507-  66 3.14  68 3.14
  89  0.216  0.470  0.461-  66 3.10  65 3.27
  90  0.716  0.530  0.461-  65 3.10  66 3.27
  91  0.216  0.030  0.461-  68 3.10  67 3.27
  92  0.716  0.970  0.461-  67 3.10  68 3.27
  93  0.216  0.470  0.961-  70 3.10  69 3.27
  94  0.716  0.530  0.961-  69 3.10  70 3.27
  95  0.216  0.030  0.961-  72 3.10  71 3.27
  96  0.716  0.970  0.961-  71 3.10  72 3.27
 
  LATTYP: Found a triclinic cell.
 ALAT       =    17.8238589327
 B/A-ratio  =     0.6989248630
 C/A-ratio  =     1.0156975818
 COS(alpha) =     0.0001355172
 COS(beta)  =     0.5146378593
 COS(gamma) =     0.6988877578
  
  Lattice vectors:
  
 A1 = (  -0.1406063366, -12.4576271275, -12.7466742118)
 A2 = (  -0.0011956322, -12.4575380825,   0.0007464135)
 A3 = ( -12.7162481321,  -0.0020049566, -12.8856194186)


Analysis of symmetry for initial positions (statically):
=====================================================================
 Subroutine PRICEL returns following result:
 
  LATTYP: Found a triclinic cell.
 ALAT       =     8.8502626515
 B/A-ratio  =     1.4075896561
 C/A-ratio  =     0.7202149489
 COS(alpha) =     0.0000518785
 COS(beta)  =     0.0156138721
 COS(gamma) =     0.7036188608
  
  Lattice vectors:
  
 A1 = (  -6.2878208978,   6.2278110854,  -0.0694726034)
 A2 = (   0.0011956322,  12.4575380825,  -0.0007464135)
 A3 = (  -0.0697053522,  -0.0000445225,  -6.3737103126)
 
   4 primitive cells build up your supercell.
 

 Routine SETGRP: Setting up the symmetry group for a 
 triclinic supercell.


 Subroutine GETGRP returns: Found  1 space group operations
 (whereof  1 operations were pure point group operations)
 out of a pool of  2 trial point group operations.


The static configuration has the point symmetry C_1 .


Analysis of symmetry for dynamics (positions and initial velocities):
=====================================================================
 Subroutine PRICEL returns following result:
 
  LATTYP: Found a triclinic cell.
 ALAT       =     8.8502626515
 B/A-ratio  =     1.4075896561
 C/A-ratio  =     0.7202149489
 COS(alpha) =     0.0000518785
 COS(beta)  =     0.0156138721
 COS(gamma) =     0.7036188608
  
  Lattice vectors:
  
 A1 = (  -6.2878208978,   6.2278110854,  -0.0694726034)
 A2 = (   0.0011956322,  12.4575380825,  -0.0007464135)
 A3 = (  -0.0697053522,  -0.0000445225,  -6.3737103126)
 
   4 primitive cells build up your supercell.
 

 Routine SETGRP: Setting up the symmetry group for a 
 triclinic supercell.


 Subroutine GETGRP returns: Found  1 space group operations
 (whereof  1 operations were pure point group operations)
 out of a pool of  2 trial point group operations.


The dynamic configuration has the point symmetry C_1 .


Analysis of structural, dynamic, and magnetic symmetry:
=====================================================================
 Subroutine PRICEL returns following result:
 
  LATTYP: Found a triclinic cell.
 ALAT       =     8.8502626515
 B/A-ratio  =     1.4075896561
 C/A-ratio  =     0.7202149489
 COS(alpha) =     0.0000518785
 COS(beta)  =     0.0156138721
 COS(gamma) =     0.7036188608
  
  Lattice vectors:
  
 A1 = (  -6.2878208978,   6.2278110854,  -0.0694726034)
 A2 = (   0.0011956322,  12.4575380825,  -0.0007464135)
 A3 = (  -0.0697053522,  -0.0000445225,  -6.3737103126)
 
   4 primitive cells build up your supercell.
 

 Routine SETGRP: Setting up the symmetry group for a 
 triclinic supercell.


 Subroutine GETGRP returns: Found  1 space group operations
 (whereof  1 operations were pure point group operations)
 out of a pool of  2 trial point group operations.


The (compounded) configuration has the point symmetry C_1 .


 Subroutine INISYM returns: Found  1 space group operations
 (whereof  1 operations are pure point group operations),
 and found     4 'primitive' translations

 
 
 KPOINTS: Automatic 3x3x3                         

Automatic generation of k-mesh.
Space group operators:
 irot       det(A)        alpha          n_x          n_y          n_z        tau_x        tau_y        tau_z
    1     1.000000     0.000000     1.000000     0.000000     0.000000     0.000000     0.000000     0.000000
 
 Subroutine IBZKPT returns following result:
 ===========================================
 
 Found     27 irreducible k-points:
 
 Following reciprocal coordinates:
            Coordinates               Weight
  0.000000  0.000000  0.000000      1.000000
  0.333333 -0.000000 -0.000000      1.000000
 -0.333333  0.000000  0.000000      1.000000
  0.000000  0.333333 -0.000000      1.000000
  0.333333  0.333333  0.000000      1.000000
 -0.333333  0.333333  0.000000      1.000000
 -0.000000 -0.333333  0.000000      1.000000
  0.333333 -0.333333 -0.000000      1.000000
 -0.333333 -0.333333 -0.000000      1.000000
  0.000000  0.000000  0.333333      1.000000
  0.333333  0.000000  0.333333      1.000000
 -0.333333  0.000000  0.333333      1.000000
  0.000000  0.333333  0.333333      1.000000
  0.333333  0.333333  0.333333      1.000000
 -0.333333  0.333333  0.333333      1.000000
  0.000000 -0.333333  0.333333      1.000000
  0.333333 -0.333333  0.333333      1.000000
 -0.333333 -0.333333  0.333333      1.000000
  0.000000  0.000000 -0.333333      1.000000
  0.333333 -0.000000 -0.333333      1.000000
 -0.333333 -0.000000 -0.333333      1.000000
 -0.000000  0.333333 -0.333333      1.000000
  0.333333  0.333333 -0.333333      1.000000
 -0.333333  0.333333 -0.333333      1.000000
 -0.000000 -0.333333 -0.333333      1.000000
  0.333333 -0.333333 -0.333333      1.000000
 -0.333333 -0.333333 -0.333333      1.000000
 
 Following cartesian coordinates:
            Coordinates               Weight
  0.000000  0.000000  0.000000      1.000000
  0.026507 -0.000003 -0.000290      1.000000
 -0.026507  0.000003  0.000290      1.000000
 -0.000004  0.026758 -0.000000      1.000000
  0.026503  0.026755 -0.000290      1.000000
 -0.026511  0.026760  0.000290      1.000000
  0.000004 -0.026758  0.000000      1.000000
  0.026511 -0.026760 -0.000290      1.000000
 -0.026503 -0.026755  0.000290      1.000000
 -0.000287  0.000002  0.026152      1.000000
  0.026220 -0.000001  0.025862      1.000000
 -0.026794  0.000004  0.026442      1.000000
 -0.000291  0.026759  0.026152      1.000000
  0.026215  0.026757  0.025862      1.000000
 -0.026798  0.026762  0.026442      1.000000
 -0.000283 -0.026756  0.026152      1.000000
  0.026224 -0.026759  0.025862      1.000000
 -0.026790 -0.026753  0.026442      1.000000
  0.000287 -0.000002 -0.026152      1.000000
  0.026794 -0.000004 -0.026442      1.000000
 -0.026220  0.000001 -0.025862      1.000000
  0.000283  0.026756 -0.026152      1.000000
  0.026790  0.026753 -0.026442      1.000000
 -0.026224  0.026759 -0.025862      1.000000
  0.000291 -0.026759 -0.026152      1.000000
  0.026798 -0.026762 -0.026442      1.000000
 -0.026215 -0.026757 -0.025862      1.000000
 


--------------------------------------------------------------------------------------------------------




 Dimension of arrays:
   k-points           NKPTS =     27   k-points in BZ     NKDIM =     27   number of bands    NBANDS=    600
   number of dos      NEDOS =    301   number of ions     NIONS =     96
   non local maximal  LDIM  =      6   non local SUM 2l+1 LMDIM =     18
   total plane-waves  NPLWV = ******
   max r-space proj   IRMAX =      1   max aug-charges    IRDMAX= 314103
   dimension x,y,z NGX =   112 NGY =  108 NGZ =  112
   dimension x,y,z NGXF=   224 NGYF=  216 NGZF=  224
   support grid    NGXF=   448 NGYF=  432 NGZF=  448
   ions per type =               8   8  48   8  24
 NGX,Y,Z   is equivalent  to a cutoff of  14.80, 14.41, 14.61 a.u.
 NGXF,Y,Z  is equivalent  to a cutoff of  29.61, 28.83, 29.21 a.u.


 I would recommend the setting:
   dimension x,y,z NGX =   109 NGY =  107 NGZ =  110
 SYSTEM =  MAPbI3-Cubic                            
 POSCAR =  C N H Pb I                              

 Startparameter for this run:
   NWRITE =      2    write-flag & timer
   PREC   = accura    normal or accurate (medium, high low for compatibility)
   ISTART =      0    job   : 0-new  1-cont  2-samecut
   ICHARG =      2    charge: 1-file 2-atom 10-const
   ISPIN  =      1    spin polarized calculation?
   LNONCOLLINEAR =      T non collinear calculations
   LSORBIT =      T    spin-orbit coupling
   INIWAV =      1    electr: 0-lowe 1-rand  2-diag
   LASPH  =      F    aspherical Exc in radial PAW
   METAGGA=      F    non-selfconsistent MetaGGA calc.

 Electronic Relaxation 1
   ENCUT  =  700.0 eV  51.45 Ry    7.17 a.u.  27.13 26.87 27.50*2*pi/ulx,y,z
   ENINI  =  700.0     initial cutoff
   ENAUG  =  644.9 eV  augmentation charge cutoff
   NELM   =     60;   NELMIN=  2; NELMDL= -5     # of ELM steps 
   EDIFF  = 0.1E-07   stopping-criterion for ELM
   LREAL  =      F    real-space projection
   NLSPLINE    = F    spline interpolate recip. space projectors
   LCOMPAT=      F    compatible to vasp.4.4
   GGA_COMPAT  = T    GGA compatible to vasp.4.4-vasp.4.6
   LMAXPAW     = -100 max onsite density
   LMAXMIX     =    2 max onsite mixed and CHGCAR
   VOSKOWN=      0    Vosko Wilk Nusair interpolation
   ROPT   =    0.00000   0.00000   0.00000   0.00000
   ROPT   =    0.00000
 Ionic relaxation
   EDIFFG = 0.1E-06   stopping-criterion for IOM
   NSW    =      0    number of steps for IOM
   NBLOCK =      1;   KBLOCK =      1    inner block; outer block 
   IBRION =     -1    ionic relax: 0-MD 1-quasi-New 2-CG
   NFREE  =      0    steps in history (QN), initial steepest desc. (CG)
   ISIF   =      2    stress and relaxation
   IWAVPR =     10    prediction:  0-non 1-charg 2-wave 3-comb
   ISYM   =      2    0-nonsym 1-usesym 2-fastsym
   LCORR  =      T    Harris-Foulkes like correction to forces

   POTIM  = 0.5000    time-step for ionic-motion
   TEIN   =    0.0    initial temperature
   TEBEG  =    0.0;   TEEND  =   0.0 temperature during run
   SMASS  =  -3.00    Nose mass-parameter (am)
   estimated Nose-frequenzy (Omega)   =  0.10E-29 period in steps =****** mass=  -0.362E-26a.u.
   SCALEE = 1.0000    scale energy and forces
   NPACO  =    256;   APACO  = 16.0  distance and # of slots for P.C.
   PSTRESS=    0.0 pullay stress

  Mass of Ions in am
   POMASS =  12.01 14.00  1.00207.20126.90
  Ionic Valenz
   ZVAL   =   4.00  5.00  1.00 14.00  7.00
  Atomic Wigner-Seitz radii
   RWIGS  =  -1.00 -1.00 -1.00 -1.00 -1.00
  virtual crystal weights 
   VCA    =   1.00  1.00  1.00  1.00  1.00
   NELECT =     400.0000    total number of electrons
   NUPDOWN=      -1.0000    fix difference up-down

 DOS related values:
   EMIN   =  10.00;   EMAX   =-10.00  energy-range for DOS
   EFERMI =   0.00
   ISMEAR =     0;   SIGMA  =   0.00  broadening in eV -4-tet -1-fermi 0-gaus

 Electronic relaxation 2 (details)
   IALGO  =     38    algorithm
   LDIAG  =      T    sub-space diagonalisation (order eigenvalues)
   LSUBROT=      F    optimize rotation matrix (better conditioning)
   TURBO    =      0    0=normal 1=particle mesh
   IRESTART =      0    0=no restart 2=restart with 2 vectors
   NREBOOT  =      0    no. of reboots
   NMIN     =      0    reboot dimension
   EREF     =   0.00    reference energy to select bands
   IMIX   =      4    mixing-type and parameters
     AMIX     =   0.40;   BMIX     =  1.00
     AMIX_MAG =   1.60;   BMIX_MAG =  1.00
     AMIN     =   0.10
     WC   =   100.;   INIMIX=   1;  MIXPRE=   1;  MAXMIX= -45

 Intra band minimization:
   WEIMIN = 0.0000     energy-eigenvalue tresh-hold
   EBREAK =  0.42E-11  absolut break condition
   DEPER  =   0.30     relativ break condition  

   TIME   =   0.40     timestep for ELM

  volume/ion in A,a.u.               =      20.80       140.38
  Fermi-wavevector in a.u.,A,eV,Ry     =   0.957863  1.810099 12.483376  0.917502
  Thomas-Fermi vector in A             =   2.086919
 
 Write flags
   LWAVE  =      F    write WAVECAR
   LCHARG =      F    write CHGCAR
   LVTOT  =      F    write LOCPOT, total local potential
   LVHAR  =      F    write LOCPOT, Hartree potential only
   LELF   =      F    write electronic localiz. function (ELF)
   LORBIT =      0    0 simple, 1 ext, 2 COOP (PROOUT)


 Dipole corrections
   LMONO  =      F    monopole corrections only (constant potential shift)
   LDIPOL =      F    correct potential (dipole corrections)
   IDIPOL =      0    1-x, 2-y, 3-z, 4-all directions 
   EPSILON=  1.0000000 bulk dielectric constant

 Core level calculations are selected ICORELEVEL =  1
 Exchange correlation treatment:
   GGA     =    PS    GGA type
   LEXCH   =    14    internal setting for exchange type
   VOSKOWN=      0    Vosko Wilk Nusair interpolation
   LHFCALC =     F    Hartree Fock is set to
   LHFONE  =     F    Hartree Fock one center treatment
   AEXX    =    0.0000 exact exchange contribution

 Linear response parameters
   LEPSILON=     F    determine dielectric tensor
   LRPA    =     F    only Hartree local field effects (RPA)
   LNABLA  =     F    use nabla operator in PAW spheres
   LVEL    =     F    velocity operator in full k-point grid
   LINTERFAST=   F  fast interpolation
   KINTER  =     0    interpolate to denser k-point grid
   CSHIFT  =0.1000    complex shift for real part using Kramers Kronig
   OMEGAMAX=  -1.0    maximum frequency
   DEG_THRESHOLD= 0.2000000E-02 threshold for treating states as degnerate
   RTIME   =    0.100 relaxation time in fs

 Orbital magnetization related:
   ORBITALMAG=     F  switch on orbital magnetization
   LCHIMAG   =     F  perturbation theory with respect to B field
   DQ        =  0.001000  dq finite difference perturbation B field



--------------------------------------------------------------------------------------------------------


 Static calculation
 charge density and potential will be updated during run
 non collinear spin polarized calculation
 Variant of blocked Davidson
 Davidson routine will perform the subspace rotation
 perform sub-space diagonalisation
    after iterative eigenvector-optimisation
 modified Broyden-mixing scheme, WC =      100.0
 initial mixing is a Kerker type mixing with AMIX =  0.4000 and BMIX =      1.0000
 Hartree-type preconditioning will be used
 using additional bands          400
 reciprocal scheme for non local part
 use partial core corrections
 calculate Harris-corrections to forces 
   (improved forces if not selfconsistent)
 use gradient corrections 
 use of overlap-Matrix (Vanderbilt PP)
 Gauss-broadening in eV      SIGMA  =   0.00


--------------------------------------------------------------------------------------------------------


  energy-cutoff  :      700.00
  volume of cell :     1996.98
      direct lattice vectors                 reciprocal lattice vectors
    12.576837428  0.001915912  0.138198793     0.079520802 -0.000007684 -0.000869670
     0.001195632 12.457538083 -0.000746413    -0.000012224  0.080272684 -0.000000427
     0.139410704  0.000089045 12.747420625    -0.000862111  0.000004784  0.078456671

  length of vectors
    12.577596840 12.457538162 12.748182927     0.079525558  0.080272685  0.078461408


 
 k-points in units of 2pi/SCALE and weight: Automatic 3x3x3                         
   0.00000000  0.00000000  0.00000000       0.037
   0.02650693 -0.00000256 -0.00028989       0.037
  -0.02650693  0.00000256  0.00028989       0.037
  -0.00000407  0.02675756 -0.00000014       0.037
   0.02650286  0.02675500 -0.00029003       0.037
  -0.02651101  0.02676012  0.00028975       0.037
   0.00000407 -0.02675756  0.00000014       0.037
   0.02651101 -0.02676012 -0.00028975       0.037
  -0.02650286 -0.02675500  0.00029003       0.037
  -0.00028737  0.00000159  0.02615222       0.037
   0.02621956 -0.00000097  0.02586233       0.037
  -0.02679430  0.00000416  0.02644211       0.037
  -0.00029144  0.02675916  0.02615208       0.037
   0.02621549  0.02675659  0.02586219       0.037
  -0.02679838  0.02676172  0.02644197       0.037
  -0.00028330 -0.02675597  0.02615237       0.037
   0.02622364 -0.02675853  0.02586248       0.037
  -0.02679023 -0.02675341  0.02644226       0.037
   0.00028737 -0.00000159 -0.02615222       0.037
   0.02679430 -0.00000416 -0.02644211       0.037
  -0.02621956  0.00000097 -0.02586233       0.037
   0.00028330  0.02675597 -0.02615237       0.037
   0.02679023  0.02675341 -0.02644226       0.037
  -0.02622364  0.02675853 -0.02586248       0.037
   0.00029144 -0.02675916 -0.02615208       0.037
   0.02679838 -0.02676172 -0.02644197       0.037
  -0.02621549 -0.02675659 -0.02586219       0.037
 
 k-points in reciprocal lattice and weights: Automatic 3x3x3                         
   0.00000000  0.00000000  0.00000000       0.037
   0.33333333 -0.00000000 -0.00000000       0.037
  -0.33333333  0.00000000  0.00000000       0.037
   0.00000000  0.33333333 -0.00000000       0.037
   0.33333333  0.33333333  0.00000000       0.037
  -0.33333333  0.33333333  0.00000000       0.037
  -0.00000000 -0.33333333  0.00000000       0.037
   0.33333333 -0.33333333 -0.00000000       0.037
  -0.33333333 -0.33333333 -0.00000000       0.037
   0.00000000  0.00000000  0.33333333       0.037
   0.33333333  0.00000000  0.33333333       0.037
  -0.33333333  0.00000000  0.33333333       0.037
   0.00000000  0.33333333  0.33333333       0.037
   0.33333333  0.33333333  0.33333333       0.037
  -0.33333333  0.33333333  0.33333333       0.037
   0.00000000 -0.33333333  0.33333333       0.037
   0.33333333 -0.33333333  0.33333333       0.037
  -0.33333333 -0.33333333  0.33333333       0.037
   0.00000000  0.00000000 -0.33333333       0.037
   0.33333333 -0.00000000 -0.33333333       0.037
  -0.33333333 -0.00000000 -0.33333333       0.037
  -0.00000000  0.33333333 -0.33333333       0.037
   0.33333333  0.33333333 -0.33333333       0.037
  -0.33333333  0.33333333 -0.33333333       0.037
  -0.00000000 -0.33333333 -0.33333333       0.037
   0.33333333 -0.33333333 -0.33333333       0.037
  -0.33333333 -0.33333333 -0.33333333       0.037
 
 position of ions in fractional coordinates (direct lattice) 
   0.20494730  0.24994144  0.21652848
   0.68904096  0.24987511  0.24130223
   0.18904096  0.74987511  0.24130223
   0.70494730  0.74994144  0.21652848
   0.20494730  0.24994144  0.71652848
   0.68904096  0.24987511  0.74130223
   0.18904096  0.74987511  0.74130223
   0.70494730  0.74994144  0.71652848
   0.30672586  0.25002880  0.27458494
   0.80234858  0.24997848  0.27318365
   0.30234858  0.74997848  0.27318365
   0.80672586  0.75002880  0.27458494
   0.30672586  0.25002880  0.77458494
   0.80234858  0.24997848  0.77318365
   0.30234858  0.74997848  0.77318365
   0.80672586  0.75002880  0.77458494
   0.22378896  0.24982004  0.13125429
   0.68636138  0.24982215  0.15452296
   0.18636138  0.74982215  0.15452296
   0.72378896  0.74982004  0.13125429
   0.22378896  0.24982004  0.63125429
   0.68636138  0.24982215  0.65452296
   0.18636138  0.74982215  0.65452296
   0.72378896  0.74982004  0.63125429
   0.15930881  0.32247591  0.23815995
   0.64936680  0.32222846  0.27287069
   0.14936680  0.82222846  0.27287069
   0.65930881  0.82247591  0.23815995
   0.15930881  0.32247591  0.73815995
   0.64936680  0.32222846  0.77287069
   0.14936680  0.82222846  0.77287069
   0.65930881  0.82247591  0.73815995
   0.15936335  0.17745708  0.23835398
   0.64952232  0.17749507  0.27294744
   0.14952232  0.67749507  0.27294744
   0.65936335  0.67745708  0.23835398
   0.15936335  0.17745708  0.73835398
   0.64952232  0.17749507  0.77294744
   0.14952232  0.67749507  0.77294744
   0.65936335  0.67745708  0.73835398
   0.35284146  0.31813953  0.25666989
   0.84342770  0.31760904  0.24484309
   0.34342770  0.81760904  0.24484309
   0.85284146  0.81813953  0.25666989
   0.35284146  0.31813953  0.75666989
   0.84342770  0.31760904  0.74484309
   0.34342770  0.81760904  0.74484309
   0.85284146  0.81813953  0.75666989
   0.35286314  0.18185105  0.25686546
   0.84354746  0.18235873  0.24491634
   0.34354746  0.68235873  0.24491634
   0.85286314  0.68185105  0.25686546
   0.35286314  0.18185105  0.75686546
   0.84354746  0.18235873  0.74491634
   0.34354746  0.68235873  0.74491634
   0.85286314  0.68185105  0.75686546
   0.29423872  0.25016227  0.35596358
   0.81210142  0.25002477  0.35525491
   0.31210142  0.75002477  0.35525491
   0.79423872  0.75016227  0.35596358
   0.29423872  0.25016227  0.85596358
   0.81210142  0.25002477  0.85525491
   0.31210142  0.75002477  0.85525491
   0.79423872  0.75016227  0.85596358
   0.47244875  0.50128669  0.48880972
   0.97243480  0.49869290  0.48881318
   0.47243480  0.99869290  0.48881318
   0.97244875  0.00128669  0.48880972
   0.47244875  0.50128669  0.98880972
   0.97243480  0.49869290  0.98881318
   0.47243480  0.99869290  0.98881318
   0.97244875  0.00128669  0.98880972
   0.45476300  0.50068160  0.23756863
   0.95472435  0.49930050  0.23757685
   0.45472435  0.99930050  0.23757685
   0.95476300  0.00068160  0.23756863
   0.45476300  0.50068160  0.73756863
   0.95472435  0.49930050  0.73757685
   0.45472435  0.99930050  0.73757685
   0.95476300  0.00068160  0.73756863
   0.47461784  0.24997408  0.00713745
   0.92465304  0.24998395  0.01652699
   0.42465304  0.74998395  0.01652699
   0.97461784  0.74997408  0.00713745
   0.47461784  0.24997408  0.50713745
   0.92465304  0.24998395  0.51652699
   0.42465304  0.74998395  0.51652699
   0.97461784  0.74997408  0.50713745
   0.21617747  0.47017927  0.46123970
   0.71616541  0.52981560  0.46123971
   0.21616541  0.02981560  0.46123971
   0.71617747  0.97017927  0.46123970
   0.21617747  0.47017927  0.96123970
   0.71616541  0.52981560  0.96123971
   0.21616541  0.02981560  0.96123971
   0.71617747  0.97017927  0.96123970
 
 position of ions in cartesian coordinates  (Angst):
   2.60807414  3.11406693  2.78831655
   8.69989503  3.11417035  3.17101910
   2.41207413  9.34198143  3.10154649
   8.89709067  9.34379393  2.85704274
   2.67777949  3.11411145  9.16202687
   8.76960038  3.11421487  9.54472941
   2.48177948  9.34202596  9.47525681
   8.96679602  9.34383845  9.23075305
   3.89622027  3.11535542  3.54245224
  10.12939126  3.11567800  3.59308396
   3.84157036  9.34348908  3.52361136
  10.18523680  9.34508241  3.61117843
   3.96592563  3.11539994  9.91616255
  10.19909661  3.11572252  9.96679427
   3.91127571  9.34353360  9.89732167
  10.25494216  9.34512694  9.98488874
   2.83315427  3.11258313  1.70389457
   8.65409631  3.11349772  2.06443701
   2.36627542  9.34130881  1.99496440
   9.12217080  9.34231013  1.77262076
   2.90285963  3.11262766  8.07760488
   8.72380167  3.11354225  8.43814732
   2.43598077  9.34135333  8.36867472
   9.19187616  9.34235465  8.14633107
   2.03718861  4.01758236  3.05770062
   8.20540708  4.01544177  3.56789866
   1.91758619 10.24325286  3.49842605
   8.32620514 10.24730936  3.12642681
   2.10689396  4.01762689  9.43141094
   8.27511244  4.01548630  9.94160897
   1.98729154 10.24329738  9.87213637
   8.39591049 10.24735388  9.50013713
   2.03772817  2.21100486  3.06028976
   8.20720065  2.21242031  3.56900650
   1.91937975  8.44023140  3.49953390
   8.32674470  8.44073186  3.12901595
   2.10743352  2.21104938  9.43400008
   8.27690600  2.21246483  9.94271682
   1.98908510  8.44027592  9.87324421
   8.39645005  8.44077638  9.50272627
   4.47379255  3.96393412  3.32040384
  10.64216653  3.95826445  3.23744151
   4.35434563 10.18607554  3.16796891
  10.76280908 10.19366112  3.38913003
   4.54349790  3.96397864  9.69411415
  10.71187188  3.95830898  9.61115183
   4.42405098 10.18612006  9.54167922
  10.83251443 10.19370564  9.76284034
   4.47392961  2.26611530  3.32300159
  10.64352122  2.27337874  3.23849272
   4.35570033  8.50118982  3.16902012
  10.76294614  8.49584230  3.39172778
   4.54363496  2.26615982  9.69671190
  10.71322658  2.27342326  9.61220303
   4.42540568  8.50123435  9.54273043
  10.83265149  8.49588682  9.76543809
   3.75051682  3.11700148  4.57809418
  10.26349285  3.11628064  4.64062859
   3.97567195  9.34409173  4.57115599
  10.03953335  9.34672848  4.64682037
   3.82022217  3.11704600 10.95180449
  10.33319820  3.11632517 11.01433890
   4.04537730  9.34413625 10.94486630
  10.10923870  9.34677300 11.02053068
   6.01065576  6.24574676  6.29598076
  12.29889648  6.21439238  6.36512424
   6.01107558 12.44220347  6.29565164
  12.29847666  0.01793568  6.36545337
   6.08036111  6.24579128 12.66969108
  12.36860183  6.21443690 12.73883456
   6.08078093 12.44224799 12.66936195
  12.36818201  0.01798020 12.73916368
   5.75319856  6.23815255  3.09086126
  12.04113066  6.22190529  3.16006113
   5.75330976 12.44971638  3.09058853
  12.04101946  0.01034146  3.16033387
   5.82290391  6.23819707  9.46457157
  12.11083601  6.22194982  9.53377144
   5.82301511 12.44976090  9.46429884
  12.11072481  0.01038599  9.53404418
   5.97048536  3.11497153  0.15638905
  11.63181385  3.11595755  0.33827583
   5.34399295  9.34376863  0.26880323
  12.25950189  9.34469852  0.22511524
   6.04019071  3.11501605  6.53009937
  11.70151920  3.11600207  6.71198614
   5.41369830  9.34381315  6.64251354
  12.32920724  9.34474305  6.59882556
   2.78369279  5.85773141  5.90914095
   9.07203112  6.60161123  5.97819428
   2.78301459  0.37188423  5.90946809
   9.07270932 12.08745840  5.97786714
   2.85339815  5.85777593 12.28285126
   9.14173648  6.60165575 12.35190459
   2.85271995  0.37192876 12.28317840
   9.14241468 12.08750293 12.35157745
 
 Euler angles ALPHA=     0.0000000  BETA=     0.0000000

 transformation matrix from SAXIS to cartesian coordinates
 ---------------------------------------------------------
     1.0000000 m_x     0.0000000 m_y     0.0000000 m_z
     0.0000000 m_x     1.0000000 m_y     0.0000000 m_z
     0.0000000 m_x     0.0000000 m_y     1.0000000 m_z

 transformation matrix from cartesian coordinates to SAXIS
 ---------------------------------------------------------
     1.0000000 m_x     0.0000000 m_y     0.0000000 m_z
     0.0000000 m_x     1.0000000 m_y     0.0000000 m_z
     0.0000000 m_x     0.0000000 m_y     1.0000000 m_z




--------------------------------------------------------------------------------------------------------


 k-point  1 :   0.0000 0.0000 0.0000  plane waves:  168014
 k-point  2 :   0.3333-0.0000-0.0000  plane waves:  168006
 k-point  3 :  -0.3333 0.0000 0.0000  plane waves:  168006
 k-point  4 :   0.0000 0.3333-0.0000  plane waves:  167990
 k-point  5 :   0.3333 0.3333 0.0000  plane waves:  168036
 k-point  6 :  -0.3333 0.3333 0.0000  plane waves:  168038
 k-point  7 :  -0.0000-0.3333 0.0000  plane waves:  167990
 k-point  8 :   0.3333-0.3333-0.0000  plane waves:  168038
 k-point  9 :  -0.3333-0.3333-0.0000  plane waves:  168036
 k-point 10 :   0.0000 0.0000 0.3333  plane waves:  167920
 k-point 11 :   0.3333 0.0000 0.3333  plane waves:  167874
 k-point 12 :  -0.3333 0.0000 0.3333  plane waves:  167964
 k-point 13 :   0.0000 0.3333 0.3333  plane waves:  167968
 k-point 14 :   0.3333 0.3333 0.3333  plane waves:  168024
 k-point 15 :  -0.3333 0.3333 0.3333  plane waves:  167940
 k-point 16 :   0.0000-0.3333 0.3333  plane waves:  167954
 k-point 17 :   0.3333-0.3333 0.3333  plane waves:  168026
 k-point 18 :  -0.3333-0.3333 0.3333  plane waves:  167946
 k-point 19 :   0.0000 0.0000-0.3333  plane waves:  167920
 k-point 20 :   0.3333-0.0000-0.3333  plane waves:  167964
 k-point 21 :  -0.3333-0.0000-0.3333  plane waves:  167874
 k-point 22 :  -0.0000 0.3333-0.3333  plane waves:  167954
 k-point 23 :   0.3333 0.3333-0.3333  plane waves:  167946
 k-point 24 :  -0.3333 0.3333-0.3333  plane waves:  168026
 k-point 25 :  -0.0000-0.3333-0.3333  plane waves:  167968
 k-point 26 :   0.3333-0.3333-0.3333  plane waves:  167940
 k-point 27 :  -0.3333-0.3333-0.3333  plane waves:  168024

 maximum and minimum number of plane-waves per node :      7122     6820

 maximum number of plane-waves:    168038
 maximum index in each direction: 
   IXMAX=   27   IYMAX=   27   IZMAX=   27
   IXMIN=  -27   IYMIN=  -27   IZMIN=  -27

 NGX is ok and might be reduce to 110
 WARNING: aliasing errors must be expected set NGY to 110 to avoid them
 NGZ is ok and might be reduce to 110
 aliasing errors are usually negligible using standard VASP settings
 and one can safely disregard these warnings

 parallel 3D FFT for wavefunctions:
    minimum data exchange during FFTs selected (reduces bandwidth)
 parallel 3D FFT for charge:
    minimum data exchange during FFTs selected (reduces bandwidth)


 total amount of memory used by VASP on root node   392927. kBytes
========================================================================

   base      :      30000. kBytes
   nonl-proj :      73667. kBytes
   fftplans  :      22714. kBytes
   grid      :      35610. kBytes
   one-center:        248. kBytes
   wavefun   :     230688. kBytes
 
     INWAV:  cpu time    0.0000: real time    0.0000
 Broyden mixing: mesh for mixing (old mesh)
   NGX = 55   NGY = 53   NGZ = 55
  (NGX  =224   NGY  =216   NGZ  =224)
  gives a total of 160325 points

 initial charge density was supplied:
 charge density of overlapping atoms calculated
 number of electron     400.0000000 magnetization      96.0000000     96.0000000     96.0000000
 keeping initial charge density in first step


--------------------------------------------------------------------------------------------------------


 Maximum index for augmentation-charges         5392 (set IRDMAX)


--------------------------------------------------------------------------------------------------------


 First call to EWALD:  gamma=   0.141
 Maximum number of real-space cells 3x 3x 3
 Maximum number of reciprocal cells 3x 3x 3

 FEWALD executed in parallel
    FEWALD:  cpu time    0.0040: real time    0.0042


----------------------------------------- Iteration    1(   1)  ---------------------------------------


    POTLOK:  cpu time    0.6120: real time    0.6118
    SETDIJ:  cpu time    2.1521: real time    2.1531
     EDDAV:  cpu time  242.2671: real time  242.4222
       DOS:  cpu time    0.0080: real time    0.0092
    --------------------------------------------
      LOOP:  cpu time  245.0393: real time  245.6564

 eigenvalue-minimisations  : 32544
 total energy-change (2. order) : 0.4222186E+04  (-0.1928840E+05)
 number of electron     400.0000000 magnetization      96.0000000     96.0000000     96.0000000
 augmentation part      400.0000000 magnetization      96.0000000     96.0000000     96.0000000

 Free energy of the ion-electron system (eV)
  ---------------------------------------------------
  alpha Z        PSCENC =       370.05370877
  Ewald energy   TEWEN  =    -15558.77624044
  -Hartree energ DENC   =     -8097.86672376
  -exchange      EXHF   =         0.00000000
  -V(xc)+E(xc)   XCENC  =       672.30801169
  PAW double counting   =     20172.90621935   -19413.33347658
  entropy T*S    EENTRO =        -0.00001549
  eigenvalues    EBANDS =      1327.88760509
  atomic energy  EATOM  =     24749.00668030
  Solvation  Ediel_sol  =         0.00000000
  ---------------------------------------------------
  free energy    TOTEN  =      4222.18576892 eV

  energy without entropy =     4222.18578441  energy(sigma->0) =     4222.18577667


--------------------------------------------------------------------------------------------------------




----------------------------------------- Iteration    1(   2)  ---------------------------------------


     EDDAV:  cpu time  259.1762: real time  259.3476
       DOS:  cpu time    0.0040: real time    0.0065
    --------------------------------------------
      LOOP:  cpu time  259.1842: real time  259.7204

 eigenvalue-minimisations  : 35624
 total energy-change (2. order) :-0.3380073E+04  (-0.3130027E+04)
 number of electron     400.0000000 magnetization      96.0000000     96.0000000     96.0000000
 augmentation part      400.0000000 magnetization      96.0000000     96.0000000     96.0000000

 Free energy of the ion-electron system (eV)
  ---------------------------------------------------
  alpha Z        PSCENC =       370.05370877
  Ewald energy   TEWEN  =    -15558.77624044
  -Hartree energ DENC   =     -8097.86672376
  -exchange      EXHF   =         0.00000000
  -V(xc)+E(xc)   XCENC  =       672.30801169
  PAW double counting   =     20172.90621935   -19413.33347658
  entropy T*S    EENTRO =        -0.00000714
  eigenvalues    EBANDS =     -2052.18538301
  atomic energy  EATOM  =     24749.00668030
  Solvation  Ediel_sol  =         0.00000000
  ---------------------------------------------------
  free energy    TOTEN  =       842.11278917 eV

  energy without entropy =      842.11279631  energy(sigma->0) =      842.11279274


--------------------------------------------------------------------------------------------------------




----------------------------------------- Iteration    1(   3)  ---------------------------------------


     EDDAV:  cpu time  305.0191: real time  305.2172
       DOS:  cpu time    0.0080: real time    0.0074
    --------------------------------------------
      LOOP:  cpu time  305.0311: real time  320.7299

 eigenvalue-minimisations  : 43912
 total energy-change (2. order) :-0.6085391E+03  (-0.5883895E+03)
 number of electron     400.0000000 magnetization      96.0000000     96.0000000     96.0000000
 augmentation part      400.0000000 magnetization      96.0000000     96.0000000     96.0000000

 Free energy of the ion-electron system (eV)
  ---------------------------------------------------
  alpha Z        PSCENC =       370.05370877
  Ewald energy   TEWEN  =    -15558.77624044
  -Hartree energ DENC   =     -8097.86672376
  -exchange      EXHF   =         0.00000000
  -V(xc)+E(xc)   XCENC  =       672.30801169
  PAW double counting   =     20172.90621935   -19413.33347658
  entropy T*S    EENTRO =        -0.00003415
  eigenvalues    EBANDS =     -2660.72443315
  atomic energy  EATOM  =     24749.00668030
  Solvation  Ediel_sol  =         0.00000000
  ---------------------------------------------------
  free energy    TOTEN  =       233.57371202 eV

  energy without entropy =      233.57374617  energy(sigma->0) =      233.57372909


--------------------------------------------------------------------------------------------------------




----------------------------------------- Iteration    1(   4)  ---------------------------------------


     EDDAV:  cpu time  305.8271: real time  306.0248
       DOS:  cpu time    0.0080: real time    0.0077
    --------------------------------------------
      LOOP:  cpu time  305.8391: real time  306.1637

 eigenvalue-minimisations  : 44080
 total energy-change (2. order) :-0.4569914E+02  (-0.4465660E+02)
 number of electron     400.0000000 magnetization      96.0000000     96.0000000     96.0000000
 augmentation part      400.0000000 magnetization      96.0000000     96.0000000     96.0000000

 Free energy of the ion-electron system (eV)
  ---------------------------------------------------
  alpha Z        PSCENC =       370.05370877
  Ewald energy   TEWEN  =    -15558.77624044
  -Hartree energ DENC   =     -8097.86672376
  -exchange      EXHF   =         0.00000000
  -V(xc)+E(xc)   XCENC  =       672.30801169
  PAW double counting   =     20172.90621935   -19413.33347658
  entropy T*S    EENTRO =        -0.00024887
  eigenvalues    EBANDS =     -2706.42335434
  atomic energy  EATOM  =     24749.00668030
  Solvation  Ediel_sol  =         0.00000000
  ---------------------------------------------------
  free energy    TOTEN  =       187.87457612 eV

  energy without entropy =      187.87482499  energy(sigma->0) =      187.87470055


--------------------------------------------------------------------------------------------------------




----------------------------------------- Iteration    1(   5)  ---------------------------------------


     EDDAV:  cpu time  339.8452: real time  340.0659
       DOS:  cpu time    0.0080: real time    0.0077
    CHARGE:  cpu time   11.7727: real time   11.7812
    MIXING:  cpu time    0.0160: real time    0.0166
    --------------------------------------------
      LOOP:  cpu time  351.6420: real time  352.2956

 eigenvalue-minimisations  : 50416
 total energy-change (2. order) :-0.2216182E+01  (-0.2203043E+01)
 number of electron     399.9999999 magnetization      67.1317246     67.1363524     67.1330255
 augmentation part        6.9625158 magnetization      63.4008419     63.3883790     63.3972192

 Broyden mixing:
  rms(total) = 0.97483E+01    rms(broyden)= 0.97482E+01
  rms(prec ) = 0.10237E+02
  weight for this iteration     100.00

 Free energy of the ion-electron system (eV)
  ---------------------------------------------------
  alpha Z        PSCENC =       370.05370877
  Ewald energy   TEWEN  =    -15558.77624044
  -Hartree energ DENC   =     -8097.86672376
  -exchange      EXHF   =         0.00000000
  -V(xc)+E(xc)   XCENC  =       672.30801169
  PAW double counting   =     20172.90621935   -19413.33347658
  entropy T*S    EENTRO =        -0.00028772
  eigenvalues    EBANDS =     -2708.63949700
  atomic energy  EATOM  =     24749.00668030
  Solvation  Ediel_sol  =         0.00000000
  ---------------------------------------------------
  free energy    TOTEN  =       185.65839460 eV

  energy without entropy =      185.65868232  energy(sigma->0) =      185.65853846


--------------------------------------------------------------------------------------------------------




----------------------------------------- Iteration    1(   6)  ---------------------------------------


    POTLOK:  cpu time    0.6440: real time    0.6461
    SETDIJ:  cpu time    2.1681: real time    2.1686
     EDDAV:  cpu time  268.4728: real time  268.6479
       DOS:  cpu time    0.0080: real time    0.0075
    CHARGE:  cpu time   11.9367: real time   11.9475
    MIXING:  cpu time    0.0160: real time    0.0162
    --------------------------------------------
      LOOP:  cpu time  283.2537: real time  283.6863

 eigenvalue-minimisations  : 37304
 total energy-change (2. order) :-0.1306638E+03  (-0.1530458E+03)
 number of electron     399.9999999 magnetization      50.1662699     50.1673926     50.1672357
 augmentation part        5.9865604 magnetization      51.0141734     51.0241210     51.0142582

 Broyden mixing:
  rms(total) = 0.47998E+01    rms(broyden)= 0.47997E+01
  rms(prec ) = 0.49814E+01
  weight for this iteration     100.00

 eigenvalues of (default mixing * dielectric matrix)
  average eigenvalue GAMMA=   0.7645
  0.7645

 Free energy of the ion-electron system (eV)
  ---------------------------------------------------
  alpha Z        PSCENC =       370.05370877
  Ewald energy   TEWEN  =    -15558.77624044
  -Hartree energ DENC   =     -8452.20614757
  -exchange      EXHF   =         0.00000000
  -V(xc)+E(xc)   XCENC  =       689.61115633
  PAW double counting   =     24161.61073392   -23424.58044385
  entropy T*S    EENTRO =        -0.00000001
  eigenvalues    EBANDS =     -2479.72480717
  atomic energy  EATOM  =     24749.00668030
  Solvation  Ediel_sol  =         0.00000000
  ---------------------------------------------------
  free energy    TOTEN  =        54.99464029 eV

  energy without entropy =       54.99464029  energy(sigma->0) =       54.99464029


--------------------------------------------------------------------------------------------------------




----------------------------------------- Iteration    1(   7)  ---------------------------------------


    POTLOK:  cpu time    0.6680: real time    0.6667
    SETDIJ:  cpu time    2.2001: real time    2.2039
     EDDAV:  cpu time  280.3615: real time  280.5436
       DOS:  cpu time    0.0080: real time    0.0076
    CHARGE:  cpu time   11.9807: real time   11.9863
    MIXING:  cpu time    0.0160: real time    0.0166
    --------------------------------------------
      LOOP:  cpu time  295.2345: real time  295.4537

 eigenvalue-minimisations  : 39320
 total energy-change (2. order) :-0.1497798E+03  (-0.1608727E+02)
 number of electron     399.9999999 magnetization      34.1785456     34.1761449     34.1805486
 augmentation part        5.6015646 magnetization      35.1911109     35.2005861     35.1858272

 Broyden mixing:
  rms(total) = 0.28168E+01    rms(broyden)= 0.28167E+01
  rms(prec ) = 0.29676E+01
  weight for this iteration     100.00

 eigenvalues of (default mixing * dielectric matrix)
  average eigenvalue GAMMA=   0.8419
  0.8419  0.8419

 Free energy of the ion-electron system (eV)
  ---------------------------------------------------
  alpha Z        PSCENC =       370.05370877
  Ewald energy   TEWEN  =    -15558.77624044
  -Hartree energ DENC   =     -8501.38672387
  -exchange      EXHF   =         0.00000000
  -V(xc)+E(xc)   XCENC  =       590.97310230
  PAW double counting   =     26615.24126118   -25878.21127193
  entropy T*S    EENTRO =        -0.00001728
  eigenvalues    EBANDS =     -2481.68569432
  atomic energy  EATOM  =     24749.00668030
  Solvation  Ediel_sol  =         0.00000000
  ---------------------------------------------------
  free energy    TOTEN  =       -94.78519528 eV

  energy without entropy =      -94.78517800  energy(sigma->0) =      -94.78518664


--------------------------------------------------------------------------------------------------------




----------------------------------------- Iteration    1(   8)  ---------------------------------------


    POTLOK:  cpu time    0.6080: real time    0.6060
    SETDIJ:  cpu time    2.1481: real time    2.1508
     EDDAV:  cpu time  268.6248: real time  268.8033
       DOS:  cpu time    0.0040: real time    0.0043
    CHARGE:  cpu time   11.9567: real time   11.9667
    MIXING:  cpu time    0.0160: real time    0.0166
    --------------------------------------------
      LOOP:  cpu time  283.3617: real time  283.5781

 eigenvalue-minimisations  : 37176
 total energy-change (2. order) :-0.1085396E+03  (-0.6485940E+01)
 number of electron     400.0000000 magnetization      15.8099185     15.8010938     15.8095868
 augmentation part        6.6659729 magnetization      16.9860513     16.9932529     16.9908663

 Broyden mixing:
  rms(total) = 0.18258E+01    rms(broyden)= 0.18257E+01
  rms(prec ) = 0.18799E+01
  weight for this iteration     100.00

 eigenvalues of (default mixing * dielectric matrix)
  average eigenvalue GAMMA=   1.0100
  1.4289  0.9719  0.6292

 Free energy of the ion-electron system (eV)
  ---------------------------------------------------
  alpha Z        PSCENC =       370.05370877
  Ewald energy   TEWEN  =    -15558.77624044
  -Hartree energ DENC   =     -8534.69256456
  -exchange      EXHF   =         0.00000000
  -V(xc)+E(xc)   XCENC  =       528.05297019
  PAW double counting   =     28586.95286324   -27851.95277509
  entropy T*S    EENTRO =        -0.00000000
  eigenvalues    EBANDS =     -2491.96945228
  atomic energy  EATOM  =     24749.00668030
  Solvation  Ediel_sol  =         0.00000000
  ---------------------------------------------------
  free energy    TOTEN  =      -203.32480986 eV

  energy without entropy =     -203.32480986  energy(sigma->0) =     -203.32480986


--------------------------------------------------------------------------------------------------------




----------------------------------------- Iteration    1(   9)  ---------------------------------------


    POTLOK:  cpu time    0.6120: real time    0.6144
    SETDIJ:  cpu time    2.3041: real time    2.3019
     EDDAV:  cpu time  264.1805: real time  264.3590
       DOS:  cpu time    0.0040: real time    0.0032
    CHARGE:  cpu time   11.9647: real time   11.9729
    MIXING:  cpu time    0.0200: real time    0.0178
    --------------------------------------------
      LOOP:  cpu time  279.0894: real time  279.2893

 eigenvalue-minimisations  : 36472
 total energy-change (2. order) :-0.1304487E+03  (-0.1202309E+02)
 number of electron     400.0000000 magnetization      10.2552978     10.2445781     10.2518584
 augmentation part        7.9159783 magnetization      11.0726347     11.0812672     11.0831696

 Broyden mixing:
  rms(total) = 0.91043E+00    rms(broyden)= 0.91041E+00
  rms(prec ) = 0.96186E+00
  weight for this iteration     100.00

 eigenvalues of (default mixing * dielectric matrix)
  average eigenvalue GAMMA=   1.0826
  1.8355  1.1044  0.6953  0.6953

 Free energy of the ion-electron system (eV)
  ---------------------------------------------------
  alpha Z        PSCENC =       370.05370877
  Ewald energy   TEWEN  =    -15558.77624044
  -Hartree energ DENC   =     -8564.81885883
  -exchange      EXHF   =         0.00000000
  -V(xc)+E(xc)   XCENC  =       463.07259784
  PAW double counting   =     30604.10087233   -29870.07500027
  entropy T*S    EENTRO =         0.00000000
  eigenvalues    EBANDS =     -2526.33726173
  atomic energy  EATOM  =     24749.00668030
  Solvation  Ediel_sol  =         0.00000000
  ---------------------------------------------------
  free energy    TOTEN  =      -333.77350204 eV

  energy without entropy =     -333.77350204  energy(sigma->0) =     -333.77350204


--------------------------------------------------------------------------------------------------------




----------------------------------------- Iteration    1(  10)  ---------------------------------------


    POTLOK:  cpu time    0.6080: real time    0.6085
    SETDIJ:  cpu time    2.1881: real time    2.1896
     EDDAV:  cpu time  269.9169: real time  270.0954
       DOS:  cpu time    0.0040: real time    0.0046
    CHARGE:  cpu time   11.9447: real time   11.9520
    MIXING:  cpu time    0.0200: real time    0.0178
    --------------------------------------------
      LOOP:  cpu time  284.6818: real time  284.9295

 eigenvalue-minimisations  : 37624
 total energy-change (2. order) :-0.4876958E+02  (-0.5060708E+01)
 number of electron     400.0000000 magnetization       6.3487954      6.3404150      6.3447638
 augmentation part        8.2274361 magnetization       6.8703748      6.8692135      6.8727732

 Broyden mixing:
  rms(total) = 0.66540E+00    rms(broyden)= 0.66539E+00
  rms(prec ) = 0.74126E+00
  weight for this iteration     100.00

 eigenvalues of (default mixing * dielectric matrix)
  average eigenvalue GAMMA=   1.1375
  1.7066  1.7066  0.8309  0.8309  0.6125

 Free energy of the ion-electron system (eV)
  ---------------------------------------------------
  alpha Z        PSCENC =       370.05370877
  Ewald energy   TEWEN  =    -15558.77624044
  -Hartree energ DENC   =     -8551.50061407
  -exchange      EXHF   =         0.00000000
  -V(xc)+E(xc)   XCENC  =       442.15054726
  PAW double counting   =     30951.08039324   -30215.49508979
  entropy T*S    EENTRO =        -0.00000000
  eigenvalues    EBANDS =     -2569.06246304
  atomic energy  EATOM  =     24749.00668030
  Solvation  Ediel_sol  =         0.00000000
  ---------------------------------------------------
  free energy    TOTEN  =      -382.54307778 eV

  energy without entropy =     -382.54307778  energy(sigma->0) =     -382.54307778


--------------------------------------------------------------------------------------------------------




----------------------------------------- Iteration    1(  11)  ---------------------------------------


    POTLOK:  cpu time    0.6040: real time    0.6034
    SETDIJ:  cpu time    2.1681: real time    2.1702
     EDDAV:  cpu time  272.8331: real time  273.0095
       DOS:  cpu time    0.0040: real time    0.0052
    CHARGE:  cpu time   12.0288: real time   12.0361
    MIXING:  cpu time    0.0160: real time    0.0176
    --------------------------------------------
      LOOP:  cpu time  287.6540: real time  287.8847

 eigenvalue-minimisations  : 38224
 total energy-change (2. order) :-0.2770107E+02  (-0.3799162E+01)
 number of electron     400.0000000 magnetization       3.1916726      3.1862502      3.1886903
 augmentation part        8.0931404 magnetization       3.4134011      3.4099814      3.4116778

 Broyden mixing:
  rms(total) = 0.38394E+00    rms(broyden)= 0.38394E+00
  rms(prec ) = 0.43969E+00
  weight for this iteration     100.00

 eigenvalues of (default mixing * dielectric matrix)
  average eigenvalue GAMMA=   1.2111
  2.0642  2.0642  0.9494  0.9494  0.6610  0.5787

 Free energy of the ion-electron system (eV)
  ---------------------------------------------------
  alpha Z        PSCENC =       370.05370877
  Ewald energy   TEWEN  =    -15558.77624044
  -Hartree energ DENC   =     -8499.14299741
  -exchange      EXHF   =         0.00000000
  -V(xc)+E(xc)   XCENC  =       428.25002320
  PAW double counting   =     30888.53982167   -30149.61078421
  entropy T*S    EENTRO =         0.00000000
  eigenvalues    EBANDS =     -2638.56436264
  atomic energy  EATOM  =     24749.00668030
  Solvation  Ediel_sol  =         0.00000000
  ---------------------------------------------------
  free energy    TOTEN  =      -410.24415076 eV

  energy without entropy =     -410.24415076  energy(sigma->0) =     -410.24415076


--------------------------------------------------------------------------------------------------------




----------------------------------------- Iteration    1(  12)  ---------------------------------------


    POTLOK:  cpu time    0.6040: real time    0.6060
    SETDIJ:  cpu time    2.1681: real time    2.1663
     EDDAV:  cpu time  281.5296: real time  281.7156
       DOS:  cpu time    0.0040: real time    0.0046
    CHARGE:  cpu time   12.0088: real time   12.0179
    MIXING:  cpu time    0.0200: real time    0.0175
    --------------------------------------------
      LOOP:  cpu time  296.3385: real time  296.5561

 eigenvalue-minimisations  : 39848
 total energy-change (2. order) :-0.1065090E+02  (-0.1598770E+01)
 number of electron     400.0000000 magnetization       2.4638674      2.4594607      2.4615778
 augmentation part        7.8853084 magnetization       2.5302107      2.5259625      2.5274890

 Broyden mixing:
  rms(total) = 0.25004E+00    rms(broyden)= 0.25004E+00
  rms(prec ) = 0.28766E+00
  weight for this iteration     100.00

 eigenvalues of (default mixing * dielectric matrix)
  average eigenvalue GAMMA=   1.1591
  2.0683  2.0683  1.0019  1.0019  0.6877  0.6877  0.5979

 Free energy of the ion-electron system (eV)
  ---------------------------------------------------
  alpha Z        PSCENC =       370.05370877
  Ewald energy   TEWEN  =    -15558.77624044
  -Hartree energ DENC   =     -8451.29732369
  -exchange      EXHF   =         0.00000000
  -V(xc)+E(xc)   XCENC  =       421.72493948
  PAW double counting   =     30724.78949035   -29983.12559406
  entropy T*S    EENTRO =         0.00000000
  eigenvalues    EBANDS =     -2693.27070838
  atomic energy  EATOM  =     24749.00668030
  Solvation  Ediel_sol  =         0.00000000
  ---------------------------------------------------
  free energy    TOTEN  =      -420.89504767 eV

  energy without entropy =     -420.89504767  energy(sigma->0) =     -420.89504767


--------------------------------------------------------------------------------------------------------




----------------------------------------- Iteration    1(  13)  ---------------------------------------


    POTLOK:  cpu time    0.6040: real time    0.6021
    SETDIJ:  cpu time    2.1761: real time    2.1799
     EDDAV:  cpu time  284.5218: real time  284.7074
       DOS:  cpu time    0.0040: real time    0.0045
    CHARGE:  cpu time   12.0007: real time   12.0085
    MIXING:  cpu time    0.0200: real time    0.0181
    --------------------------------------------
      LOOP:  cpu time  299.3267: real time  299.5523

 eigenvalue-minimisations  : 40376
 total energy-change (2. order) :-0.1918233E+01  (-0.2782425E+00)
 number of electron     400.0000000 magnetization       1.7473056      1.7446909      1.7460609
 augmentation part        7.8990857 magnetization       1.7971623      1.7953642      1.7963379

 Broyden mixing:
  rms(total) = 0.20694E+00    rms(broyden)= 0.20693E+00
  rms(prec ) = 0.24396E+00
  weight for this iteration     100.00

 eigenvalues of (default mixing * dielectric matrix)
  average eigenvalue GAMMA=   1.1799
  2.1932  2.1932  1.0685  1.0685  0.8626  0.8626  0.6200  0.5706

 Free energy of the ion-electron system (eV)
  ---------------------------------------------------
  alpha Z        PSCENC =       370.05370877
  Ewald energy   TEWEN  =    -15558.77624044
  -Hartree energ DENC   =     -8440.05244050
[...]
     0.0000000     0.0000000     0.0000000     0.0000000     0.0000000     0.0000000     0.0000000
     0.0000000     0.0000000     0.0000000     0.0000000     0.0000000     0.0000000     0.0000000
     0.0000000     0.0000000     0.0000000     0.0000000     0.0000000     0.0000000     0.0000000
     0.0000000     0.0000000     0.0000000     0.0000000     0.0000000     0.0000000     0.0000000

 Ion:   82  E_soc:     -0.2776046
 l=   1
     0.0000000    -0.0475513    -0.0482029
    -0.0475513     0.0000000    -0.0430642
    -0.0482029    -0.0430642     0.0000000
 l=   2
     0.0000000    -0.0000083     0.0000000    -0.0000028     0.0000207
    -0.0000083     0.0000000     0.0000041    -0.0000026     0.0000105
     0.0000000     0.0000041     0.0000000    -0.0000036     0.0000000
    -0.0000028    -0.0000026    -0.0000036     0.0000000    -0.0000017
     0.0000207     0.0000105     0.0000000    -0.0000017     0.0000000
 l=   3
     0.0000000     0.0000000     0.0000000     0.0000000     0.0000000     0.0000000     0.0000000
     0.0000000     0.0000000     0.0000000     0.0000000     0.0000000     0.0000000     0.0000000
     0.0000000     0.0000000     0.0000000     0.0000000     0.0000000     0.0000000     0.0000000
     0.0000000     0.0000000     0.0000000     0.0000000     0.0000000     0.0000000     0.0000000
     0.0000000     0.0000000     0.0000000     0.0000000     0.0000000     0.0000000     0.0000000
     0.0000000     0.0000000     0.0000000     0.0000000     0.0000000     0.0000000     0.0000000
     0.0000000     0.0000000     0.0000000     0.0000000     0.0000000     0.0000000     0.0000000

 Ion:   83  E_soc:     -0.2776046
 l=   1
     0.0000000    -0.0475513    -0.0482029
    -0.0475513     0.0000000    -0.0430642
    -0.0482029    -0.0430642     0.0000000
 l=   2
     0.0000000    -0.0000083     0.0000000    -0.0000028     0.0000207
    -0.0000083     0.0000000     0.0000041    -0.0000026     0.0000105
     0.0000000     0.0000041     0.0000000    -0.0000036     0.0000000
    -0.0000028    -0.0000026    -0.0000036     0.0000000    -0.0000017
     0.0000207     0.0000105     0.0000000    -0.0000017     0.0000000
 l=   3
     0.0000000     0.0000000     0.0000000     0.0000000     0.0000000     0.0000000     0.0000000
     0.0000000     0.0000000     0.0000000     0.0000000     0.0000000     0.0000000     0.0000000
     0.0000000     0.0000000     0.0000000     0.0000000     0.0000000     0.0000000     0.0000000
     0.0000000     0.0000000     0.0000000     0.0000000     0.0000000     0.0000000     0.0000000
     0.0000000     0.0000000     0.0000000     0.0000000     0.0000000     0.0000000     0.0000000
     0.0000000     0.0000000     0.0000000     0.0000000     0.0000000     0.0000000     0.0000000
     0.0000000     0.0000000     0.0000000     0.0000000     0.0000000     0.0000000     0.0000000

 Ion:   84  E_soc:     -0.2817879
 l=   1
     0.0000000    -0.0490129    -0.0489813
    -0.0490129     0.0000000    -0.0429248
    -0.0489813    -0.0429248     0.0000000
 l=   2
     0.0000000    -0.0000106     0.0000000    -0.0000028     0.0000243
    -0.0000106     0.0000000     0.0000063    -0.0000022     0.0000143
     0.0000000     0.0000063     0.0000000    -0.0000031     0.0000000
    -0.0000028    -0.0000022    -0.0000031     0.0000000    -0.0000010
     0.0000243     0.0000143     0.0000000    -0.0000010     0.0000000
 l=   3
     0.0000000     0.0000000     0.0000000     0.0000000     0.0000000     0.0000000     0.0000000
     0.0000000     0.0000000     0.0000000     0.0000000     0.0000000     0.0000000     0.0000000
     0.0000000     0.0000000     0.0000000     0.0000000     0.0000000     0.0000000     0.0000000
     0.0000000     0.0000000     0.0000000     0.0000000     0.0000000     0.0000000     0.0000000
     0.0000000     0.0000000     0.0000000     0.0000000     0.0000000     0.0000000     0.0000000
     0.0000000     0.0000000     0.0000000     0.0000000     0.0000000     0.0000000     0.0000000
     0.0000000     0.0000000     0.0000000     0.0000000     0.0000000     0.0000000     0.0000000

 Ion:   85  E_soc:     -0.2817879
 l=   1
     0.0000000    -0.0490129    -0.0489813
    -0.0490129     0.0000000    -0.0429248
    -0.0489813    -0.0429248     0.0000000
 l=   2
     0.0000000    -0.0000106     0.0000000    -0.0000028     0.0000243
    -0.0000106     0.0000000     0.0000063    -0.0000022     0.0000143
     0.0000000     0.0000063     0.0000000    -0.0000031     0.0000000
    -0.0000028    -0.0000022    -0.0000031     0.0000000    -0.0000010
     0.0000243     0.0000143     0.0000000    -0.0000010     0.0000000
 l=   3
     0.0000000     0.0000000     0.0000000     0.0000000     0.0000000     0.0000000     0.0000000
     0.0000000     0.0000000     0.0000000     0.0000000     0.0000000     0.0000000     0.0000000
     0.0000000     0.0000000     0.0000000     0.0000000     0.0000000     0.0000000     0.0000000
     0.0000000     0.0000000     0.0000000     0.0000000     0.0000000     0.0000000     0.0000000
     0.0000000     0.0000000     0.0000000     0.0000000     0.0000000     0.0000000     0.0000000
     0.0000000     0.0000000     0.0000000     0.0000000     0.0000000     0.0000000     0.0000000
     0.0000000     0.0000000     0.0000000     0.0000000     0.0000000     0.0000000     0.0000000

 Ion:   86  E_soc:     -0.2776046
 l=   1
     0.0000000    -0.0475513    -0.0482029
    -0.0475513     0.0000000    -0.0430642
    -0.0482029    -0.0430642     0.0000000
 l=   2
     0.0000000    -0.0000083     0.0000000    -0.0000028     0.0000207
    -0.0000083     0.0000000     0.0000041    -0.0000026     0.0000105
     0.0000000     0.0000041     0.0000000    -0.0000036     0.0000000
    -0.0000028    -0.0000026    -0.0000036     0.0000000    -0.0000017
     0.0000207     0.0000105     0.0000000    -0.0000017     0.0000000
 l=   3
     0.0000000     0.0000000     0.0000000     0.0000000     0.0000000     0.0000000     0.0000000
     0.0000000     0.0000000     0.0000000     0.0000000     0.0000000     0.0000000     0.0000000
     0.0000000     0.0000000     0.0000000     0.0000000     0.0000000     0.0000000     0.0000000
     0.0000000     0.0000000     0.0000000     0.0000000     0.0000000     0.0000000     0.0000000
     0.0000000     0.0000000     0.0000000     0.0000000     0.0000000     0.0000000     0.0000000
     0.0000000     0.0000000     0.0000000     0.0000000     0.0000000     0.0000000     0.0000000
     0.0000000     0.0000000     0.0000000     0.0000000     0.0000000     0.0000000     0.0000000

 Ion:   87  E_soc:     -0.2776046
 l=   1
     0.0000000    -0.0475513    -0.0482029
    -0.0475513     0.0000000    -0.0430642
    -0.0482029    -0.0430642     0.0000000
 l=   2
     0.0000000    -0.0000083     0.0000000    -0.0000028     0.0000207
    -0.0000083     0.0000000     0.0000041    -0.0000026     0.0000105
     0.0000000     0.0000041     0.0000000    -0.0000036     0.0000000
    -0.0000028    -0.0000026    -0.0000036     0.0000000    -0.0000017
     0.0000207     0.0000105     0.0000000    -0.0000017     0.0000000
 l=   3
     0.0000000     0.0000000     0.0000000     0.0000000     0.0000000     0.0000000     0.0000000
     0.0000000     0.0000000     0.0000000     0.0000000     0.0000000     0.0000000     0.0000000
     0.0000000     0.0000000     0.0000000     0.0000000     0.0000000     0.0000000     0.0000000
     0.0000000     0.0000000     0.0000000     0.0000000     0.0000000     0.0000000     0.0000000
     0.0000000     0.0000000     0.0000000     0.0000000     0.0000000     0.0000000     0.0000000
     0.0000000     0.0000000     0.0000000     0.0000000     0.0000000     0.0000000     0.0000000
     0.0000000     0.0000000     0.0000000     0.0000000     0.0000000     0.0000000     0.0000000

 Ion:   88  E_soc:     -0.2817879
 l=   1
     0.0000000    -0.0490129    -0.0489813
    -0.0490129     0.0000000    -0.0429248
    -0.0489813    -0.0429248     0.0000000
 l=   2
     0.0000000    -0.0000106     0.0000000    -0.0000028     0.0000243
    -0.0000106     0.0000000     0.0000063    -0.0000022     0.0000143
     0.0000000     0.0000063     0.0000000    -0.0000031     0.0000000
    -0.0000028    -0.0000022    -0.0000031     0.0000000    -0.0000010
     0.0000243     0.0000143     0.0000000    -0.0000010     0.0000000
 l=   3
     0.0000000     0.0000000     0.0000000     0.0000000     0.0000000     0.0000000     0.0000000
     0.0000000     0.0000000     0.0000000     0.0000000     0.0000000     0.0000000     0.0000000
     0.0000000     0.0000000     0.0000000     0.0000000     0.0000000     0.0000000     0.0000000
     0.0000000     0.0000000     0.0000000     0.0000000     0.0000000     0.0000000     0.0000000
     0.0000000     0.0000000     0.0000000     0.0000000     0.0000000     0.0000000     0.0000000
     0.0000000     0.0000000     0.0000000     0.0000000     0.0000000     0.0000000     0.0000000
     0.0000000     0.0000000     0.0000000     0.0000000     0.0000000     0.0000000     0.0000000

 Ion:   89  E_soc:     -0.2857793
 l=   1
     0.0000000    -0.0430727    -0.0494900
    -0.0430727     0.0000000    -0.0503464
    -0.0494900    -0.0503464     0.0000000
 l=   2
     0.0000000    -0.0000019     0.0000000    -0.0000075     0.0000184
    -0.0000019     0.0000000    -0.0000022    -0.0000024    -0.0000016
     0.0000000    -0.0000022     0.0000000     0.0000048     0.0000000
    -0.0000075    -0.0000024     0.0000048     0.0000000     0.0000119
     0.0000184    -0.0000016     0.0000000     0.0000119     0.0000000
 l=   3
     0.0000000     0.0000000     0.0000000     0.0000000     0.0000000     0.0000000     0.0000000
     0.0000000     0.0000000     0.0000000     0.0000000     0.0000000     0.0000000     0.0000000
     0.0000000     0.0000000     0.0000000     0.0000000     0.0000000     0.0000000     0.0000000
     0.0000000     0.0000000     0.0000000     0.0000000     0.0000000     0.0000000     0.0000000
     0.0000000     0.0000000     0.0000000     0.0000000     0.0000000     0.0000000     0.0000000
     0.0000000     0.0000000     0.0000000     0.0000000     0.0000000     0.0000000     0.0000000
     0.0000000     0.0000000     0.0000000     0.0000000     0.0000000     0.0000000     0.0000000

 Ion:   90  E_soc:     -0.2857934
 l=   1
     0.0000000    -0.0430730    -0.0494944
    -0.0430730     0.0000000    -0.0503488
    -0.0494944    -0.0503488     0.0000000
 l=   2
     0.0000000    -0.0000019     0.0000000    -0.0000075     0.0000184
    -0.0000019     0.0000000    -0.0000022    -0.0000024    -0.0000016
     0.0000000    -0.0000022     0.0000000     0.0000048     0.0000000
    -0.0000075    -0.0000024     0.0000048     0.0000000     0.0000119
     0.0000184    -0.0000016     0.0000000     0.0000119     0.0000000
 l=   3
     0.0000000     0.0000000     0.0000000     0.0000000     0.0000000     0.0000000     0.0000000
     0.0000000     0.0000000     0.0000000     0.0000000     0.0000000     0.0000000     0.0000000
     0.0000000     0.0000000     0.0000000     0.0000000     0.0000000     0.0000000     0.0000000
     0.0000000     0.0000000     0.0000000     0.0000000     0.0000000     0.0000000     0.0000000
     0.0000000     0.0000000     0.0000000     0.0000000     0.0000000     0.0000000     0.0000000
     0.0000000     0.0000000     0.0000000     0.0000000     0.0000000     0.0000000     0.0000000
     0.0000000     0.0000000     0.0000000     0.0000000     0.0000000     0.0000000     0.0000000

 Ion:   91  E_soc:     -0.2857934
 l=   1
     0.0000000    -0.0430730    -0.0494944
    -0.0430730     0.0000000    -0.0503488
    -0.0494944    -0.0503488     0.0000000
 l=   2
     0.0000000    -0.0000019     0.0000000    -0.0000075     0.0000184
    -0.0000019     0.0000000    -0.0000022    -0.0000024    -0.0000016
     0.0000000    -0.0000022     0.0000000     0.0000048     0.0000000
    -0.0000075    -0.0000024     0.0000048     0.0000000     0.0000119
     0.0000184    -0.0000016     0.0000000     0.0000119     0.0000000
 l=   3
     0.0000000     0.0000000     0.0000000     0.0000000     0.0000000     0.0000000     0.0000000
     0.0000000     0.0000000     0.0000000     0.0000000     0.0000000     0.0000000     0.0000000
     0.0000000     0.0000000     0.0000000     0.0000000     0.0000000     0.0000000     0.0000000
     0.0000000     0.0000000     0.0000000     0.0000000     0.0000000     0.0000000     0.0000000
     0.0000000     0.0000000     0.0000000     0.0000000     0.0000000     0.0000000     0.0000000
     0.0000000     0.0000000     0.0000000     0.0000000     0.0000000     0.0000000     0.0000000
     0.0000000     0.0000000     0.0000000     0.0000000     0.0000000     0.0000000     0.0000000

 Ion:   92  E_soc:     -0.2857793
 l=   1
     0.0000000    -0.0430727    -0.0494900
    -0.0430727     0.0000000    -0.0503464
    -0.0494900    -0.0503464     0.0000000
 l=   2
     0.0000000    -0.0000019     0.0000000    -0.0000075     0.0000184
    -0.0000019     0.0000000    -0.0000022    -0.0000024    -0.0000016
     0.0000000    -0.0000022     0.0000000     0.0000048     0.0000000
    -0.0000075    -0.0000024     0.0000048     0.0000000     0.0000119
     0.0000184    -0.0000016     0.0000000     0.0000119     0.0000000
 l=   3
     0.0000000     0.0000000     0.0000000     0.0000000     0.0000000     0.0000000     0.0000000
     0.0000000     0.0000000     0.0000000     0.0000000     0.0000000     0.0000000     0.0000000
     0.0000000     0.0000000     0.0000000     0.0000000     0.0000000     0.0000000     0.0000000
     0.0000000     0.0000000     0.0000000     0.0000000     0.0000000     0.0000000     0.0000000
     0.0000000     0.0000000     0.0000000     0.0000000     0.0000000     0.0000000     0.0000000
     0.0000000     0.0000000     0.0000000     0.0000000     0.0000000     0.0000000     0.0000000
     0.0000000     0.0000000     0.0000000     0.0000000     0.0000000     0.0000000     0.0000000

 Ion:   93  E_soc:     -0.2857793
 l=   1
     0.0000000    -0.0430727    -0.0494900
    -0.0430727     0.0000000    -0.0503464
    -0.0494900    -0.0503464     0.0000000
 l=   2
     0.0000000    -0.0000019     0.0000000    -0.0000075     0.0000184
    -0.0000019     0.0000000    -0.0000022    -0.0000024    -0.0000016
     0.0000000    -0.0000022     0.0000000     0.0000048     0.0000000
    -0.0000075    -0.0000024     0.0000048     0.0000000     0.0000119
     0.0000184    -0.0000016     0.0000000     0.0000119     0.0000000
 l=   3
     0.0000000     0.0000000     0.0000000     0.0000000     0.0000000     0.0000000     0.0000000
     0.0000000     0.0000000     0.0000000     0.0000000     0.0000000     0.0000000     0.0000000
     0.0000000     0.0000000     0.0000000     0.0000000     0.0000000     0.0000000     0.0000000
     0.0000000     0.0000000     0.0000000     0.0000000     0.0000000     0.0000000     0.0000000
     0.0000000     0.0000000     0.0000000     0.0000000     0.0000000     0.0000000     0.0000000
     0.0000000     0.0000000     0.0000000     0.0000000     0.0000000     0.0000000     0.0000000
     0.0000000     0.0000000     0.0000000     0.0000000     0.0000000     0.0000000     0.0000000

 Ion:   94  E_soc:     -0.2857934
 l=   1
     0.0000000    -0.0430730    -0.0494944
    -0.0430730     0.0000000    -0.0503488
    -0.0494944    -0.0503488     0.0000000
 l=   2
     0.0000000    -0.0000019     0.0000000    -0.0000075     0.0000184
    -0.0000019     0.0000000    -0.0000022    -0.0000024    -0.0000016
     0.0000000    -0.0000022     0.0000000     0.0000048     0.0000000
    -0.0000075    -0.0000024     0.0000048     0.0000000     0.0000119
     0.0000184    -0.0000016     0.0000000     0.0000119     0.0000000
 l=   3
     0.0000000     0.0000000     0.0000000     0.0000000     0.0000000     0.0000000     0.0000000
     0.0000000     0.0000000     0.0000000     0.0000000     0.0000000     0.0000000     0.0000000
     0.0000000     0.0000000     0.0000000     0.0000000     0.0000000     0.0000000     0.0000000
     0.0000000     0.0000000     0.0000000     0.0000000     0.0000000     0.0000000     0.0000000
     0.0000000     0.0000000     0.0000000     0.0000000     0.0000000     0.0000000     0.0000000
     0.0000000     0.0000000     0.0000000     0.0000000     0.0000000     0.0000000     0.0000000
     0.0000000     0.0000000     0.0000000     0.0000000     0.0000000     0.0000000     0.0000000

 Ion:   95  E_soc:     -0.2857934
 l=   1
     0.0000000    -0.0430730    -0.0494944
    -0.0430730     0.0000000    -0.0503488
    -0.0494944    -0.0503488     0.0000000
 l=   2
     0.0000000    -0.0000019     0.0000000    -0.0000075     0.0000184
    -0.0000019     0.0000000    -0.0000022    -0.0000024    -0.0000016
     0.0000000    -0.0000022     0.0000000     0.0000048     0.0000000
    -0.0000075    -0.0000024     0.0000048     0.0000000     0.0000119
     0.0000184    -0.0000016     0.0000000     0.0000119     0.0000000
 l=   3
     0.0000000     0.0000000     0.0000000     0.0000000     0.0000000     0.0000000     0.0000000
     0.0000000     0.0000000     0.0000000     0.0000000     0.0000000     0.0000000     0.0000000
     0.0000000     0.0000000     0.0000000     0.0000000     0.0000000     0.0000000     0.0000000
     0.0000000     0.0000000     0.0000000     0.0000000     0.0000000     0.0000000     0.0000000
     0.0000000     0.0000000     0.0000000     0.0000000     0.0000000     0.0000000     0.0000000
     0.0000000     0.0000000     0.0000000     0.0000000     0.0000000     0.0000000     0.0000000
     0.0000000     0.0000000     0.0000000     0.0000000     0.0000000     0.0000000     0.0000000

 Ion:   96  E_soc:     -0.2857793
 l=   1
     0.0000000    -0.0430727    -0.0494900
    -0.0430727     0.0000000    -0.0503464
    -0.0494900    -0.0503464     0.0000000
 l=   2
     0.0000000    -0.0000019     0.0000000    -0.0000075     0.0000184
    -0.0000019     0.0000000    -0.0000022    -0.0000024    -0.0000016
     0.0000000    -0.0000022     0.0000000     0.0000048     0.0000000
    -0.0000075    -0.0000024     0.0000048     0.0000000     0.0000119
     0.0000184    -0.0000016     0.0000000     0.0000119     0.0000000
 l=   3
     0.0000000     0.0000000     0.0000000     0.0000000     0.0000000     0.0000000     0.0000000
     0.0000000     0.0000000     0.0000000     0.0000000     0.0000000     0.0000000     0.0000000
     0.0000000     0.0000000     0.0000000     0.0000000     0.0000000     0.0000000     0.0000000
     0.0000000     0.0000000     0.0000000     0.0000000     0.0000000     0.0000000     0.0000000
     0.0000000     0.0000000     0.0000000     0.0000000     0.0000000     0.0000000     0.0000000
     0.0000000     0.0000000     0.0000000     0.0000000     0.0000000     0.0000000     0.0000000
     0.0000000     0.0000000     0.0000000     0.0000000     0.0000000     0.0000000     0.0000000

 total amount of memory used by VASP on root node   392927. kBytes
========================================================================

   base      :      30000. kBytes
   nonl-proj :      73667. kBytes
   fftplans  :      22714. kBytes
   grid      :      35610. kBytes
   one-center:        248. kBytes
   wavefun   :     230688. kBytes
 
  
  
 General timing and accounting informations for this job:
 ========================================================
  
                  Total CPU time used (sec):     9289.929
                            User time (sec):     9275.268
                          System time (sec):       14.661
                         Elapsed time (sec):     9318.773
  
                   Maximum memory used (kb):      413376.
                   Average memory used (kb):           0.
  
                          Minor page faults:       627588
                          Major page faults:            0
                 Voluntary context switches:        12081
