 running on 3648 total cores
 distrk:  each k-point on   24 cores,  152 groups
 distr:  one band on   24 cores,    1 groups
 using from now: INCAR     
 vasp.5.4.1 24Jun15 (build Nov 25 2015 16:01:35) complex                        
  
 POSCAR found type information on POSCAR  Cu Zn Sn S 
 POSCAR found :  4 types and       8 ions
 scaLAPACK will be used

 ----------------------------------------------------------------------------- 
|                                                                             |
|           W    W    AA    RRRRR   N    N  II  N    N   GGGG   !!!           |
|           W    W   A  A   R    R  NN   N  II  NN   N  G    G  !!!           |
|           W    W  A    A  R    R  N N  N  II  N N  N  G       !!!           |
|           W WW W  AAAAAA  RRRRR   N  N N  II  N  N N  G  GGG   !            |
|           WW  WW  A    A  R   R   N   NN  II  N   NN  G    G                |
|           W    W  A    A  R    R  N    N  II  N    N   GGGG   !!!           |
|                                                                             |
|      For optimal performance we recommend to set                            |
|        NCORE= 4 - approx SQRT( number of cores)                             |
|      NCORE specifies how many cores store one orbital (NPAR=cpu/NCORE).     |
|      This setting can  greatly improve the performance of VASP for DFT.     |
|      The default, NPAR=number of cores might be grossly inefficient         |
|      on modern multi-core architectures or massively parallel machines.     |
|      Do your own testing !!!!                                               |
|      Unfortunately you need to use the default for GW and RPA calculations. |
|      (for HF NCORE is supported but not extensively tested yet)             |
|                                                                             |
 ----------------------------------------------------------------------------- 


 ----------------------------------------------------------------------------- 
|                                                                             |
|           W    W    AA    RRRRR   N    N  II  N    N   GGGG   !!!           |
|           W    W   A  A   R    R  NN   N  II  NN   N  G    G  !!!           |
|           W    W  A    A  R    R  N N  N  II  N N  N  G       !!!           |
|           W WW W  AAAAAA  RRRRR   N  N N  II  N  N N  G  GGG   !            |
|           WW  WW  A    A  R   R   N   NN  II  N   NN  G    G                |
|           W    W  A    A  R    R  N    N  II  N    N   GGGG   !!!           |
|                                                                             |
|      You have enabled k-point parallelism (KPAR>1).                         |
|      This developmental code was originally  written by Paul Kent at ORNL,  |
|      and carefully double checked in Vienna.                                |
|      GW as well as linear response parallelism added by Martijn Marsman     |
|      and Georg Kresse.                                                      |
|      Carefully verify results versus KPAR=1.                                |
|      Report problems to Paul Kent and Vienna.                               |
|                                                                             |
 ----------------------------------------------------------------------------- 


 ----------------------------------------------------------------------------- 
|                                                                             |
|           W    W    AA    RRRRR   N    N  II  N    N   GGGG   !!!           |
|           W    W   A  A   R    R  NN   N  II  NN   N  G    G  !!!           |
|           W    W  A    A  R    R  N N  N  II  N N  N  G       !!!           |
|           W WW W  AAAAAA  RRRRR   N  N N  II  N  N N  G  GGG   !            |
|           WW  WW  A    A  R   R   N   NN  II  N   NN  G    G                |
|           W    W  A    A  R    R  N    N  II  N    N   GGGG   !!!           |
|                                                                             |
|      You have selected ISYM=2 for HF type calculation. This will symmetrize |
|      the charge density but not the exchange potential.                     |
|      I suggest to use ISYM=3 instead. This uses symmetry to obtain          |
|      the orbitals at all k-points in the Brillouine zone, but does not      |
|      apply symmetry to the Hartree potential directly.                      |
|      The resultant charge might have lower symmetry than the crystal,       |
|      but at least, Hartree and exchange are fully compatible.               |
|                                                                             |
 ----------------------------------------------------------------------------- 

 LDA part: xc-table for Pade appr. of Perdew

 ----------------------------------------------------------------------------- 
|                                                                             |
|           W    W    AA    RRRRR   N    N  II  N    N   GGGG   !!!           |
|           W    W   A  A   R    R  NN   N  II  NN   N  G    G  !!!           |
|           W    W  A    A  R    R  N N  N  II  N N  N  G       !!!           |
|           W WW W  AAAAAA  RRRRR   N  N N  II  N  N N  G  GGG   !            |
|           WW  WW  A    A  R   R   N   NN  II  N   NN  G    G                |
|           W    W  A    A  R    R  N    N  II  N    N   GGGG   !!!           |
|                                                                             |
|      Your generating k-point grid is not commensurate to the symmetry       |
|      of the lattice.  This can cause   slow convergence with respect        |
|      to k-points for HF type calculations                                   |
|      suggested SOLUTIONS:                                                   |
|       ) if not already the case, use automatic k-point generation           |
|       ) shift your grid to Gamma (G) (e.g. required for hex or fcc lattice) |
|                                                                             |
 ----------------------------------------------------------------------------- 

 POSCAR, INCAR and KPOINTS ok, starting setup
 WARNING: small aliasing (wrap around) errors must be expected
 FFT: planning ...
 WAVECAR not read
 WARNING: random wavefunctions but no delay for mixing, default for NELMDL
 entering main loop
       N       E                     dE             d eps       ncg     rms          ort
DAV:   1     0.490896750830E+04    0.49090E+04   -0.16321E+05 30050   0.739E+03
DAV:   2     0.136459172775E+04   -0.35444E+04   -0.34795E+04 30050   0.224E+03
DAV:   3     0.395347862850E+03   -0.96924E+03   -0.94686E+03 30050   0.526E+02
DAV:   4     0.211093322999E+03   -0.18425E+03   -0.17605E+03 30050   0.215E+02
DAV:   5     0.189131160994E+03   -0.21962E+02   -0.21073E+02 30050   0.696E+01
 gam= 0.000 g(H,U,f)=  0.214E+04 0.266E+04 0.417E+02 ort(H,U,f) = 0.000E+00 0.000E+00 0.000E+00
SDA:   6     0.182282286450E+03   -0.68489E+01   -0.21073E+02 30050   0.484E+04 0.000E+00
 gam= 0.000 trial= 0.400  step= 0.194 mean= 0.400
 gam= 0.078 g(H,U,f)=  0.347E+03 0.297E+02 0.190E-22 ort(H,U,f) =-0.781E+03-0.939E+02-0.123E-21
CGA:   7     0.513152449927E+01   -0.17715E+03   -0.46920E+03 30050   0.377E+03-0.875E+03
 gam= 0.078 trial= 0.390  step= 0.213 mean= 0.390
 gam= 0.065 g(H,U,f)=  0.230E+02 0.154E+01 0.391E-02 ort(H,U,f) = 0.213E+02-0.388E+01-0.618E-02
CGA:   8    -0.306463232683E+02   -0.35778E+02   -0.32944E+02 30050   0.246E+02 0.174E+02
 gam= 0.065 trial= 0.381  step= 0.286 mean= 0.381
 gam= 0.597 g(H,U,f)=  0.971E+01 0.492E+01 0.573E-01 ort(H,U,f) =-0.205E+01 0.185E+01 0.232E-01
CGA:   9    -0.343597845624E+02   -0.37135E+01   -0.36780E+01 30050   0.147E+02-0.178E+00
 gam= 0.597 trial= 0.376  step= 0.381 mean= 0.376
 gam= 0.307 g(H,U,f)=  0.374E+01 0.777E+00 0.244E-67 ort(H,U,f) =-0.117E+01 0.187E+01 0.653E-67
CGA:  10    -0.371378745100E+02   -0.27781E+01   -0.27746E+01 30050   0.451E+01 0.709E+00
 gam= 0.307 trial= 0.376  step= 0.304 mean= 0.376
 gam= 0.355 g(H,U,f)=  0.142E+01 0.180E+00 0.130E-58 ort(H,U,f) =-0.461E+00 0.500E+00 0.446E-58
CGA:  11    -0.378495302292E+02   -0.71166E+00   -0.71838E+00 30050   0.160E+01 0.396E-01
Application 22166551 exit codes: 1
Application 22166551 resources: utime ~824002s, stime ~2151s, Rss ~1072264, inblocks ~13988436, outblocks ~29901215
