    8    8    1    1
  0.2002677E+02  0.5435300E-09  0.5435300E-09  0.6646963E-09  0.5000000E-15
  1.000000000000000E-004
  CAR 
 Name                                    
     84    814     52
 
  0.0000000E+00  0.0000000E+00  0.0000000E+00  0.6944444E-02
    1      -64.305876
    2      -64.250988
    3      -64.250983
    4      -64.228348
    5      -64.228343
    6      -64.221727
    7      -17.521956
    8      -17.518009
    9      -17.518008
   10      -17.428171
   11      -17.422611
   12       -9.888368
   13       -8.335439
   14       -8.324626
   15       -8.324626
   16       -3.461547
   17       -2.495199
   18       -2.423156
   19       -2.421134
   20       -2.421133
   21       -2.321177
   22       -1.051348
   23       -0.411399
   24       -0.306129
   25        0.133392
   26        0.133393
   27        0.175385
   28        0.896877
   29        0.896877
   30        1.386556
   31        1.386560
   32        1.405404
   33        2.550349
   34        2.592521
   35        2.793167
   36        3.042093
   37        3.052219
   38        3.052230
   39        3.217357
   40        4.581326
   41        4.581334
   42        4.659168
   43        4.845529
   44        6.558734
   45        7.410259
   46        8.376133
   47        8.376139
   48        9.484985
   49        9.561077
   50        9.813890
   51        9.813895
   52       10.239299
 
  0.1666667E+00  0.0000000E+00  0.0000000E+00  0.2777778E-01
    1      -64.305875
    2      -64.251014
    3      -64.250943
    4      -64.228378
    5      -64.228306
    6      -64.221726
    7      -17.522082
    8      -17.518132
    9      -17.517998
   10      -17.428024
   11      -17.422544
   12       -9.795444
   13       -8.409068
   14       -8.367088
   15       -8.353316
   16       -3.413500
   17       -2.468920
   18       -2.451448
   19       -2.428675
   20       -2.412017
   21       -2.307002
   22       -1.099798
   23       -0.550804
   24       -0.308814
   25       -0.008146
   26        0.307886
   27        0.465779
   28        0.811276
   29        0.906736
   30        1.284191
   31        1.359923
   32        1.486225
   33        2.589911
   34        2.677837
   35        2.814388
   36        2.930305
   37        2.999836
   38        3.178923
   39        3.289142
   40        3.966229
   41        4.363446
   42        4.545931
   43        5.583945
   44        6.970012
   45        7.623799
   46        8.121728
   47        8.225277
   48        9.227591
   49        9.708293
   50        9.828440
   51        9.959264
   52       10.214863
 
  0.3333333E+00  0.0000000E+00  0.0000000E+00  0.2777778E-01
    1      -64.305897
    2      -64.251117
    3      -64.251039
    4      -64.228481
    5      -64.228401
    6      -64.221748
    7      -17.522344
    8      -17.518375
    9      -17.517985
   10      -17.427739
   11      -17.422399
   12       -9.544699
   13       -8.658253
   14       -8.435655
   15       -8.394468
   16       -3.317277
   17       -2.493088
   18       -2.459505
   19       -2.412233
   20       -2.391795
   21       -2.276245
   22       -1.105611
   23       -0.635892
   24       -0.324768
   25        0.123587
   26        0.241320
   27        0.483600
   28        0.705775
   29        0.945635
   30        1.226011
   31        1.351095
   32        1.580870
   33        2.708694
   34        2.772137
   35        2.843395
   36        2.899094
   37        3.023768
   38        3.262814
   39        3.386073
   40        3.669388
   41        3.905472
   42        4.317606
   43        6.154377
   44        7.568912
   45        7.880550
   46        8.002752
   47        8.516131
   48        9.272778
   49        9.762923
   50        9.808502
   51       10.396338
   52       10.500423
 
  0.5000000E+00  0.0000000E+00  0.0000000E+00  0.2777778E-01
    1      -64.305931
    2      -64.251071
    3      -64.251006
    4      -64.228437
    5      -64.228369
    6      -64.221780
    7      -17.522464
    8      -17.518494
    9      -17.517970
   10      -17.427592
   11      -17.422320
   12       -9.317772
   13       -8.890729
   14       -8.466252
   15       -8.414319
   16       -3.269658
   17       -2.505230
   18       -2.469708
   19       -2.398911
   20       -2.377599
   21       -2.258220
   22       -1.043422
   23       -0.656148
   24       -0.294602
   25       -0.030937
   26        0.287983
   27        0.358746
   28        0.830665
   29        1.001549
   30        1.138602
   31        1.353161
   32        1.582612
   33        2.733541
   34        2.768109
   35        2.859932
   36        2.963611
   37        3.059017
   38        3.371916
   39        3.490918
   40        3.551779
   41        3.623680
   42        4.151466
   43        6.359547
   44        7.740667
   45        7.897255
   46        8.796899
   47        8.862201
   48        9.166999
   49        9.629677
   50        9.925659
   51       10.199421
   52       10.686480
 
  0.1666667E+00  0.1666667E+00  0.0000000E+00  0.1388889E-01
    1      -64.305836
    2      -64.251027
    3      -64.250970
    4      -64.228388
    5      -64.228333
    6      -64.221688
    7      -17.522232
    8      -17.518109
    9      -17.518083
   10      -17.427876
   11      -17.422473
   12       -9.673026
   13       -8.491939
   14       -8.412519
   15       -8.406543
   16       -3.400907
   17       -2.476097
   18       -2.464409
   19       -2.410445
   20       -2.396627
   21       -2.283290
   22       -1.200070
   23       -0.685090
   24       -0.148443
   25        0.116329
   26        0.226345
   27        0.569261
   28        0.817451
   29        0.944430
   30        1.210214
   31        1.433335
   32        1.491599
   33        2.620182
   34        2.756575
   35        2.839135
   36        2.908361
   37        3.034765
   38        3.203566
   39        3.326689
   40        3.686654
   41        4.387325
   42        4.435038
   43        5.710016
   44        7.219288
   45        7.486036
   46        7.780069
   47        8.247191
   48        9.324104
   49        9.667823
   50        9.881711
   51       10.072569
   52       10.209393
 
  0.3333333E+00  0.1666667E+00  0.0000000E+00  0.2777778E-01
    1      -64.305908
    2      -64.251086
    3      -64.251008
    4      -64.228450
    5      -64.228372
    6      -64.221759
    7      -17.522512
    8      -17.518350
    9      -17.518085
   10      -17.427578
   11      -17.422341
   12       -9.420648
   13       -8.696882
   14       -8.511359
   15       -8.431991
   16       -3.355025
   17       -2.516781
   18       -2.465617
   19       -2.393992
   20       -2.368249
   21       -2.261270
   22       -1.220753
   23       -0.820585
   24       -0.278891
   25        0.056645
   26        0.387212
   27        0.623918
   28        0.861152
   29        0.909492
   30        1.235785
   31        1.455547
   32        1.537908
   33        2.677165
   34        2.780773
   35        2.870805
   36        2.923355
   37        3.096600
   38        3.347055
   39        3.387851
   40        3.613328
   41        4.024630
   42        4.274256
   43        5.955194
   44        7.400607
   45        7.677382
   46        7.994994
   47        8.534504
   48        9.540236
   49        9.839746
   50       10.036078
   51       10.301532
   52       10.503293
 
  0.5000000E+00  0.1666667E+00  0.0000000E+00  0.2777778E-01
    1      -64.305898
    2      -64.251081
    3      -64.251008
    4      -64.228446
    5      -64.228372
    6      -64.221746
    7      -17.522636
    8      -17.518507
    9      -17.518097
   10      -17.427427
   11      -17.422272
   12       -9.283266
   13       -8.836601
   14       -8.542795
   15       -8.412503
   16       -3.327483
   17       -2.506142
   18       -2.462338
   19       -2.400167
   20       -2.361922
   21       -2.282354
   22       -1.229111
   23       -0.882163
   24       -0.365129
   25       -0.059877
   26        0.446174
   27        0.626900
   28        0.833950
   29        0.990008
   30        1.277202
   31        1.411728
   32        1.595091
   33        2.720160
   34        2.773627
   35        2.838698
   36        2.898100
   37        3.235709
   38        3.338168
   39        3.546367
   40        3.599864
   41        3.865732
   42        4.073392
   43        6.141803
   44        7.594066
   45        7.907848
   46        8.564705
   47        8.840841
   48        9.316115
   49        9.557304
   50        9.860176
   51       10.439055
   52       10.716665
 
 -0.3333333E+00  0.1666667E+00  0.0000000E+00  0.1388889E-01
    1      -64.305864
    2      -64.251086
    3      -64.251005
    4      -64.228449
    5      -64.228370
    6      -64.221714
    7      -17.522488
    8      -17.518411
    9      -17.518121
   10      -17.427568
   11      -17.422351
   12       -9.529723
   13       -8.621460
   14       -8.492319
   15       -8.365869
   16       -3.346468
   17       -2.471271
   18       -2.460185
   19       -2.431396
   20       -2.374627
   21       -2.308267
   22       -1.311858
   23       -0.830871
   24       -0.251003
   25       -0.073577
   26        0.348582
   27        0.668923
   28        0.788849
   29        0.955100
   30        1.240582
   31        1.419500
   32        1.637194
   33        2.706870
   34        2.778764
   35        2.843646
   36        2.900816
   37        3.105267
   38        3.231418
   39        3.488930
   40        3.606071
   41        4.105955
   42        4.252405
   43        6.036243
   44        7.651418
   45        7.818593
   46        8.024194
   47        8.713089
   48        9.265506
   49        9.613423
   50       10.015573
   51       10.423201
   52       10.584536
 
 -0.1666667E+00  0.1666667E+00  0.0000000E+00  0.1388889E-01
    1      -64.305840
    2      -64.251025
    3      -64.251005
    4      -64.228389
    5      -64.228365
    6      -64.221692
    7      -17.522213
    8      -17.518198
    9      -17.518102
   10      -17.427867
   11      -17.422482
   12       -9.742409
   13       -8.455607
   14       -8.402685
   15       -8.335093
   16       -3.386167
   17       -2.484879
   18       -2.449779
   19       -2.434093
   20       -2.394059
   21       -2.314614
   22       -1.204549
   23       -0.701001
   24       -0.237661
   25       -0.028518
   26        0.190052
   27        0.675260
   28        0.823343
   29        0.943890
   30        1.155570
   31        1.440437
   32        1.529793
   33        2.629462
   34        2.713878
   35        2.841732
   36        2.876219
   37        2.977753
   38        3.247250
   39        3.372192
   40        3.754723
   41        4.341431
   42        4.519784
   43        5.697121
   44        7.123670
   45        7.839250
   46        8.256323
   47        8.408068
   48        9.233589
   49        9.577101
   50        9.924012
   51       10.086857
   52       10.163389
 
  0.1666667E+00  0.3333333E+00  0.0000000E+00  0.2777778E-01
    1      -64.305908
    2      -64.251086
    3      -64.251008
    4      -64.228450
    5      -64.228372
    6      -64.221759
    7      -17.522512
    8      -17.518350
    9      -17.518085
   10      -17.427578
   11      -17.422341
   12       -9.420645
   13       -8.696965
   14       -8.511119
   15       -8.432151
   16       -3.355442
   17       -2.511005
   18       -2.478493
   19       -2.392837
   20       -2.364060
   21       -2.254523
   22       -1.223422
   23       -0.858135
   24       -0.216983
   25        0.108261
   26        0.346524
   27        0.524625
   28        0.828384
   29        1.016568
   30        1.237150
   31        1.429652
   32        1.548470
   33        2.699598
   34        2.770238
   35        2.863544
   36        2.922119
   37        3.166659
   38        3.225954
   39        3.439168
   40        3.597047
   41        4.035054
   42        4.280110
   43        5.948244
   44        7.414760
   45        7.661085
   46        7.987158
   47        8.639675
   48        9.324798
   49        9.916417
   50       10.027488
   51       10.352774
   52       10.512753
 
  0.3333333E+00  0.3333333E+00  0.0000000E+00  0.1388889E-01
    1      -64.305858
    2      -64.251073
    3      -64.251017
    4      -64.228439
    5      -64.228382
    6      -64.221707
    7      -17.522827
    8      -17.518450
    9      -17.518242
   10      -17.427259
   11      -17.422223
   12       -9.230659
   13       -8.709282
   14       -8.578385
   15       -8.552774
   16       -3.406136
   17       -2.529376
   18       -2.485411
   19       -2.361266
   20       -2.354074
   21       -2.262856
   22       -1.388465
   23       -1.020482
   24       -0.692359
   25        0.372577
   26        0.583041
   27        0.694958
   28        0.851170
   29        1.049071
   30        1.295671
   31        1.484003
   32        1.585449
   33        2.688896
   34        2.756696
   35        2.874739
   36        2.932499
   37        3.193435
   38        3.450926
   39        3.612782
   40        3.704897
   41        4.102841
   42        4.144091
   43        5.704976
   44        7.303559
   45        7.925319
   46        8.103200
   47        8.620813
   48        9.410566
   49        9.731463
   50       10.306593
   51       10.347001
   52       10.677610
 
  0.5000000E+00  0.3333333E+00  0.0000000E+00  0.2777778E-01
    1      -64.305903
    2      -64.251084
    3      -64.251049
    4      -64.228448
    5      -64.228416
    6      -64.221751
    7      -17.522980
    8      -17.518626
    9      -17.518257
   10      -17.427103
   11      -17.422176
   12       -9.192362
   13       -8.732488
   14       -8.617881
   15       -8.504806
   16       -3.434858
   17       -2.501335
   18       -2.468952
   19       -2.374886
   20       -2.345256
   21       -2.324847
   22       -1.578565
   23       -1.062170
   24       -0.628446
   25        0.008362
   26        0.683389
   27        0.867244
   28        0.973398
   29        1.052410
   30        1.371640
   31        1.448232
   32        1.655435
   33        2.728993
   34        2.761009
   35        2.869611
   36        2.900347
   37        3.253225
   38        3.504830
   39        3.705538
   40        3.786273
   41        4.016418
   42        4.157315
   43        5.706091
   44        7.233195
   45        7.906097
   46        8.464421
   47        8.965697
   48        9.120217
   49        9.726173
   50       10.186723
   51       10.421602
   52       10.622003
 
 -0.3333333E+00  0.3333333E+00  0.0000000E+00  0.1388889E-01
    1      -64.305895
    2      -64.251070
    3      -64.251023
    4      -64.228433
    5      -64.228390
    6      -64.221744
    7      -17.522808
    8      -17.518563
    9      -17.518235
   10      -17.427253
   11      -17.422245
   12       -9.378795
   13       -8.673658
   14       -8.549895
   15       -8.411436
   16       -3.406955
   17       -2.502113
   18       -2.437730
   19       -2.418157
   20       -2.356094
   21       -2.324108
   22       -1.595278
   23       -0.937929
   24       -0.419168
   25       -0.222403
   26        0.653619
   27        0.825925
   28        0.968697
   29        1.045408
   30        1.272285
   31        1.486551
   32        1.643243
   33        2.726530
   34        2.783784
   35        2.811295
   36        2.927953
   37        3.288916
   38        3.367249
   39        3.477926
   40        3.660654
   41        4.018292
   42        4.354207
   43        5.883896
   44        7.535242
   45        7.702168
   46        8.290887
   47        8.636763
   48        9.360097
   49        9.815195
   50       10.162607
   51       10.211336
   52       10.600941
 
 -0.1666667E+00  0.3333333E+00  0.0000000E+00  0.1388889E-01
    1      -64.305864
    2      -64.251086
    3      -64.251006
    4      -64.228450
    5      -64.228369
    6      -64.221714
    7      -17.522488
    8      -17.518416
    9      -17.518116
   10      -17.427568
   11      -17.422351
   12       -9.529671
   13       -8.621618
   14       -8.492167
   15       -8.365984
   16       -3.338533
   17       -2.510556
   18       -2.451695
   19       -2.419040
   20       -2.379467
   21       -2.299492
   22       -1.321418
   23       -0.771604
   24       -0.344897
   25       -0.047295
   26        0.369714
   27        0.712958
   28        0.810934
   29        0.942914
   30        1.181449
   31        1.482925
   32        1.571460
   33        2.682798
   34        2.780881
   35        2.832474
   36        2.959334
   37        3.054794
   38        3.285640
   39        3.421407
   40        3.662830
   41        4.112389
   42        4.236047
   43        6.050183
   44        7.698979
   45        7.788496
   46        7.999126
   47        8.609809
   48        9.345986
   49        9.654651
   50       10.195270
   51       10.277179
   52       10.574485
 
  0.1666667E+00  0.5000000E+00  0.0000000E+00  0.2777778E-01
    1      -64.305898
    2      -64.251081
    3      -64.251008
    4      -64.228447
    5      -64.228372
    6      -64.221746
    7      -17.522635
    8      -17.518511
    9      -17.518093
   10      -17.427427
   11      -17.422272
   12       -9.283118
   13       -8.836867
   14       -8.542667
   15       -8.412574
   16       -3.320482
   17       -2.527147
   18       -2.467855
   19       -2.393568
   20       -2.361172
   21       -2.270971
   22       -1.255518
   23       -0.846695
   24       -0.414849
   25        0.054616
   26        0.338550
   27        0.681435
   28        0.863773
   29        0.952606
   30        1.259268
   31        1.448034
   32        1.554144
   33        2.711939
   34        2.762962
   35        2.841529
   36        2.946421
   37        3.195350
   38        3.378682
   39        3.446782
   40        3.679511
   41        3.845745
   42        4.092096
   43        6.149023
   44        7.596830
   45        7.893827
   46        8.583415
   47        8.811276
   48        9.324543
   49        9.553233
   50        9.904893
   51       10.393704
   52       10.709505
 
  0.3333333E+00  0.5000000E+00  0.0000000E+00  0.2777778E-01
    1      -64.305903
    2      -64.251084
    3      -64.251048
    4      -64.228448
    5      -64.228416
    6      -64.221751
    7      -17.522979
    8      -17.518629
    9      -17.518253
   10      -17.427103
   11      -17.422176
   12       -9.192150
   13       -8.733348
   14       -8.617122
   15       -8.504977
   16       -3.429238
   17       -2.535194
   18       -2.458060
   19       -2.367845
   20       -2.347189
   21       -2.311380
   22       -1.589114
   23       -1.058313
   24       -0.643087
   25        0.084023
   26        0.587188
   27        0.901299
   28        0.960124
   29        1.104934
   30        1.354520
   31        1.452036
   32        1.625421
   33        2.714782
   34        2.768957
   35        2.818027
   36        2.997289
   37        3.316407
   38        3.373620
   39        3.644330
   40        3.873339
   41        4.034589
   42        4.151698
   43        5.716538
   44        7.232286
   45        7.926332
   46        8.411974
   47        8.858253
   48        9.295452
   49        9.723581
   50       10.204844
   51       10.354548
   52       10.567463
 
  0.5000000E+00  0.5000000E+00  0.0000000E+00  0.1388889E-01
    1      -64.305853
    2      -64.251092
    3      -64.250918
    4      -64.228457
    5      -64.228284
    6      -64.221704
    7      -17.523144
    8      -17.518735
    9      -17.518276
   10      -17.426941
   11      -17.422120
   12       -9.130575
   13       -8.668441
   14       -8.621550
   15       -8.612831
   16       -3.486380
   17       -2.516551
   18       -2.435400
   19       -2.380576
   20       -2.346038
   21       -2.340081
   22       -1.755875
   23       -1.092438
   24       -0.683382
   25        0.214609
   26        0.337247
   27        0.974979
   28        1.035298
   29        1.236225
   30        1.388041
   31        1.469875
   32        1.665896
   33        2.735454
   34        2.783883
   35        2.868676
   36        2.980239
   37        3.329201
   38        3.413131
   39        3.849793
   40        3.970458
   41        4.158563
   42        4.234141
   43        5.379830
   44        6.863479
   45        7.732404
   46        8.742020
   47        8.925283
   48        9.544721
   49        9.695974
   50       10.269480
   51       10.429691
   52       10.539672
 
  0.0000000E+00  0.0000000E+00  0.2500000E+00  0.1388889E-01
    1      -64.305942
    2      -64.250946
    3      -64.250941
    4      -64.228310
    5      -64.228305
    6      -64.221794
    7      -17.522023
    8      -17.517874
    9      -17.517873
   10      -17.428196
   11      -17.422592
   12       -9.721827
   13       -8.603915
   14       -8.332299
   15       -8.332299
   16       -3.493378
   17       -2.480259
   18       -2.442500
   19       -2.442499
   20       -2.380498
   21       -2.232441
   22       -1.216422
   23       -0.431399
   24        0.043092
   25        0.298567
   26        0.298567
   27        0.504206
   28        0.914613
   29        0.914613
   30        1.180907
   31        1.394741
   32        1.394744
   33        2.456749
   34        2.729707
   35        2.859543
   36        2.884279
   37        3.207500
   38        3.223204
   39        3.223214
   40        3.925808
   41        4.223863
   42        4.223871
   43        5.845767
   44        6.747620
   45        7.379892
   46        7.379896
   47        7.553940
   48        8.494000
   49        8.996365
   50        9.328517
   51       10.229675
   52       10.229680
 
  0.1666667E+00  0.0000000E+00  0.2500000E+00  0.2777778E-01
    1      -64.305839
    2      -64.251010
    3      -64.250955
    4      -64.228372
    5      -64.228317
    6      -64.221692
    7      -17.522104
    8      -17.518084
    9      -17.517956
   10      -17.428031
   11      -17.422532
   12       -9.741178
   13       -8.467208
   14       -8.404853
   15       -8.350656
   16       -3.425574
   17       -2.472551
   18       -2.437516
   19       -2.428897
   20       -2.407872
   21       -2.283543
   22       -1.133993
   23       -0.518398
   24       -0.272722
   25        0.121844
   26        0.332668
   27        0.523260
   28        0.789391
   29        0.907326
   30        1.271363
   31        1.362725
   32        1.455657
   33        2.569324
   34        2.730531
   35        2.821849
   36        2.918620
   37        3.048337
   38        3.174743
   39        3.280583
   40        3.845612
   41        4.236831
   42        4.551680
   43        5.711977
   44        7.039810
   45        7.476033
   46        7.874297
   47        7.962022
   48        9.061014
   49        9.559354
   50        9.763711
   51        9.897279
   52       10.164040
 
  0.3333333E+00  0.0000000E+00  0.2500000E+00  0.2777778E-01
    1      -64.305830
    2      -64.251072
    3      -64.251015
    4      -64.228437
    5      -64.228375
    6      -64.221680
    7      -17.522328
    8      -17.518391
    9      -17.518001
   10      -17.427732
   11      -17.422398
   12       -9.590288
   13       -8.607119
   14       -8.465598
   15       -8.346222
   16       -3.307498
   17       -2.497117
   18       -2.458344
   19       -2.418917
   20       -2.393537
   21       -2.289490
   22       -1.126674
   23       -0.670440
   24       -0.253996
   25       -0.005835
   26        0.258964
   27        0.447786
   28        0.717517
   29        0.912428
   30        1.247684
   31        1.351203
   32        1.617827
   33        2.706252
   34        2.781430
   35        2.828697
   36        2.884009
   37        3.017055
   38        3.249941
   39        3.400925
   40        3.721023
   41        4.001271
   42        4.252404
   43        6.170672
   44        7.702760
   45        7.893284
   46        7.958600
   47        8.540291
   48        9.294423
   49        9.770695
   50       10.060787
   51       10.438996
   52       10.493903
 
  0.5000000E+00  0.0000000E+00  0.2500000E+00  0.2777778E-01
    1      -64.305916
    2      -64.251088
    3      -64.250991
    4      -64.228455
    5      -64.228351
    6      -64.221762
    7      -17.522468
    8      -17.518494
    9      -17.517969
   10      -17.427593
   11      -17.422320
   12       -9.335742
   13       -8.768027
   14       -8.662732
   15       -8.323212
   16       -3.268437
   17       -2.551582
   18       -2.450602
   19       -2.395598
   20       -2.360652
   21       -2.233496
   22       -1.112437
   23       -0.555030
   24       -0.274438
   25        0.036501
   26        0.134667
   27        0.481306
   28        0.576695
   29        0.929537
   30        1.313961
   31        1.364021
   32        1.609859
   33        2.734340
   34        2.763803
   35        2.843523
   36        2.985376
   37        3.108379
   38        3.166861
   39        3.353121
   40        3.686708
   41        3.914842
   42        4.128066
   43        6.330491
   44        7.342351
   45        7.827306
   46        8.630112
   47        8.904932
   48        9.544841
   49        9.873670
   50       10.220128
   51       10.521863
   52       10.812582
 
 -0.3333333E+00  0.0000000E+00  0.2500000E+00  0.2777778E-01
    1      -64.305924
    2      -64.251128
    3      -64.250996
    4      -64.228494
    5      -64.228358
    6      -64.221773
    7      -17.522390
    8      -17.518281
    9      -17.517883
   10      -17.427755
   11      -17.422381
   12       -9.297794
   13       -8.809513
   14       -8.679990
   15       -8.333762
   16       -3.343712
   17       -2.555225
   18       -2.455397
   19       -2.427886
   20       -2.340907
   21       -2.146755
   22       -1.094486
   23       -0.428954
   24       -0.228250
   25       -0.006217
   26        0.307543
   27        0.564344
   28        0.789185
   29        0.916782
   30        1.270179
   31        1.370848
   32        1.483822
   33        2.702527
   34        2.732915
   35        2.838130
   36        2.962569
   37        3.120332
   38        3.182168
   39        3.409927
   40        3.585707
   41        3.790901
   42        4.209856
   43        6.227240
   44        7.051906
   45        7.584001
   46        8.304829
   47        8.399439
   48        9.104596
   49        9.543902
   50        9.883661
   51       10.128588
   52       10.481234
 
 -0.1666667E+00  0.0000000E+00  0.2500000E+00  0.2777778E-01
    1      -64.305968
    2      -64.251017
    3      -64.250958
    4      -64.228381
    5      -64.228322
    6      -64.221819
    7      -17.522168
    8      -17.517970
    9      -17.517835
   10      -17.428050
   11      -17.422520
   12       -9.542327
   13       -8.743721
   14       -8.441901
   15       -8.339207
   16       -3.452707
   17       -2.514903
   18       -2.456213
   19       -2.450061
   20       -2.357333
   21       -2.158192
   22       -1.212886
   23       -0.398801
   24       -0.001579
   25        0.280217
   26        0.367441
   27        0.571467
   28        0.816215
   29        0.928679
   30        1.263653
   31        1.355712
   32        1.415682
   33        2.553932
   34        2.742145
   35        2.832747
   36        2.885105
   37        3.155401
   38        3.247180
   39        3.422904
   40        3.651020
   41        3.894860
   42        4.253819
   43        6.040847
   44        7.057936
   45        7.079087
   46        7.273896
   47        7.917081
   48        8.548238
   49        9.065502
   50        9.352260
   51       10.424561
   52       10.520968
 
  0.1666667E+00  0.1666667E+00  0.2500000E+00  0.1388889E-01
    1      -64.305871
    2      -64.251019
    3      -64.250999
    4      -64.228381
    5      -64.228362
    6      -64.221723
    7      -17.522217
    8      -17.518172
    9      -17.518099
   10      -17.427868
   11      -17.422483
   12       -9.724811
   13       -8.461176
   14       -8.404281
   15       -8.358551
   16       -3.390432
   17       -2.471722
   18       -2.454940
   19       -2.435605
   20       -2.395129
   21       -2.307440
   22       -1.202684
   23       -0.699336
   24       -0.215295
   25        0.014463
   26        0.197669
   27        0.650447
   28        0.814285
   29        0.946256
   30        1.172425
   31        1.439426
   32        1.518529
   33        2.624862
   34        2.728810
   35        2.839271
   36        2.887370
   37        2.994773
   38        3.230720
   39        3.355168
   40        3.732155
   41        4.386845
   42        4.485029
   43        5.689377
   44        7.148067
   45        7.729158
   46        8.117123
   47        8.332694
   48        9.290800
   49        9.625545
   50        9.925989
   51       10.088546
   52       10.215881
 
  0.3333333E+00  0.1666667E+00  0.2500000E+00  0.1388889E-01
    1      -64.305848
    2      -64.251088
    3      -64.251001
    4      -64.228451
    5      -64.228365
    6      -64.221698
    7      -17.522483
    8      -17.518431
    9      -17.518112
   10      -17.427568
   11      -17.422352
   12       -9.544279
   13       -8.604687
   14       -8.504237
   15       -8.348252
   16       -3.335433
   17       -2.518334
   18       -2.443503
   19       -2.424134
   20       -2.378957
   21       -2.302983
   22       -1.341306
   23       -0.727509
   24       -0.404193
   25       -0.069891
   26        0.390122
   27        0.756551
   28        0.793399
   29        0.937136
   30        1.165334
   31        1.483838
   32        1.580037
   33        2.686425
   34        2.781368
   35        2.812999