       N       E                     dE             d eps       ncg     rms          rms(c)
DAV:   1     0.962457920353E+03    0.96246E+03   -0.44490E+04100556   0.198E+03
DAV:   2     0.100520724956E+03   -0.86194E+03   -0.83622E+03 84872   0.595E+02
DAV:   3    -0.273855929519E+02   -0.12791E+03   -0.12441E+03 93524   0.207E+02
DAV:   4    -0.355334437548E+02   -0.81479E+01   -0.80601E+01100216   0.506E+01
DAV:   5    -0.357673234550E+02   -0.23388E+00   -0.23339E+00104732   0.949E+00
DAV:   6    -0.357763909510E+02   -0.90675E-02   -0.90640E-02108424   0.168E+00
DAV:   7    -0.357768356187E+02   -0.44467E-03   -0.44463E-03117708   0.335E-01
DAV:   8    -0.357768498620E+02   -0.14243E-04   -0.14243E-04108240   0.500E-02
DAV:   9    -0.357768505271E+02   -0.66508E-06   -0.66518E-06 76164   0.915E-03
   1 F= -.35776851E+02 E0= -.35776851E+02  d E =-.357769E+02
