       N       E                     dE             d eps       ncg     rms          rms(c)
DAV:   1     0.333725884541E+03    0.33373E+03   -0.18678E+04 65328   0.799E+02
DAV:   2    -0.108341143073E+02   -0.34456E+03   -0.31796E+03 72656   0.204E+02
DAV:   3    -0.503227812905E+02   -0.39489E+02   -0.38921E+02 84208   0.783E+01
DAV:   4    -0.520239267670E+02   -0.17011E+01   -0.16983E+01 86872   0.188E+01
DAV:   5    -0.520678908799E+02   -0.43964E-01   -0.43958E-01 89644   0.283E+00
DAV:   6    -0.520694842888E+02   -0.15934E-02   -0.15934E-02 89720   0.498E-01
DAV:   7    -0.520695332776E+02   -0.48989E-04   -0.48989E-04 93212   0.700E-02
DAV:   8    -0.520695338242E+02   -0.54658E-06   -0.54656E-06 77108   0.800E-03
   1 F= -.52069534E+02 E0= -.52069534E+02  d E =-.296460E-21
