Name                                    
   1.00000000000000     
     5.654270    0.000000    0.000000
    -0.000000    5.654270    0.000000
    -0.000000   -0.000000    5.654270
   Na   Cl
     4     4
Direct
  0.000000  0.000000  0.000000
  0.000000  0.500000  0.500000
  0.500000  0.000000  0.500000
  0.500000  0.500000  0.000000
  0.500000  0.500000  0.500000
  0.500000  0.000000  0.000000
  0.000000  0.500000  0.000000
  0.000000  0.000000  0.500000
 
   64   64   64
  2.3054      2.2602      2.1301      1.9404      1.7419      1.5984      1.5713      1.7192      2.1040      2.7827    
  3.7991      5.1980      7.0563      9.5113      12.795      17.269      23.441      31.969      43.701      59.803    
  81.943      112.36      153.27      202.78      253.83      295.88      316.25      303.80      254.61      176.80    
  90.905      23.842     -1.5012      23.842      90.905      176.80      254.61      303.80      316.25      295.88    
  253.83      202.78      153.27      112.36      81.943      59.803      43.701      31.969      23.441      17.269    
  12.795      9.5113      7.0563      5.1980      3.7991      2.7827      2.1040      1.7192      1.5713      1.5984    
  1.7419      1.9404      2.1301      2.2602      2.2602      2.2157      2.0881      1.9025      1.7093      1.5720    
  1.5510      1.7042      2.0920      2.7699      3.7807      5.1687      7.0096      9.4388      12.685      17.105    
  23.199      31.614      43.182      59.043      80.825      110.70      150.91      199.84      250.71      293.37    
  315.60      306.61      262.44      190.61      110.48      47.638      23.842      47.638      110.48      190.61    
  262.44      306.61      315.60      293.37      250.71      199.84      150.91      110.70      80.825      59.043    
  43.182      31.614      23.199      17.105      12.685      9.4388      7.0096      5.1687      3.7807      2.7699    
  2.0920      1.7042      1.5510      1.5720      1.7093      1.9025      2.0881      2.2157      2.1301      2.0881    
  1.9682      1.7953      1.6187      1.4998      1.4971      1.6656      2.0613      2.7358      3.7292      5.0840    
  6.8730      9.2262      12.363      16.626      22.490      30.576      41.670      56.836      77.582      105.93    
  144.07      191.19      241.33      285.41      312.47      312.66      281.98      226.29      161.85      110.48    
  90.905      110.48      161.85      226.29      281.98      312.66      312.47      285.41      241.33      191.19    
  144.07      105.93      77.582      56.836      41.670      30.576      22.490      16.626      12.363      9.2262    
  6.8730      5.0840      3.7292      2.7358      2.0613      1.6656      1.4971      1.4998      1.6187      1.7953    
  1.9682      2.0881      1.9404      1.9025      1.7953      1.6437      1.4943      1.4051      1.4309      1.6220    
  2.0278      2.6931      3.6547      4.9530      6.6568      8.8877      11.852      15.865      21.370      28.939    
  39.292      53.381      72.532      98.520      133.39      177.38      225.80      271.08      304.00      316.10    
  303.33      269.40      226.29      190.61      176.80      190.61      226.29      269.40      303.33      316.10    
  304.00      271.08      225.80      177.38      133.39      98.520      72.532      53.381      39.292      28.939    
  21.370      15.865      11.852      8.8877      6.6568      4.9530      3.6547      2.6931      2.0278      1.6220    
  1.4309      1.4051      1.4943      1.6437      1.7953      1.9025      1.7419      1.7093      1.6187      1.4943    
  1.3794      1.3269      1.3865      1.6019      2.0139      2.6598      3.5721      4.7897      6.3769      8.4459    
  11.185      14.877      19.921      26.828      36.237      48.968      66.132      89.207      119.94      159.41    
  204.69      249.79      287.41      310.58      315.38      303.33      281.98      262.44      254.61      262.44    
  281.98      303.33      315.38      310.58      287.41      249.79      204.69      159.41      119.94      89.207    
  66.132      48.968      36.237      26.828      19.921      14.877      11.185      8.4459      6.3769      4.7897    
  3.5721      2.6598      2.0139      1.6019      1.3865      1.3269      1.3794      1.4943      1.6187      1.7093    
  1.5984      1.5720      1.4998      1.4051      1.3269      1.3118      1.4031      1.6369      2.0447      2.6557    
  3.4987      4.6114      6.0541      7.9301      10.406      13.727      18.240      24.391      32.728      43.936    
  58.905      78.798      105.01      138.82      179.30      222.10      261.63      292.36      310.58      316.10    
  312.66      306.61      303.80      306.61      312.66      316.10      310.58      292.36      261.63      222.10    
  179.30      138.82      105.01      78.798      58.905      43.936      32.728      24.391      18.240      13.727    
  10.406      7.9301      6.0541      4.6114      3.4987      2.6557      2.0447      1.6369      1.4031      1.3118    
  1.3269      1.4051      1.4998      1.5720      1.5713      1.5510      1.4971      1.4309      1.3865      1.4031    
  1.5166      1.7552      2.1419      2.6985      3.4510      4.4363      5.7123      7.3739      9.5631      12.487    
  16.435      21.784      28.996      38.624      51.357      68.062      89.775      117.53      151.72      189.93    
  228.01      261.63      287.41      304.00      312.47      315.60      316.25      315.60      312.47      304.00    
  287.41      261.63      228.01      189.93      151.72      117.53      89.775      68.062      51.357      38.624    
  28.996      21.784      16.435      12.487      9.5631      7.3739      5.7123      4.4363      3.4510      2.6985    
  2.1419      1.7552      1.5166      1.4031      1.3865      1.4309      1.4971      1.5510      1.7192      1.7042    
  1.6656      1.6220      1.6019      1.6369      1.7552      1.9780      2.3212      2.8016      3.4432      4.2826    
  5.3776      6.8127      8.7059      11.225      14.605      19.154      25.250      33.332      43.921      57.632    
  75.184      97.302      124.49      156.27      189.93      222.10      249.79      271.08      285.41      293.37    
  295.88      293.37      285.41      271.08      249.79      222.10      189.93      156.27      124.49      97.302    
  75.184      57.632      43.921      33.332      25.250      19.154      14.605      11.225      8.7059      6.8127    
  5.3776      4.2826      3.4432      2.8016      2.3212      1.9780      1.7552      1.6369      1.6019      1.6220    
  1.6656      1.7042      2.1040      2.0920      2.0613      2.0278      2.0139      2.0447      2.1419      2.3212    
  2.5946      2.9761      3.4884      4.1695      5.0760      6.2809      7.8799      10.005      12.839      16.626    
  21.666      28.305      36.927      47.959      61.864      79.101      99.988      124.49      151.72      179.30    
  204.69      225.80      241.33      250.71      253.83      250.71      241.33      225.80      204.69      179.30    
  151.72      124.49      99.988      79.101      61.864      47.959      36.927      28.305      21.666      16.626    
  12.839      10.005      7.8799      6.2809      5.0760      4.1695      3.4884      2.9761      2.5946      2.3212    
  2.1419      2.0447      2.0139      2.0278      2.0613      2.0920      2.7827      2.7699      2.7358      2.6931    
  2.6598      2.6557      2.6985      2.8016      2.9761      3.2354      3.6032      4.1189      4.8339      5.8103    
  7.1243      8.8762      11.204      14.293      18.374      23.715      30.599      39.316      50.153      63.362    
  79.101      97.302      117.53      138.82      159.41      177.38      191.19      199.84      202.78      199.84    
  191.19      177.38      159.41      138.82      117.53      97.302      79.101      63.362      50.153      39.316    
  30.599      23.715      18.374      14.293      11.204      8.8762      7.1243      5.8103      4.8339      4.1189    
  3.6032      3.2354      2.9761      2.8016      2.6985      2.6557      2.6598      2.6931      2.7358      2.7699    
  3.7991      3.7807      3.7292      3.6547      3.5721      3.4987      3.4510      3.4432      3.4884      3.6032    
  3.8141      4.1576      4.6790      5.4301      6.4711      7.8766      9.7465      12.216      15.457      19.669    
  25.062      31.833      40.155      50.153      61.864      75.184      89.775      105.01      119.94      133.39    
  144.07      150.91      153.27      150.91      144.07      133.39      119.94      105.01      89.775      75.184    
  61.864      50.153      40.155      31.833      25.062      19.669      15.457      12.216      9.7465      7.8766    
  6.4711      5.4301      4.6790      4.1576      3.8141      3.6032      3.4884      3.4432      3.4510      3.4987    
  3.5721      3.6547      3.7292      3.7807      5.1980      5.1687      5.0840      4.9530      4.7897      4.6114    
  4.4363      4.2826      4.1695      4.1189      4.1576      4.3188      4.6413      5.1683      5.9468      7.0320    
  8.4939      10.427      12.952      16.213      20.360      25.532      31.833      39.316      47.959      57.632    
  68.062      78.798      89.207      98.520      105.93      110.70      112.36      110.70      105.93      98.520    
  89.207      78.798      68.062      57.632      47.959      39.316      31.833      25.532      20.360      16.213    
  12.952      10.427      8.4939      7.0320      5.9468      5.1683      4.6413      4.3188      4.1576      4.1189    
  4.1695      4.2826      4.4363      4.6114      4.7897      4.9530      5.0840      5.1687      7.0563      7.0096    
  6.8730      6.6568      6.3769      6.0541      5.7123      5.3776      5.0760      4.8339      4.6790      4.6413    
  4.7541      5.0529      5.5749      6.3610      7.4592      8.9321      10.860      13.340      16.475      20.360    
  25.062      30.599      36.927      43.921      51.357      58.905      66.132      72.532      77.582      80.825    
  81.943      80.825      77.582      72.532      66.132      58.905      51.357      43.921      36.927      30.599    
  25.062      20.360      16.475      13.340      10.860      8.9321      7.4592      6.3610      5.5749      5.0529    
  4.7541      4.6413      4.6790      4.8339      5.0760      5.3776      5.7123      6.0541      6.3769      6.6568    
  6.8730      7.0096      9.5113      9.4388      9.2262      8.8877      8.4459      7.9301      7.3739      6.8127    
  6.2809      5.8103      5.4301      5.1683      5.0529      5.1130      5.3782      5.8791      6.6484      7.7254    
  9.1589      11.008      13.340      16.213      19.669      23.715      28.305      33.332      38.624      43.936    
  48.968      53.381      56.836      59.043      59.803      59.043      56.836      53.381      48.968      43.936    
  38.624      33.332      28.305      23.715      19.669      16.213      13.340      11.008      9.1589      7.7254    
  6.6484      5.8791      5.3782      5.1130      5.0529      5.1683      5.4301      5.8103      6.2809      6.8127    
  7.3739      7.9301      8.4459      8.8877      9.2262      9.4388      12.795      12.685      12.363      11.852    
  11.185      10.406      9.5631      8.7059      7.8799      7.1243      6.4711      5.9468      5.5749      5.3782    
  5.3795      5.6011      6.0652      6.7947      7.8156      9.1589      10.860      12.952      15.457      18.374    
  21.666      25.250      28.996      32.728      36.237      39.292      41.670      43.182      43.701      43.182    
  41.670      39.292      36.237      32.728      28.996      25.250      21.666      18.374      15.457      12.952    
  10.860      9.1589      7.8156      6.7947      6.0652      5.6011      5.3795      5.3782      5.5749      5.9468    
  6.4711      7.1243      7.8799      8.7059      9.5631      10.406      11.185      11.852      12.363      12.685    
  17.269      17.105      16.626      15.865      14.877      13.727      12.487      11.225      10.005      8.8762    
  7.8766      7.0320      6.3610      5.8791      5.6011      5.5415      5.7132      6.1276      6.7947      7.7254    
  8.9321      10.427      12.216      14.293      16.626      19.154      21.784      24.391      26.828      28.939    
  30.576      31.614      31.969      31.614      30.576      28.939      26.828      24.391      21.784      19.154    
  16.626      14.293      12.216      10.427      8.9321      7.7254      6.7947      6.1276      5.7132      5.5415    
  5.6011      5.8791      6.3610      7.0320      7.8766      8.8762      10.005      11.225      12.487      13.727    
  14.877      15.865      16.626      17.105      23.441      23.199      22.490      21.370      19.921      18.240    
  16.435      14.605      12.839      11.204      9.7465      8.4939      7.4592      6.6484      6.0652      5.7132    
  5.5955      5.7132      6.0652      6.6484      7.4592      8.4939      9.7465      11.204      12.839      14.605    
  16.435      18.240      19.921      21.370      22.490      23.199      23.441      23.199      22.490      21.370    
  19.921      18.240      16.435      14.605      12.839      11.204      9.7465      8.4939      7.4592      6.6484    
  6.0652      5.7132      5.5955      5.7132      6.0652      6.6484      7.4592      8.4939      9.7465      11.204    
  12.839      14.605      16.435      18.240      19.921      21.370      22.490      23.199      31.969      31.614    
  30.576      28.939      26.828      24.391      21.784      19.154      16.626      14.293      12.216      10.427    
  8.9321      7.7254      6.7947      6.1276      5.7132      5.5415      5.6011      5.8791      6.3610      7.0320    
  7.8766      8.8762      10.005      11.225      12.487      13.727      14.877      15.865      16.626      17.105    
  17.269      17.105      16.626      15.865      14.877      13.727      12.487      11.225      10.005      8.8762    
  7.8766      7.0320      6.3610      5.8791      5.6011      5.5415      5.7132      6.1276      6.7947      7.7254    
  8.9321      10.427      12.216      14.293      16.626      19.154      21.784      24.391      26.828      28.939    
  30.576      31.614      43.701      43.182      41.670      39.292      36.237      32.728      28.996      25.250    
  21.666      18.374      15.457      12.952      10.860      9.1589      7.8156      6.7947      6.0652      5.6011    
  5.3795      5.3782      5.5749      5.9468      6.4711      7.1243      7.8799      8.7059      9.5631      10.406    
  11.185      11.852      12.363      12.685      12.795      12.685      12.363      11.852      11.185      10.406    
  9.5631      8.7059      7.8799      7.1243      6.4711      5.9468      5.5749      5.3782      5.3795      5.6011    
  6.0652      6.7947      7.8156      9.1589      10.860      12.952      15.457      18.374      21.666      25.250    
  28.996      32.728      36.237      39.292      41.670      43.182      59.803      59.043      56.836      53.381    
  48.968      43.936      38.624      33.332      28.305      23.715      19.669      16.213      13.340      11.008    
  9.1589      7.7254      6.6484      5.8791      5.3782      5.1130      5.0529      5.1683      5.4301      5.8103    
  6.2809      6.8127      7.3739      7.9301      8.4459      8.8877      9.2262      9.4388      9.5113      9.4388    
  9.2262      8.8877      8.4459      7.9301      7.3739      6.8127      6.2809      5.8103      5.4301      5.1683    
  5.0529      5.1130      5.3782      5.8791      6.6484      7.7254      9.1589      11.008      13.340      16.213    
  19.669      23.715      28.305      33.332      38.624      43.936      48.968      53.381      56.836      59.043    
  81.943      80.825      77.582      72.532      66.132      58.905      51.357      43.921      36.927      30.599    
  25.062      20.360      16.475      13.340      10.860      8.9321      7.4592      6.3610      5.5749      5.0529    
  4.7541      4.6413      4.6790      4.8339      5.0760      5.3776      5.7123      6.0541      6.3769      6.6568    
  6.8730      7.0096      7.0563      7.0096      6.8730      6.6568      6.3769      6.0541      5.7123      5.3776    
  5.0760      4.8339      4.6790      4.6413      4.7541      5.0529      5.5749      6.3610      7.4592      8.9321    
  10.860      13.340      16.475      20.360      25.062      30.599      36.927      43.921      51.357      58.905    
  66.132      72.532      77.582      80.825      112.36      110.70      105.93      98.520      89.207      78.798    
  68.062      57.632      47.959      39.316      31.833      25.532      20.360      16.213      12.952      10.427    
  8.4939      7.0320      5.9468      5.1683      4.6413      4.3188      4.1576      4.1189      4.1695      4.2826    
  4.4363      4.6114      4.7897      4.9530      5.0840      5.1687      5.1980      5.1687      5.0840      4.9530    
  4.7897      4.6114      4.4363      4.2826      4.1695      4.1189      4.1576      4.3188      4.6413      5.1683    
  5.9468      7.0320      8.4939      10.427      12.952      16.213      20.360      25.532      31.833      39.316    
  47.959      57.632      68.062      78.798      89.207      98.520      105.93      110.70      153.27      150.91    
  144.07      133.39      119.94      105.01      89.775      75.184      61.864      50.153      40.155      31.833    
  25.062      19.669      15.457      12.216      9.7465      7.8766      6.4711      5.4301      4.6790      4.1576    
  3.8141      3.6032      3.4884      3.4432      3.4510      3.4987      3.5721      3.6547      3.7292      3.7807    
  3.7991      3.7807      3.7292      3.6547      3.5721      3.4987      3.4510      3.4432      3.4884      3.6032    
  3.8141      4.1576      4.6790      5.4301      6.4711      7.8766      9.7465      12.216      15.457      19.669    
  25.062      31.833      40.155      50.153      61.864      75.184      89.775      105.01      119.94      133.39    
  144.07      150.91      202.78      199.84      191.19      177.38      159.41      138.82      117.53      97.302    
  79.101      63.362      50.153      39.316      30.599      23.715      18.374      14.293      11.204      8.8762    
  7.1243      5.8103      4.8339      4.1189      3.6032      3.2354      2.9761      2.8016      2.6985      2.6557    
  2.6598      2.6931      2.7358      2.7699      2.7827      2.7699      2.7358      2.6931      2.6598      2.6557    
  2.6985      2.8016      2.9761      3.2354      3.6032      4.1189      4.8339      5.8103      7.1243      8.8762    
  11.204      14.293      18.374      23.715      30.599      39.316      50.153      63.362      79.101      97.302    
  117.53      138.82      159.41      177.38      191.19      199.84      253.83      250.71      241.33      225.80    
  204.69      179.30      151.72      124.49      99.988      79.101      61.864      47.959      36.927      28.305    
  21.666      16.626      12.839      10.005      7.8799      6.2809      5.0760      4.1695      3.4884      2.9761    
  2.5946      2.3212      2.1419      2.0447      2.0139      2.0278      2.0613      2.0920      2.1040      2.0920    
  2.0613      2.0278      2.0139      2.0447      2.1419      2.3212      2.5946      2.9761      3.4884      4.1695    
  5.0760      6.2809      7.8799      10.005      12.839      16.626      21.666      28.305      36.927      47.959    
  61.864      79.101      99.988      124.49      151.72      179.30      204.69      225.80      241.33      250.71    
  295.88      293.37      285.41      271.08      249.79      222.10      189.93      156.27      124.49      97.302    
  75.184      57.632      43.921      33.332      25.250      19.154      14.605      11.225      8.7059      6.8127    
  5.3776      4.2826      3.4432      2.8016      2.3212      1.9780      1.7552      1.6369      1.6019      1.6220    
  1.6656      1.7042      1.7192      1.7042      1.6656      1.6220      1.6019      1.6369      1.7552      1.9780    
  2.3212      2.8016      3.4432      4.2826      5.3776      6.8127      8.7059      11.225      14.605      19.154    
  25.250      33.332      43.921      57.632      75.184      97.302      124.49      156.27      189.93      222.10    
  249.79      271.08      285.41      293.37      316.25      315.60      312.47      304.00      287.41      261.63    
  228.01      189.93      151.72      117.53      89.775      68.062      51.357      38.624      28.996      21.784    
  16.435      12.487      9.5631      7.3739      5.7123      4.4363      3.4510      2.6985      2.1419      1.7552    
  1.5166      1.4031      1.3865      1.4309      1.4971      1.5510      1.5713      1.5510      1.4971      1.4309    
  1.3865      1.4031      1.5166      1.7552      2.1419      2.6985      3.4510      4.4363      5.7123      7.3739    
  9.5631      12.487      16.435      21.784      28.996      38.624      51.357      68.062      89.775      117.53    
  151.72      189.93      228.01      261.63      287.41      304.00      312.47      315.60      303.80      306.61    
  312.66      316.10      310.58      292.36      261.63      222.10      179.30      138.82      105.01      78.798    
  58.905      43.936      32.728      24.391      18.240      13.727      10.406      7.9301      6.0541      4.6114    
  3.4987      2.6557      2.0447      1.6369      1.4031      1.3118      1.3269      1.4051      1.4998      1.5720    
  1.5984      1.5720      1.4998      1.4051      1.3269      1.3118      1.4031      1.6369      2.0447      2.6557    
  3.4987      4.6114      6.0541      7.9301      10.406      13.727      18.240      24.391      32.728      43.936    
  58.905      78.798      105.01      138.82      179.30      222.10      261.63      292.36      310.58      316.10    
  312.66      306.61      254.61      262.44      281.98      303.33      315.38      310.58      287.41      249.79    
  204.69      159.41      119.94      89.207      66.132      48.968      36.237      26.828      19.921      14.877    
  11.185      8.4459      6.3769      4.7897      3.5721      2.6598      2.0139      1.6019      1.3865      1.3269    
  1.3794      1.4943      1.6187      1.7093      1.7419      1.7093      1.6187      1.4943      1.3794      1.3269    
  1.3865      1.6019      2.0139      2.6598      3.5721      4.7897      6.3769      8.4459      11.185      14.877    
  19.921      26.828      36.237      48.968      66.132      89.207      119.94      159.41      204.69      249.79    
  287.41      310.58      315.38      303.33      281.98      262.44      176.80      190.61      226.29      269.40    
  303.33      316.10      304.00      271.08      225.80      177.38      133.39      98.520      72.532      53.381    
  39.292      28.939      21.370      15.865      11.852      8.8877      6.6568      4.9530      3.6547      2.6931    
  2.0278      1.6220      1.4309      1.4051      1.4943      1.6437      1.7953      1.9025      1.9404      1.9025    
  1.7953      1.6437      1.4943      1.4051      1.4309      1.6220      2.0278      2.6931      3.6547      4.9530    
  6.6568      8.8877      11.852      15.865      21.370      28.939      39.292      53.381      72.532      98.520    
  133.39      177.38      225.80      271.08      304.00      316.10      303.33      269.40      226.29      190.61    
  90.905      110.48      161.85      226.29      281.98      312.66      312.47      285.41      241.33      191.19    
  144.07      105.93      77.582      56.836      41.670      30.576      22.490      16.626      12.363      9.2262    
  6.8730      5.0840      3.7292      2.7358      2.0613      1.6656      1.4971      1.4998      1.6187      1.7953    
  1.9682      2.0881      2.1301      2.0881      1.9682      1.7953      1.6187      1.4998      1.4971      1.6656    
  2.0613      2.7358      3.7292      5.0840      6.8730      9.2262      12.363      16.626      22.490      30.576    
  41.670      56.836      77.582      105.93      144.07      191.19      241.33      285.41      312.47      312.66    
  281.98      226.29      161.85      110.48      23.842      47.638      110.48      190.61      262.44      306.61    
  315.60      293.37      250.71      199.84      150.91      110.70      80.825      59.043      43.182      31.614    
  23.199      17.105      12.685      9.4388      7.0096      5.1687      3.7807      2.7699      2.0920      1.7042    
  1.5510      1.5720      1.7093      1.9025      2.0881      2.2157      2.2602      2.2157      2.0881      1.9025    
  1.7093      1.5720      1.5510      1.7042      2.0920      2.7699      3.7807      5.1687      7.0096      9.4388    
  12.685      17.105      23.199      31.614      43.182      59.043      80.825      110.70      150.91      199.84    
  250.71      293.37      315.60      306.61      262.44      190.61      110.48      47.638     -1.5012      23.842    
  90.905      176.80      254.61      303.80      316.25      295.88      253.83      202.78      153.27      112.36    
  81.943      59.803      43.701      31.969      23.441      17.269      12.795      9.5113      7.0563      5.1980    
  3.7991      2.7827      2.1040      1.7192      1.5713      1.5984      1.7419      1.9404      2.1301      2.2602    
  2.3054      2.2602      2.1301      1.9404      1.7419      1.5984      1.5713      1.7192      2.1040      2.7827    
  3.7991      5.1980      7.0563      9.5113      12.795      17.269      23.441      31.969      43.701      59.803    
  81.943      112.36      153.27      202.78      253.83      295.88      316.25      303.80      254.61      176.80    
  90.905      23.842      23.842      47.638      110.48      190.61      262.44      306.61      315.60      293.37    
  250.71      199.84      150.91      110.70      80.825      59.043      43.182      31.614      23.199      17.105    
  12.685      9.4388      7.0096      5.1687      3.7807      2.7699      2.0920      1.7042      1.5510      1.5720    
  1.7093      1.9025      2.0881      2.2157      2.2602      2.2157      2.0881      1.9025      1.7093      1.5720    
  1.5510      1.7042      2.0920      2.7699      3.7807      5.1687      7.0096      9.4388      12.685      17.105    
  23.199      31.614      43.182      59.043      80.825      110.70      150.91      199.84      250.71      293.37    
  315.60      306.61      262.44      190.61      110.48      47.638      90.905      110.48      161.85      226.29    
  281.98      312.66      312.47      285.41      241.33      191.19      144.07      105.93      77.582      56.836    
  41.670      30.576      22.490      16.626      12.363      9.2262      6.8730      5.0840      3.7292      2.7358    
  2.0613      1.6656      1.4971      1.4998      1.6187      1.7953      1.9682      2.0881      2.1301      2.0881    
  1.9682      1.7953      1.6187      1.4998      1.4971      1.6656      2.0613      2.7358      3.7292      5.0840    
  6.8730      9.2262      12.363      16.626      22.490      30.576      41.670      56.836      77.582      105.93    
  144.07      191.19      241.33      285.41      312.47      312.66      281.98      226.29      161.85      110.48    
  176.80      190.61      226.29      269.40      303.33      316.10      304.00      271.08      225.80      177.38    
  133.39      98.520      72.532      53.381      39.292      28.939      21.370      15.865      11.852      8.8877    
  6.6568      4.9530      3.6547      2.6931      2.0278      1.6220      1.4309      1.4051      1.4943      1.6437    
  1.7953      1.9025      1.9404      1.9025      1.7953      1.6437      1.4943      1.4051      1.4309      1.6220    
  2.0278      2.6931      3.6547      4.9530      6.6568      8.8877      11.852      15.865      21.370      28.939    
  39.292      53.381      72.532      98.520      133.39      177.38      225.80      271.08      304.00      316.10    
  303.33      269.40      226.29      190.61      254.61      262.44      281.98      303.33      315.38      310.58    
  287.41      249.79      204.69      159.41      119.94      89.207      66.132      48.968      36.237      26.828    
  19.921      14.877      11.185      8.4459      6.3769      4.7897      3.5721      2.6598      2.0139      1.6019    
  1.3865      1.3269      1.3794      1.4943      1.6187      1.7093      1.7419      1.7093      1.6187      1.4943    
  1.3794      1.3269      1.3865      1.6019      2.0139      2.6598      3.5721      4.7897      6.3769      8.4459    
  11.185      14.877      19.921      26.828      36.237      48.968      66.132      89.207      119.94      159.41    
  204.69      249.79      287.41      310.58      315.38      303.33      281.98      262.44      303.80      306.61    
  312.66      316.10      310.58      292.36      261.63      222.10      179.30      138.82      105.01      78.798    
  58.905      43.936      32.728      24.391      18.240      13.727      10.406      7.9301      6.0541      4.6114    
  3.4987      2.6557      2.0447      1.6369      1.4031      1.3118      1.3269      1.4051      1.4998      1.5720    
  1.5984      1.5720      1.4998      1.4051      1.3269      1.3118      1.4031      1.6369      2.0447      2.6557    
  3.4987      4.6114      6.0541      7.9301      10.406      13.727      18.240      24.391      32.728      43.936    
  58.905      78.798      105.01      138.82      179.30      222.10      261.63      292.36      310.58      316.10    