   8   8   1   0
  0.2263277E+02  0.5657300E-09  0.5657300E-09  0.5657300E-09  0.5000000E-15
  1.000000000000000E-004
  CAR 
 Name                                    
     11.15491830    -14.36519712  301     -0.07260331      1.00000000
    -14.365  0.0000E+00  0.0000E+00
    -14.280  0.0000E+00  0.0000E+00
    -14.195  0.0000E+00  0.0000E+00
    -14.110  0.0000E+00  0.0000E+00
    -14.025  0.0000E+00  0.0000E+00
    -13.940  0.0000E+00  0.0000E+00
    -13.855  0.0000E+00  0.0000E+00
    -13.770  0.2651E-17  0.2255E-18
    -13.685  0.2238E-13  0.1904E-14
    -13.600  0.4695E-10  0.3996E-11
    -13.515  0.2510E-07  0.2140E-08
    -13.429  0.3666E-05  0.3140E-06
    -13.344  0.1642E-03  0.1428E-04
    -13.259  0.2600E-02  0.2354E-03
    -13.174  0.1645E-01  0.1635E-02
    -13.089  0.4986E-01  0.5876E-02
    -13.004  0.1113E+00  0.1535E-01
    -12.919  0.2281E+00  0.3475E-01
    -12.834  0.3079E+00  0.6094E-01
    -12.749  0.1835E+00  0.7656E-01
    -12.664  0.3800E-01  0.7979E-01
    -12.579  0.2431E-02  0.8000E-01
    -12.494  0.4464E-04  0.8000E-01
    -12.409  0.2225E-06  0.8000E-01
    -12.324  0.2883E-09  0.8000E-01
    -12.239  0.9421E-13  0.8000E-01
    -12.153  0.2447E-17  0.8000E-01
    -12.068  0.0000E+00  0.8000E-01
    -11.983  0.0000E+00  0.8000E-01
    -11.898  0.0000E+00  0.8000E-01
    -11.813  0.0000E+00  0.8000E-01
    -11.728  0.0000E+00  0.8000E-01
    -11.643  0.0000E+00  0.8000E-01
    -11.558  0.0000E+00  0.8000E-01
    -11.473  0.0000E+00  0.8000E-01
    -11.388  0.0000E+00  0.8000E-01
    -11.303  0.0000E+00  0.8000E-01
    -11.218  0.0000E+00  0.8000E-01
    -11.133  0.0000E+00  0.8000E-01
    -11.048  0.0000E+00  0.8000E-01
    -10.963  0.0000E+00  0.8000E-01
    -10.877  0.0000E+00  0.8000E-01
    -10.792  0.0000E+00  0.8000E-01
    -10.707  0.0000E+00  0.8000E-01
    -10.622  0.0000E+00  0.8000E-01
    -10.537  0.0000E+00  0.8000E-01
    -10.452  0.0000E+00  0.8000E-01
    -10.367  0.0000E+00  0.8000E-01
    -10.282  0.0000E+00  0.8000E-01
    -10.197  0.0000E+00  0.8000E-01
    -10.112  0.0000E+00  0.8000E-01
    -10.027  0.0000E+00  0.8000E-01
     -9.942  0.0000E+00  0.8000E-01
     -9.857  0.0000E+00  0.8000E-01
     -9.772  0.0000E+00  0.8000E-01
     -9.687  0.0000E+00  0.8000E-01
     -9.601  0.0000E+00  0.8000E-01
     -9.516  0.0000E+00  0.8000E-01
     -9.431  0.0000E+00  0.8000E-01
     -9.346  0.0000E+00  0.8000E-01
     -9.261  0.0000E+00  0.8000E-01
     -9.176  0.0000E+00  0.8000E-01
     -9.091  0.0000E+00  0.8000E-01
     -9.006  0.0000E+00  0.8000E-01
     -8.921  0.0000E+00  0.8000E-01
     -8.836  0.0000E+00  0.8000E-01
     -8.751  0.0000E+00  0.8000E-01
     -8.666  0.0000E+00  0.8000E-01
     -8.581  0.0000E+00  0.8000E-01
     -8.496  0.0000E+00  0.8000E-01
     -8.411  0.0000E+00  0.8000E-01
     -8.325  0.0000E+00  0.8000E-01
     -8.240  0.0000E+00  0.8000E-01
     -8.155  0.0000E+00  0.8000E-01
     -8.070  0.0000E+00  0.8000E-01
     -7.985  0.0000E+00  0.8000E-01
     -7.900  0.0000E+00  0.8000E-01
     -7.815  0.0000E+00  0.8000E-01
     -7.730  0.0000E+00  0.8000E-01
     -7.645  0.0000E+00  0.8000E-01
     -7.560  0.0000E+00  0.8000E-01
     -7.475  0.0000E+00  0.8000E-01
     -7.390  0.0000E+00  0.8000E-01
     -7.305  0.0000E+00  0.8000E-01
     -7.220  0.0000E+00  0.8000E-01
     -7.134  0.0000E+00  0.8000E-01
     -7.049  0.0000E+00  0.8000E-01
     -6.964  0.0000E+00  0.8000E-01
     -6.879  0.0000E+00  0.8000E-01
     -6.794  0.0000E+00  0.8000E-01
     -6.709  0.0000E+00  0.8000E-01
     -6.624  0.0000E+00  0.8000E-01
     -6.539  0.0000E+00  0.8000E-01
     -6.454  0.0000E+00  0.8000E-01
     -6.369  0.0000E+00  0.8000E-01
     -6.284  0.0000E+00  0.8000E-01
     -6.199  0.0000E+00  0.8000E-01
     -6.114  0.0000E+00  0.8000E-01
     -6.029  0.0000E+00  0.8000E-01
     -5.944  0.0000E+00  0.8000E-01
     -5.858  0.0000E+00  0.8000E-01
     -5.773  0.0000E+00  0.8000E-01
     -5.688  0.0000E+00  0.8000E-01
     -5.603  0.0000E+00  0.8000E-01
     -5.518  0.0000E+00  0.8000E-01
     -5.433  0.0000E+00  0.8000E-01
     -5.348  0.0000E+00  0.8000E-01
     -5.263  0.0000E+00  0.8000E-01
     -5.178  0.0000E+00  0.8000E-01
     -5.093  0.0000E+00  0.8000E-01
     -5.008  0.0000E+00  0.8000E-01
     -4.923  0.0000E+00  0.8000E-01
     -4.838  0.0000E+00  0.8000E-01
     -4.753  0.0000E+00  0.8000E-01
     -4.668  0.0000E+00  0.8000E-01
     -4.582  0.0000E+00  0.8000E-01
     -4.497  0.0000E+00  0.8000E-01
     -4.412  0.0000E+00  0.8000E-01
     -4.327  0.0000E+00  0.8000E-01
     -4.242  0.0000E+00  0.8000E-01
     -4.157  0.0000E+00  0.8000E-01
     -4.072  0.0000E+00  0.8000E-01
     -3.987  0.0000E+00  0.8000E-01
     -3.902  0.0000E+00  0.8000E-01
     -3.817  0.0000E+00  0.8000E-01
     -3.732  0.0000E+00  0.8000E-01
     -3.647  0.0000E+00  0.8000E-01
     -3.562  0.0000E+00  0.8000E-01
     -3.477  0.0000E+00  0.8000E-01
     -3.392  0.0000E+00  0.8000E-01
     -3.306  0.0000E+00  0.8000E-01
     -3.221  0.0000E+00  0.8000E-01
     -3.136  0.0000E+00  0.8000E-01
     -3.051  0.8157E-18  0.8000E-01
     -2.966  0.1249E-13  0.8000E-01
     -2.881  0.3524E-10  0.8000E-01
     -2.796  0.2423E-07  0.8000E-01
     -2.711  0.4125E-05  0.8000E-01
     -2.626  0.1779E-03  0.8002E-01
     -2.541  0.2016E-02  0.8019E-01
     -2.456  0.6784E-02  0.8076E-01
     -2.371  0.1521E-01  0.8206E-01
     -2.286  0.4775E-01  0.8612E-01
     -2.201  0.9171E-01  0.9392E-01
     -2.116  0.1334E+00  0.1053E+00
     -2.030  0.1752E+00  0.1202E+00
     -1.945  0.1522E+00  0.1331E+00
     -1.860  0.8809E-01  0.1406E+00
     -1.775  0.7276E-01  0.1468E+00
     -1.690  0.9168E-01  0.1546E+00
     -1.605  0.9460E-01  0.1626E+00
     -1.520  0.4721E-01  0.1667E+00
     -1.435  0.2974E-01  0.1692E+00
     -1.350  0.1141E+00  0.1789E+00
     -1.265  0.1891E+00  0.1950E+00
     -1.180  0.1390E+00  0.2068E+00
     -1.095  0.1566E+00  0.2201E+00
     -1.010  0.2592E+00  0.2422E+00
     -0.925  0.2504E+00  0.2635E+00
     -0.840  0.2390E+00  0.2838E+00
     -0.754  0.2103E+00  0.3017E+00
     -0.669  0.1209E+00  0.3120E+00
     -0.584  0.6651E-01  0.3176E+00
     -0.499  0.2378E-01  0.3197E+00
     -0.414  0.3771E-02  0.3200E+00
     -0.329  0.2412E-03  0.3200E+00
     -0.244  0.5272E-05  0.3200E+00
     -0.159  0.3308E-07  0.3200E+00
     -0.074  0.5389E-10  0.3200E+00
      0.011  0.2177E-13  0.3200E+00
      0.096  0.2447E-17  0.3200E+00
      0.181  0.0000E+00  0.3200E+00
      0.266  0.0000E+00  0.3200E+00
      0.351  0.0000E+00  0.3200E+00
      0.436  0.0000E+00  0.3200E+00
      0.522  0.0000E+00  0.3200E+00
      0.607  0.0000E+00  0.3200E+00
      0.692  0.0000E+00  0.3200E+00
      0.777  0.0000E+00  0.3200E+00
      0.862  0.0000E+00  0.3200E+00
      0.947  0.0000E+00  0.3200E+00
      1.032  0.0000E+00  0.3200E+00
      1.117  0.0000E+00  0.3200E+00
      1.202  0.0000E+00  0.3200E+00
      1.287  0.0000E+00  0.3200E+00
      1.372  0.0000E+00  0.3200E+00
      1.457  0.0000E+00  0.3200E+00
      1.542  0.0000E+00  0.3200E+00
      1.627  0.0000E+00  0.3200E+00
      1.712  0.0000E+00  0.3200E+00
      1.798  0.0000E+00  0.3200E+00
      1.883  0.0000E+00  0.3200E+00
      1.968  0.0000E+00  0.3200E+00
      2.053  0.0000E+00  0.3200E+00
      2.138  0.0000E+00  0.3200E+00
      2.223  0.0000E+00  0.3200E+00
      2.308  0.0000E+00  0.3200E+00
      2.393  0.0000E+00  0.3200E+00
      2.478  0.0000E+00  0.3200E+00
      2.563  0.0000E+00  0.3200E+00
      2.648  0.0000E+00  0.3200E+00
      2.733  0.0000E+00  0.3200E+00
      2.818  0.0000E+00  0.3200E+00
      2.903  0.0000E+00  0.3200E+00
      2.988  0.0000E+00  0.3200E+00
      3.074  0.0000E+00  0.3200E+00
      3.159  0.0000E+00  0.3200E+00
      3.244  0.0000E+00  0.3200E+00
      3.329  0.0000E+00  0.3200E+00
      3.414  0.0000E+00  0.3200E+00
      3.499  0.0000E+00  0.3200E+00
      3.584  0.0000E+00  0.3200E+00
      3.669  0.0000E+00  0.3200E+00
      3.754  0.0000E+00  0.3200E+00
      3.839  0.0000E+00  0.3200E+00
      3.924  0.4078E-18  0.3200E+00
      4.009  0.3769E-14  0.3200E+00
      4.094  0.1031E-10  0.3200E+00
      4.179  0.6876E-08  0.3200E+00
      4.264  0.1136E-05  0.3200E+00
      4.350  0.4754E-04  0.3200E+00
      4.435  0.5203E-03  0.3200E+00
      4.520  0.1541E-02  0.3202E+00
      4.605  0.1262E-02  0.3203E+00
      4.690  0.2846E-03  0.3203E+00
      4.775  0.1719E-04  0.3203E+00
      4.860  0.4987E-06  0.3203E+00
      4.945  0.2485E-04  0.3203E+00
      5.030  0.6858E-03  0.3204E+00
      5.115  0.5003E-02  0.3208E+00
      5.200  0.9965E-02  0.3216E+00
      5.285  0.5499E-02  0.3221E+00
      5.370  0.8304E-03  0.3222E+00
      5.455  0.9123E-04  0.3222E+00
      5.540  0.1520E-02  0.3223E+00
      5.626  0.1053E-01  0.3232E+00
      5.711  0.1995E-01  0.3249E+00
      5.796  0.1062E-01  0.3258E+00
      5.881  0.3951E-02  0.3262E+00
      5.966  0.1044E-01  0.3270E+00
      6.051  0.1213E-01  0.3281E+00
      6.136  0.3915E-02  0.3284E+00
      6.221  0.3472E-03  0.3284E+00
      6.306  0.2567E-03  0.3285E+00
      6.391  0.2888E-02  0.3287E+00
      6.476  0.9075E-02  0.3295E+00
      6.561  0.8407E-02  0.3302E+00
      6.646  0.7128E-02  0.3308E+00
      6.731  0.2737E-01  0.3331E+00
      6.816  0.7319E-01  0.3394E+00
      6.902  0.7091E-01  0.3454E+00
      6.987  0.3919E-01  0.3487E+00
      7.072  0.5033E-01  0.3530E+00
      7.157  0.3707E-01  0.3562E+00
      7.242  0.8078E-02  0.3568E+00
      7.327  0.2329E-02  0.3570E+00
      7.412  0.1401E-01  0.3582E+00
      7.497  0.4880E-01  0.3624E+00
      7.582  0.1066E+00  0.3715E+00
      7.667  0.1153E+00  0.3813E+00
      7.752  0.7894E-01  0.3880E+00
      7.837  0.4439E-01  0.3918E+00
      7.922  0.1141E-01  0.3927E+00
      8.007  0.1106E-02  0.3928E+00
      8.093  0.3039E-02  0.3931E+00
      8.178  0.1801E-01  0.3946E+00
      8.263  0.2995E-01  0.3972E+00
      8.348  0.1943E-01  0.3988E+00
      8.433  0.3141E-01  0.4015E+00
      8.518  0.4950E-01  0.4057E+00
      8.603  0.4323E-01  0.4094E+00
      8.688  0.2938E-01  0.4119E+00
      8.773  0.1305E-01  0.4130E+00
      8.858  0.8880E-02  0.4137E+00
      8.943  0.1903E-01  0.4154E+00
      9.028  0.1597E-01  0.4167E+00
      9.113  0.7562E-02  0.4174E+00
      9.198  0.4229E-02  0.4177E+00
      9.283  0.1025E-02  0.4178E+00
      9.369  0.1761E-03  0.4178E+00
      9.454  0.1747E-02  0.4180E+00
      9.539  0.7638E-02  0.4186E+00
      9.624  0.9201E-02  0.4194E+00
      9.709  0.3065E-02  0.4197E+00
      9.794  0.2843E-03  0.4197E+00
      9.879  0.1836E-03  0.4197E+00
      9.964  0.1030E-02  0.4198E+00
     10.049  0.1643E-02  0.4199E+00
     10.134  0.7254E-03  0.4200E+00
     10.219  0.8722E-04  0.4200E+00
     10.304  0.2762E-05  0.4200E+00
     10.389  0.2230E-07  0.4200E+00
     10.474  0.4475E-10  0.4200E+00
     10.559  0.2196E-13  0.4200E+00
     10.645  0.2447E-17  0.4200E+00
     10.730  0.0000E+00  0.4200E+00
     10.815  0.0000E+00  0.4200E+00
     10.900  0.0000E+00  0.4200E+00
     10.985  0.0000E+00  0.4200E+00
     11.070  0.0000E+00  0.4200E+00
     11.155  0.0000E+00  0.4200E+00
     11.15491830    -14.36519712  301     -0.07260331      1.00000000
    -14.365  0.0000E+00  0.0000E+00  0.0000E+00
    -14.280  0.0000E+00  0.0000E+00  0.0000E+00
    -14.195  0.0000E+00  0.0000E+00  0.0000E+00
    -14.110  0.0000E+00  0.0000E+00  0.0000E+00
    -14.025  0.0000E+00  0.0000E+00  0.0000E+00
    -13.940  0.0000E+00  0.0000E+00  0.0000E+00
    -13.855  0.0000E+00  0.0000E+00  0.0000E+00
    -13.770  0.3481E-18  0.6820E-27  0.0000E+00
    -13.685  0.2930E-14  0.2357E-17  0.0000E+00
    -13.600  0.6115E-11  0.1243E-13  0.0000E+00
    -13.515  0.3231E-08  0.1620E-10  0.0000E+00
    -13.429  0.4596E-06  0.5453E-08  0.0000E+00
    -13.344  0.1955E-04  0.5056E-06  0.0000E+00
    -13.259  0.2852E-03  0.1423E-04  0.0000E+00
    -13.174  0.1606E-02  0.1393E-03  0.0000E+00
    -13.089  0.3924E-02  0.6222E-03  0.0000E+00
    -13.004  0.5415E-02  0.1958E-02  0.0000E+00
    -12.919  0.5405E-02  0.4512E-02  0.0000E+00
    -12.834  0.3567E-02  0.5658E-02  0.0000E+00
    -12.749  0.1336E-02  0.2971E-02  0.0000E+00
    -12.664  0.2171E-03  0.5436E-03  0.0000E+00
    -12.579  0.1216E-04  0.3102E-04  0.0000E+00
    -12.494  0.2079E-06  0.5144E-06  0.0000E+00
    -12.409  0.1002E-08  0.2354E-08  0.0000E+00
    -12.324  0.1279E-11  0.2856E-11  0.0000E+00
    -12.239  0.4142E-15  0.8903E-15  0.0000E+00
    -12.153  0.1453E-40  0.2811E-19  0.0000E+00
    -12.068  0.0000E+00  0.0000E+00  0.0000E+00
    -11.983  0.0000E+00  0.0000E+00  0.0000E+00
    -11.898  0.0000E+00  0.0000E+00  0.0000E+00
    -11.813  0.0000E+00  0.0000E+00  0.0000E+00
    -11.728  0.0000E+00  0.0000E+00  0.0000E+00
    -11.643  0.0000E+00  0.0000E+00  0.0000E+00
    -11.558  0.0000E+00  0.0000E+00  0.0000E+00
    -11.473  0.0000E+00  0.0000E+00  0.0000E+00
    -11.388  0.0000E+00  0.0000E+00  0.0000E+00
    -11.303  0.0000E+00  0.0000E+00  0.0000E+00
    -11.218  0.0000E+00  0.0000E+00  0.0000E+00
    -11.133  0.0000E+00  0.0000E+00  0.0000E+00
    -11.048  0.0000E+00  0.0000E+00  0.0000E+00
    -10.963  0.0000E+00  0.0000E+00  0.0000E+00
    -10.877  0.0000E+00  0.0000E+00  0.0000E+00
    -10.792  0.0000E+00  0.0000E+00  0.0000E+00
    -10.707  0.0000E+00  0.0000E+00  0.0000E+00
    -10.622  0.0000E+00  0.0000E+00  0.0000E+00
    -10.537  0.0000E+00  0.0000E+00  0.0000E+00
    -10.452  0.0000E+00  0.0000E+00  0.0000E+00
    -10.367  0.0000E+00  0.0000E+00  0.0000E+00
    -10.282  0.0000E+00  0.0000E+00  0.0000E+00
    -10.197  0.0000E+00  0.0000E+00  0.0000E+00
    -10.112  0.0000E+00  0.0000E+00  0.0000E+00
    -10.027  0.0000E+00  0.0000E+00  0.0000E+00
     -9.942  0.0000E+00  0.0000E+00  0.0000E+00
     -9.857  0.0000E+00  0.0000E+00  0.0000E+00
     -9.772  0.0000E+00  0.0000E+00  0.0000E+00
     -9.687  0.0000E+00  0.0000E+00  0.0000E+00
     -9.601  0.0000E+00  0.0000E+00  0.0000E+00
     -9.516  0.0000E+00  0.0000E+00  0.0000E+00
     -9.431  0.0000E+00  0.0000E+00  0.0000E+00
     -9.346  0.0000E+00  0.0000E+00  0.0000E+00
     -9.261  0.0000E+00  0.0000E+00  0.0000E+00
     -9.176  0.0000E+00  0.0000E+00  0.0000E+00
     -9.091  0.0000E+00  0.0000E+00  0.0000E+00
     -9.006  0.0000E+00  0.0000E+00  0.0000E+00
     -8.921  0.0000E+00  0.0000E+00  0.0000E+00
     -8.836  0.0000E+00  0.0000E+00  0.0000E+00
     -8.751  0.0000E+00  0.0000E+00  0.0000E+00
     -8.666  0.0000E+00  0.0000E+00  0.0000E+00
     -8.581  0.0000E+00  0.0000E+00  0.0000E+00
     -8.496  0.0000E+00  0.0000E+00  0.0000E+00
     -8.411  0.0000E+00  0.0000E+00  0.0000E+00
     -8.325  0.0000E+00  0.0000E+00  0.0000E+00
     -8.240  0.0000E+00  0.0000E+00  0.0000E+00
     -8.155  0.0000E+00  0.0000E+00  0.0000E+00
     -8.070  0.0000E+00  0.0000E+00  0.0000E+00
     -7.985  0.0000E+00  0.0000E+00  0.0000E+00
     -7.900  0.0000E+00  0.0000E+00  0.0000E+00
     -7.815  0.0000E+00  0.0000E+00  0.0000E+00
     -7.730  0.0000E+00  0.0000E+00  0.0000E+00
     -7.645  0.0000E+00  0.0000E+00  0.0000E+00
     -7.560  0.0000E+00  0.0000E+00  0.0000E+00
     -7.475  0.0000E+00  0.0000E+00  0.0000E+00
     -7.390  0.0000E+00  0.0000E+00  0.0000E+00
     -7.305  0.0000E+00  0.0000E+00  0.0000E+00
     -7.220  0.0000E+00  0.0000E+00  0.0000E+00
     -7.134  0.0000E+00  0.0000E+00  0.0000E+00
     -7.049  0.0000E+00  0.0000E+00  0.0000E+00
     -6.964  0.0000E+00  0.0000E+00  0.0000E+00
     -6.879  0.0000E+00  0.0000E+00  0.0000E+00
     -6.794  0.0000E+00  0.0000E+00  0.0000E+00
     -6.709  0.0000E+00  0.0000E+00  0.0000E+00
     -6.624  0.0000E+00  0.0000E+00  0.0000E+00
     -6.539  0.0000E+00  0.0000E+00  0.0000E+00
     -6.454  0.0000E+00  0.0000E+00  0.0000E+00
     -6.369  0.0000E+00  0.0000E+00  0.0000E+00
     -6.284  0.0000E+00  0.0000E+00  0.0000E+00
     -6.199  0.0000E+00  0.0000E+00  0.0000E+00
     -6.114  0.0000E+00  0.0000E+00  0.0000E+00
     -6.029  0.0000E+00  0.0000E+00  0.0000E+00
     -5.944  0.0000E+00  0.0000E+00  0.0000E+00
     -5.858  0.0000E+00  0.0000E+00  0.0000E+00
     -5.773  0.0000E+00  0.0000E+00  0.0000E+00
     -5.688  0.0000E+00  0.0000E+00  0.0000E+00
     -5.603  0.0000E+00  0.0000E+00  0.0000E+00
     -5.518  0.0000E+00  0.0000E+00  0.0000E+00
     -5.433  0.0000E+00  0.0000E+00  0.0000E+00
     -5.348  0.0000E+00  0.0000E+00  0.0000E+00
     -5.263  0.0000E+00  0.0000E+00  0.0000E+00
     -5.178  0.0000E+00  0.0000E+00  0.0000E+00
     -5.093  0.0000E+00  0.0000E+00  0.0000E+00
     -5.008  0.0000E+00  0.0000E+00  0.0000E+00
     -4.923  0.0000E+00  0.0000E+00  0.0000E+00
     -4.838  0.0000E+00  0.0000E+00  0.0000E+00
     -4.753  0.0000E+00  0.0000E+00  0.0000E+00
     -4.668  0.0000E+00  0.0000E+00  0.0000E+00
     -4.582  0.0000E+00  0.0000E+00  0.0000E+00
     -4.497  0.0000E+00  0.0000E+00  0.0000E+00
     -4.412  0.0000E+00  0.0000E+00  0.0000E+00
     -4.327  0.0000E+00  0.0000E+00  0.0000E+00
     -4.242  0.0000E+00  0.0000E+00  0.0000E+00
     -4.157  0.0000E+00  0.0000E+00  0.0000E+00
     -4.072  0.0000E+00  0.0000E+00  0.0000E+00
     -3.987  0.0000E+00  0.0000E+00  0.0000E+00
     -3.902  0.0000E+00  0.0000E+00  0.0000E+00
     -3.817  0.0000E+00  0.0000E+00  0.0000E+00
     -3.732  0.0000E+00  0.0000E+00  0.0000E+00
     -3.647  0.0000E+00  0.0000E+00  0.0000E+00
     -3.562  0.0000E+00  0.0000E+00  0.0000E+00
     -3.477  0.0000E+00  0.0000E+00  0.0000E+00
     -3.392  0.0000E+00  0.0000E+00  0.0000E+00
     -3.306  0.0000E+00  0.0000E+00  0.0000E+00
     -3.221  0.0000E+00  0.0000E+00  0.0000E+00
     -3.136  0.0000E+00  0.0000E+00  0.0000E+00
     -3.051  0.6604E-18  0.1925E-27  0.0000E+00
     -2.966  0.1012E-13  0.2948E-23  0.0000E+00
     -2.881  0.2853E-10  0.8315E-20  0.0000E+00
     -2.796  0.1962E-07  0.5631E-15  0.0000E+00
     -2.711  0.3340E-05  0.1962E-11  0.0000E+00
     -2.626  0.1440E-03  0.1699E-08  0.0000E+00
     -2.541  0.1631E-02  0.3750E-06  0.0000E+00
     -2.456  0.5423E-02  0.2263E-04  0.0000E+00
     -2.371  0.1111E-01  0.4249E-03  0.0000E+00
     -2.286  0.3102E-01  0.2977E-02  0.0000E+00
     -2.201  0.5033E-01  0.1005E-01  0.0000E+00
     -2.116  0.5554E-01  0.2209E-01  0.0000E+00
     -2.030  0.6589E-01  0.3030E-01  0.0000E+00
     -1.945  0.5862E-01  0.2416E-01  0.0000E+00
     -1.860  0.3432E-01  0.1267E-01  0.0000E+00
     -1.775  0.2750E-01  0.9264E-02  0.0000E+00
     -1.690  0.2574E-01  0.1566E-01  0.0000E+00
     -1.605  0.2108E-01  0.1847E-01  0.0000E+00
     -1.520  0.9736E-02  0.9272E-02  0.0000E+00
     -1.435  0.2868E-02  0.5994E-02  0.0000E+00
     -1.350  0.9094E-02  0.2183E-01  0.0000E+00
     -1.265  0.1798E-01  0.3444E-01  0.0000E+00
     -1.180  0.1277E-01  0.2465E-01  0.0000E+00
     -1.095  0.7835E-02  0.2365E-01  0.0000E+00
     -1.010  0.8799E-02  0.3400E-01  0.0000E+00
     -0.925  0.7019E-02  0.2698E-01  0.0000E+00
     -0.840  0.3092E-02  0.1806E-01  0.0000E+00
     -0.754  0.6471E-03  0.1344E-01  0.0000E+00
     -0.669  0.9509E-04  0.8439E-02  0.0000E+00
     -0.584  0.8701E-05  0.5052E-02  0.0000E+00
     -0.499  0.2574E-06  0.1840E-02  0.0000E+00
     -0.414  0.1991E-08  0.3192E-03  0.0000E+00
     -0.329  0.3837E-11  0.2317E-04  0.0000E+00
     -0.244  0.1809E-14  0.5496E-06  0.0000E+00
     -0.159  0.2132E-18  0.3574E-08  0.0000E+00
     -0.074  0.1122E-26  0.5902E-11  0.0000E+00
      0.011  0.4570E-30  0.2395E-14  0.0000E+00
      0.096  0.5157E-34  0.2699E-18  0.0000E+00
      0.181  0.0000E+00  0.0000E+00  0.0000E+00
      0.266  0.0000E+00  0.0000E+00  0.0000E+00
      0.351  0.0000E+00  0.0000E+00  0.0000E+00
      0.436  0.0000E+00  0.0000E+00  0.0000E+00
      0.522  0.0000E+00  0.0000E+00  0.0000E+00
      0.607  0.0000E+00  0.0000E+00  0.0000E+00
      0.692  0.0000E+00  0.0000E+00  0.0000E+00
      0.777  0.0000E+00  0.0000E+00  0.0000E+00
      0.862  0.0000E+00  0.0000E+00  0.0000E+00
      0.947  0.0000E+00  0.0000E+00  0.0000E+00
      1.032  0.0000E+00  0.0000E+00  0.0000E+00
      1.117  0.0000E+00  0.0000E+00  0.0000E+00
      1.202  0.0000E+00  0.0000E+00  0.0000E+00
      1.287  0.0000E+00  0.0000E+00  0.0000E+00
      1.372  0.0000E+00  0.0000E+00  0.0000E+00
      1.457  0.0000E+00  0.0000E+00  0.0000E+00
      1.542  0.0000E+00  0.0000E+00  0.0000E+00
      1.627  0.0000E+00  0.0000E+00  0.0000E+00
      1.712  0.0000E+00  0.0000E+00  0.0000E+00
      1.798  0.0000E+00  0.0000E+00  0.0000E+00
      1.883  0.0000E+00  0.0000E+00  0.0000E+00
      1.968  0.0000E+00  0.0000E+00  0.0000E+00
      2.053  0.0000E+00  0.0000E+00  0.0000E+00
      2.138  0.0000E+00  0.0000E+00  0.0000E+00
      2.223  0.0000E+00  0.0000E+00  0.0000E+00
      2.308  0.0000E+00  0.0000E+00  0.0000E+00
      2.393  0.0000E+00  0.0000E+00  0.0000E+00
      2.478  0.0000E+00  0.0000E+00  0.0000E+00
      2.563  0.0000E+00  0.0000E+00  0.0000E+00
      2.648  0.0000E+00  0.0000E+00  0.0000E+00
      2.733  0.0000E+00  0.0000E+00  0.0000E+00
      2.818  0.0000E+00  0.0000E+00  0.0000E+00
      2.903  0.0000E+00  0.0000E+00  0.0000E+00
      2.988  0.0000E+00  0.0000E+00  0.0000E+00
      3.074  0.0000E+00  0.0000E+00  0.0000E+00
      3.159  0.0000E+00  0.0000E+00  0.0000E+00
      3.244  0.0000E+00  0.0000E+00  0.0000E+00
      3.329  0.0000E+00  0.0000E+00  0.0000E+00
      3.414  0.0000E+00  0.0000E+00  0.0000E+00
      3.499  0.0000E+00  0.0000E+00  0.0000E+00
      3.584  0.0000E+00  0.0000E+00  0.0000E+00
      3.669  0.0000E+00  0.0000E+00  0.0000E+00
      3.754  0.0000E+00  0.0000E+00  0.0000E+00
      3.839  0.0000E+00  0.0000E+00  0.0000E+00
      3.924  0.1646E-17  0.4561E-34  0.0000E+00
      4.009  0.1521E-13  0.4215E-30  0.0000E+00
      4.094  0.4160E-10  0.1153E-26  0.0000E+00
      4.179  0.2775E-07  0.7689E-24  0.0000E+00
      4.264  0.4584E-05  0.1270E-21  0.0000E+00
      4.350  0.1918E-03  0.5316E-20  0.0000E+00
      4.435  0.2100E-02  0.5818E-19  0.0000E+00
      4.520  0.6218E-02  0.1723E-18  0.0000E+00
      4.605  0.5092E-02  0.6530E-17  0.0000E+00
      4.690  0.1148E-02  0.4608E-13  0.0000E+00
      4.775  0.6937E-04  0.8155E-10  0.0000E+00
      4.860  0.1934E-05  0.3534E-07  0.0000E+00
      4.945  0.9182E-04  0.3816E-05  0.0000E+00
      5.030  0.2534E-02  0.1053E-03  0.0000E+00
      5.115  0.1849E-01  0.7684E-03  0.0000E+00
      5.200  0.3683E-01  0.1530E-02  0.0000E+00
      5.285  0.2032E-01  0.8445E-03  0.0000E+00
      5.370  0.3069E-02  0.1277E-03  0.0000E+00
      5.455  0.3146E-03  0.2902E-04  0.0000E+00
      5.540  0.5028E-02  0.6264E-03  0.0000E+00
      5.626  0.3484E-01  0.4341E-02  0.0000E+00
      5.711  0.6598E-01  0.8223E-02  0.0000E+00
      5.796  0.3503E-01  0.4438E-02  0.0000E+00
      5.881  0.1156E-01  0.2596E-02  0.0000E+00
      5.966  0.2814E-01  0.8403E-02  0.0000E+00
      6.051  0.3264E-01  0.9785E-02  0.0000E+00
      6.136  0.1054E-01  0.3159E-02  0.0000E+00
      6.221  0.9416E-03  0.2763E-03  0.0000E+00
      6.306  0.1004E-02  0.3900E-04  0.0000E+00
      6.391  0.1141E-01  0.3801E-03  0.0000E+00
      6.476  0.3577E-01  0.1237E-02  0.0000E+00
      6.561  0.3108E-01  0.2270E-02  0.0000E+00
      6.646  0.1116E-01  0.1026E-01  0.0000E+00
      6.731  0.4840E-01  0.3674E-01  0.0000E+00
      6.816  0.1712E+00  0.7659E-01  0.0000E+00
      6.902  0.1886E+00  0.6573E-01  0.0000E+00
      6.987  0.1014E+00  0.4395E-01  0.0000E+00
      7.072  0.8630E-01  0.7847E-01  0.0000E+00
      7.157  0.6087E-01  0.5874E-01  0.0000E+00
      7.242  0.1477E-01  0.1228E-01  0.0000E+00
      7.327  0.1287E-01  0.1102E-02  0.0000E+00
      7.412  0.8415E-01  0.4145E-02  0.0000E+00
      7.497  0.2357E+00  0.2656E-01  0.0000E+00
      7.582  0.3971E+00  0.8857E-01  0.0000E+00
      7.667  0.3400E+00  0.1244E+00  0.0000E+00
      7.752  0.1161E+00  0.1141E+00  0.0000E+00
      7.837  0.1509E-01  0.6681E-01  0.0000E+00
      7.922  0.6722E-03  0.1397E-01  0.0000E+00
      8.007  0.2310E-03  0.8361E-03  0.0000E+00
      8.093  0.5607E-02  0.3383E-03  0.0000E+00
      8.178  0.3748E-01  0.1870E-02  0.0000E+00
      8.263  0.6850E-01  0.3597E-02  0.0000E+00
      8.348  0.3474E-01  0.1376E-01  0.0000E+00
      8.433  0.6433E-02  0.6117E-01  0.0000E+00
      8.518  0.1554E-01  0.8240E-01  0.0000E+00
      8.603  0.5284E-01  0.3278E-01  0.0000E+00
      8.688  0.8206E-01  0.7484E-02  0.0000E+00
      8.773  0.5501E-01  0.3613E-02  0.0000E+00
      8.858  0.4440E-01  0.6073E-02  0.0000E+00
      8.943  0.9606E-01  0.1568E-01  0.0000E+00
      9.028  0.7431E-01  0.1596E-01  0.0000E+00
      9.113  0.1591E-01  0.1593E-01  0.0000E+00
      9.198  0.9113E-03  0.1238E-01  0.0000E+00
      9.283  0.2171E-04  0.3086E-02  0.0000E+00
      9.369  0.5183E-03  0.2225E-03  0.0000E+00
      9.454  0.8461E-02  0.2265E-03  0.0000E+00
      9.539  0.3701E-01  0.9746E-03  0.0000E+00
      9.624  0.4458E-01  0.1174E-02  0.0000E+00
      9.709  0.1485E-01  0.3911E-03  0.0000E+00
      9.794  0.1374E-02  0.3524E-04  0.0000E+00
      9.879  0.8058E-03  0.8301E-06  0.0000E+00
      9.964  0.4503E-02  0.5242E-08  0.0000E+00
     10.049  0.7180E-02  0.4690E-09  0.0000E+00
     10.134  0.3171E-02  0.2039E-09  0.0000E+00
     10.219  0.3812E-03  0.2451E-10  0.0000E+00
     10.304  0.1207E-04  0.7763E-12  0.0000E+00
     10.389  0.9745E-07  0.6266E-14  0.0000E+00
     10.474  0.1956E-09  0.1258E-16  0.0000E+00
     10.559  0.9599E-13  0.6173E-20  0.0000E+00
     10.645  0.1070E-16  0.6878E-24  0.0000E+00
     10.730  0.0000E+00  0.0000E+00  0.0000E+00
     10.815  0.0000E+00  0.0000E+00  0.0000E+00
     10.900  0.0000E+00  0.0000E+00  0.0000E+00
     10.985  0.0000E+00  0.0000E+00  0.0000E+00
     11.070  0.0000E+00  0.0000E+00  0.0000E+00
     11.155  0.0000E+00  0.0000E+00  0.0000E+00
     11.15491830    -14.36519712  301     -0.07260331      1.00000000
    -14.365  0.0000E+00  0.0000E+00  0.0000E+00
    -14.280  0.0000E+00  0.0000E+00  0.0000E+00
    -14.195  0.0000E+00  0.0000E+00  0.0000E+00
    -14.110  0.0000E+00  0.0000E+00  0.0000E+00
    -14.025  0.0000E+00  0.0000E+00  0.0000E+00
    -13.940  0.0000E+00  0.0000E+00  0.0000E+00
    -13.855  0.0000E+00  0.0000E+00  0.0000E+00
    -13.770  0.3481E-18  0.3429E-28  0.0000E+00
    -13.685  0.2930E-14  0.2357E-17  0.0000E+00
    -13.600  0.6115E-11  0.1243E-13  0.0000E+00
    -13.515  0.3231E-08  0.1620E-10  0.0000E+00
    -13.429  0.4596E-06  0.5453E-08  0.0000E+00
    -13.344  0.1955E-04  0.5056E-06  0.0000E+00
    -13.259  0.2852E-03  0.1423E-04  0.0000E+00
    -13.174  0.1606E-02  0.1393E-03  0.0000E+00
    -13.089  0.3924E-02  0.6222E-03  0.0000E+00
    -13.004  0.5415E-02  0.1958E-02  0.0000E+00
    -12.919  0.5405E-02  0.4512E-02  0.0000E+00
    -12.834  0.3567E-02  0.5658E-02  0.0000E+00
    -12.749  0.1336E-02  0.2971E-02  0.0000E+00
    -12.664  0.2171E-03  0.5435E-03  0.0000E+00
    -12.579  0.1216E-04  0.3102E-04  0.0000E+00
    -12.494  0.2079E-06  0.5144E-06  0.0000E+00
    -12.409  0.1002E-08  0.2354E-08  0.0000E+00
    -12.324  0.1279E-11  0.2856E-11  0.0000E+00
    -12.239  0.4142E-15  0.8903E-15  0.0000E+00
    -12.153  0.1925E-40  0.2811E-19  0.0000E+00
    -12.068  0.0000E+00  0.0000E+00  0.0000E+00
    -11.983  0.0000E+00  0.0000E+00  0.0000E+00
    -11.898  0.0000E+00  0.0000E+00  0.0000E+00
    -11.813  0.0000E+00  0.0000E+00  0.0000E+00
    -11.728  0.0000E+00  0.0000E+00  0.0000E+00
    -11.643  0.0000E+00  0.0000E+00  0.0000E+00
    -11.558  0.0000E+00  0.0000E+00  0.0000E+00
    -11.473  0.0000E+00  0.0000E+00  0.0000E+00
    -11.388  0.0000E+00  0.0000E+00  0.0000E+00
    -11.303  0.0000E+00  0.0000E+00  0.0000E+00
    -11.218  0.0000E+00  0.0000E+00  0.0000E+00
    -11.133  0.0000E+00  0.0000E+00  0.0000E+00
    -11.048  0.0000E+00  0.0000E+00  0.0000E+00
    -10.963  0.0000E+00  0.0000E+00  0.0000E+00
    -10.877  0.0000E+00  0.0000E+00  0.0000E+00
    -10.792  0.0000E+00  0.0000E+00  0.0000E+00
    -10.707  0.0000E+00  0.0000E+00  0.0000E+00
    -10.622  0.0000E+00  0.0000E+00  0.0000E+00
    -10.537  0.0000E+00  0.0000E+00  0.0000E+00
    -10.452  0.0000E+00  0.0000E+00  0.0000E+00
    -10.367  0.0000E+00  0.0000E+00  0.0000E+00
    -10.282  0.0000E+00  0.0000E+00  0.0000E+00
    -10.197  0.0000E+00  0.0000E+00  0.0000E+00
    -10.112  0.0000E+00  0.0000E+00  0.0000E+00
    -10.027  0.0000E+00  0.0000E+00  0.0000E+00
     -9.942  0.0000E+00  0.0000E+00  0.0000E+00
     -9.857  0.0000E+00  0.0000E+00  0.0000E+00
     -9.772  0.0000E+00  0.0000E+00  0.0000E+00
     -9.687  0.0000E+00  0.0000E+00  0.0000E+00
     -9.601  0.0000E+00  0.0000E+00  0.0000E+00
     -9.516  0.0000E+00  0.0000E+00  0.0000E+00
     -9.431  0.0000E+00  0.0000E+00  0.0000E+00
     -9.346  0.0000E+00  0.0000E+00  0.0000E+00
     -9.261  0.0000E+00  0.0000E+00  0.0000E+00
     -9.176  0.0000E+00  0.0000E+00  0.0000E+00
     -9.091  0.0000E+00  0.0000E+00  0.0000E+00
     -9.006  0.0000E+00  0.0000E+00  0.0000E+00
     -8.921  0.0000E+00  0.0000E+00  0.0000E+00
     -8.836  0.0000E+00  0.0000E+00  0.0000E+00
     -8.751  0.0000E+00  0.0000E+00  0.0000E+00
     -8.666  0.0000E+00  0.0000E+00  0.0000E+00
     -8.581  0.0000E+00  0.0000E+00  0.0000E+00
     -8.496  0.0000E+00  0.0000E+00  0.0000E+00
     -8.411  0.0000E+00  0.0000E+00  0.0000E+00
     -8.325  0.0000E+00  0.0000E+00  0.0000E+00
     -8.240  0.0000E+00  0.0000E+00  0.0000E+00
     -8.155  0.0000E+00  0.0000E+00  0.0000E+00
     -8.070  0.0000E+00  0.0000E+00  0.0000E+00
     -7.985  0.0000E+00  0.0000E+00  0.0000E+00
     -7.900  0.0000E+00  0.0000E+00  0.0000E+00
     -7.815  0.0000E+00  0.0000E+00  0.0000E+00
     -7.730  0.0000E+00  0.0000E+00  0.0000E+00
     -7.645  0.0000E+00  0.0000E+00  0.0000E+00
     -7.560  0.0000E+00  0.0000E+00  0.0000E+00
     -7.475  0.0000E+00  0.0000E+00  0.0000E+00
     -7.390  0.0000E+00  0.0000E+00  0.0000E+00
     -7.305  0.0000E+00  0.0000E+00  0.0000E+00
     -7.220  0.0000E+00  0.0000E+00  0.0000E+00
     -7.134  0.0000E+00  0.0000E+00  0.0000E+00
     -7.049  0.0000E+00  0.0000E+00  0.0000E+00
     -6.964  0.0000E+00  0.0000E+00  0.0000E+00
     -6.879  0.0000E+00  0.0000E+00  0.0000E+00
     -6.794  0.0000E+00  0.0000E+00  0.0000E+00