       N       E                     dE             d eps       ncg     rms          rms(c)
DAV:   1     0.250518469083E+03    0.25052E+03   -0.11275E+04   420   0.117E+03
DAV:   2     0.487585186404E+01   -0.24564E+03   -0.23569E+03   627   0.236E+02
DAV:   3    -0.269417135162E+02   -0.31818E+02   -0.31678E+02   505   0.956E+01
DAV:   4    -0.280212629616E+02   -0.10795E+01   -0.10784E+01   510   0.211E+01
DAV:   5    -0.280687799090E+02   -0.47517E-01   -0.47510E-01   532   0.439E+00    0.431E+00
DAV:   6    -0.272930953439E+02    0.77568E+00   -0.16994E+00   505   0.589E+00    0.333E+00
DAV:   7    -0.272384424275E+02    0.54653E-01   -0.41179E-01   583   0.286E+00    0.218E+00
DAV:   8    -0.272583051446E+02   -0.19863E-01   -0.34404E-02   495   0.141E+00    0.390E-01
DAV:   9    -0.272581819163E+02    0.12323E-03   -0.80220E-04   526   0.169E-01    0.211E-01
DAV:  10    -0.272590179854E+02   -0.83607E-03   -0.21400E-03   500   0.264E-01    0.804E-02
DAV:  11    -0.272589723130E+02    0.45672E-04   -0.84363E-05   545   0.477E-02    0.299E-02
DAV:  12    -0.272589672317E+02    0.50814E-05   -0.64805E-05   515   0.376E-02    0.202E-02
DAV:  13    -0.272589682857E+02   -0.10540E-05   -0.10540E-05   500   0.160E-02    0.978E-04
DAV:  14    -0.272589681691E+02    0.11655E-06   -0.10379E-07   345   0.228E-03
   1 F= -.27258968E+02 E0= -.27258968E+02  d E =-.272590E+02
       N       E                     dE             d eps       ncg     rms          rms(c)
DAV:   1    -0.272596121087E+02   -0.64382E-03   -0.96400E-03   470   0.569E-01    0.145E-01
DAV:   2    -0.272591185153E+02    0.49359E-03   -0.11844E-03   450   0.177E-01    0.363E-02
DAV:   3    -0.272590752107E+02    0.43305E-04   -0.21435E-04   475   0.693E-02    0.287E-02
DAV:   4    -0.272590814004E+02   -0.61897E-05   -0.39530E-06   443   0.125E-02    0.600E-03
DAV:   5    -0.272590831175E+02   -0.17170E-05   -0.20304E-06   288   0.757E-03    0.161E-03
DAV:   6    -0.272590827480E+02    0.36950E-06   -0.20364E-07   250   0.343E-03
   2 F= -.27259083E+02 E0= -.27259083E+02  d E =-.114579E-03
       N       E                     dE             d eps       ncg     rms          rms(c)
DAV:   1    -0.272593498215E+02   -0.26670E-03   -0.41832E-03   470   0.375E-01    0.958E-02
DAV:   2    -0.272591330147E+02    0.21681E-03   -0.51495E-04   430   0.116E-01    0.240E-02
DAV:   3    -0.272591143970E+02    0.18618E-04   -0.93787E-05   435   0.458E-02    0.189E-02
DAV:   4    -0.272591185642E+02   -0.41672E-05   -0.14793E-06   295   0.834E-03    0.389E-03
DAV:   5    -0.272591197667E+02   -0.12025E-05   -0.76072E-07   240   0.574E-03    0.127E-03
DAV:   6    -0.272591194974E+02    0.26933E-06   -0.28234E-07   225   0.370E-03
   3 F= -.27259119E+02 E0= -.27259119E+02  d E =-.151328E-03
