PROCAR new format
# of k-points:   10         # of bands:  21         # of ions:   8

 k-point    1 :    0.00000000 0.00000000 0.00000000     weight = 0.01562500

band   1 # energy  -13.20519188 # occ.  2.00000000
 
ion      s      p      d    tot
  1  0.001  0.000  0.000  0.001
  2  0.001  0.000  0.000  0.001
  3  0.001  0.000  0.000  0.001
  4  0.001  0.000  0.000  0.001
  5  0.190  0.000  0.000  0.190
  6  0.190  0.000  0.000  0.190
  7  0.190  0.000  0.000  0.190
  8  0.190  0.000  0.000  0.190
tot  0.764  0.000  0.000  0.764
 
band   2 # energy  -12.82750658 # occ.  2.00000000
 
ion      s      p      d    tot
  1  0.000  0.000  0.000  0.000
  2  0.000  0.000  0.000  0.000
  3  0.000  0.000  0.000  0.000
  4  0.000  0.000  0.000  0.000
  5  0.273  0.000  0.000  0.273
  6  0.308  0.000  0.000  0.308
  7  0.170  0.000  0.000  0.170
  8  0.049  0.000  0.000  0.049
tot  0.801  0.000  0.000  0.801
 
band   3 # energy  -12.82750657 # occ.  2.00000000
 
ion      s      p      d    tot
  1  0.000  0.000  0.000  0.000
  2  0.000  0.000  0.000  0.000
  3  0.000  0.000  0.000  0.000
  4  0.000  0.000  0.000  0.000
  5  0.038  0.000  0.000  0.038
  6  0.051  0.000  0.000  0.051
  7  0.230  0.000  0.000  0.230
  8  0.482  0.000  0.000  0.482
tot  0.801  0.000  0.000  0.801
 
band   4 # energy  -12.82750657 # occ.  2.00000000
 
ion      s      p      d    tot
  1  0.000  0.000  0.000  0.000
  2  0.000  0.000  0.000  0.000
  3  0.000  0.000  0.000  0.000
  4  0.000  0.000  0.000  0.000
  5  0.289  0.000  0.000  0.289
  6  0.242  0.000  0.000  0.242
  7  0.200  0.000  0.000  0.200
  8  0.069  0.000  0.000  0.069
tot  0.801  0.000  0.000  0.801
 
band   5 # energy   -2.22849730 # occ.  2.00000000
 
ion      s      p      d    tot
  1  0.000  0.004  0.000  0.004
  2  0.000  0.004  0.000  0.004
  3  0.000  0.004  0.000  0.004
  4  0.000  0.004  0.000  0.004
  5  0.000  0.129  0.000  0.129
  6  0.000  0.129  0.000  0.129
  7  0.000  0.129  0.000  0.129
  8  0.000  0.129  0.000  0.129
tot  0.000  0.532  0.000  0.532
 
band   6 # energy   -2.22849730 # occ.  2.00000000
 
ion      s      p      d    tot
  1  0.000  0.004  0.000  0.004
  2  0.000  0.004  0.000  0.004
  3  0.000  0.004  0.000  0.004
  4  0.000  0.004  0.000  0.004
  5  0.000  0.129  0.000  0.129
  6  0.000  0.129  0.000  0.129
  7  0.000  0.129  0.000  0.129
  8  0.000  0.129  0.000  0.129
tot  0.000  0.532  0.000  0.532
 
band   7 # energy   -2.22849730 # occ.  2.00000000
 
ion      s      p      d    tot
  1  0.000  0.004  0.000  0.004
  2  0.000  0.004  0.000  0.004
  3  0.000  0.004  0.000  0.004
  4  0.000  0.004  0.000  0.004
  5  0.000  0.129  0.000  0.129
  6  0.000  0.129  0.000  0.129
  7  0.000  0.129  0.000  0.129
  8  0.000  0.129  0.000  0.129
tot  0.000  0.532  0.000  0.532
 
band   8 # energy   -1.16161600 # occ.  2.00000000
 
ion      s      p      d    tot
  1  0.000  0.003  0.000  0.003
  2  0.000  0.003  0.000  0.003
  3  0.000  0.001  0.000  0.001
  4  0.000  0.003  0.000  0.003
  5  0.000  0.158  0.000  0.158
  6  0.000  0.190  0.000  0.190
  7  0.000  0.091  0.000  0.091
  8  0.000  0.184  0.000  0.184
tot  0.000  0.634  0.000  0.634
 
band   9 # energy   -1.16161600 # occ.  2.00000000
 
ion      s      p      d    tot
  1  0.000  0.002  0.000  0.002
  2  0.000  0.002  0.000  0.002
  3  0.000  0.004  0.000  0.004
  4  0.000  0.002  0.000  0.002
  5  0.000  0.118  0.000  0.118
  6  0.000  0.131  0.000  0.131
  7  0.000  0.260  0.000  0.260
  8  0.000  0.115  0.000  0.115
tot  0.000  0.634  0.000  0.634
 
band  10 # energy   -1.16161600 # occ.  2.00000000
 
ion      s      p      d    tot
  1  0.000  0.003  0.000  0.003
  2  0.000  0.001  0.000  0.001
  3  0.000  0.003  0.000  0.003
  4  0.000  0.003  0.000  0.003
  5  0.000  0.169  0.000  0.169
  6  0.000  0.076  0.000  0.076
  7  0.000  0.188  0.000  0.188
  8  0.000  0.191  0.000  0.191
tot  0.000  0.634  0.000  0.634
 
band  11 # energy   -1.16161600 # occ.  2.00000000
 
ion      s      p      d    tot
  1  0.000  0.004  0.000  0.004
  2  0.000  0.004  0.000  0.004
  3  0.000  0.001  0.000  0.001
  4  0.000  0.001  0.000  0.001
  5  0.000  0.224  0.000  0.224
  6  0.000  0.262  0.000  0.262
  7  0.000  0.056  0.000  0.056
  8  0.000  0.082  0.000  0.082
tot  0.000  0.634  0.000  0.634
 
band  12 # energy   -1.16161600 # occ.  2.00000000
 
ion      s      p      d    tot
  1  0.000  0.002  0.000  0.002
  2  0.000  0.003  0.000  0.003
  3  0.000  0.002  0.000  0.002
  4  0.000  0.003  0.000  0.003
  5  0.000  0.116  0.000  0.116
  6  0.000  0.192  0.000  0.192
  7  0.000  0.152  0.000  0.152
  8  0.000  0.164  0.000  0.164
tot  0.000  0.634  0.000  0.634
 
band  13 # energy   -1.16161600 # occ.  2.00000000
 
ion      s      p      d    tot
  1  0.000  0.002  0.000  0.002
  2  0.000  0.001  0.000  0.001
  3  0.000  0.003  0.000  0.003
  4  0.000  0.003  0.000  0.003
  5  0.000  0.150  0.000  0.150
  6  0.000  0.085  0.000  0.085
  7  0.000  0.188  0.000  0.188
  8  0.000  0.200  0.000  0.200
tot  0.000  0.634  0.000  0.634
 
band  14 # energy   -0.56462578 # occ.  2.00000000
 
ion      s      p      d    tot
  1  0.000  0.001  0.000  0.001
  2  0.000  0.001  0.000  0.001
  3  0.000  0.001  0.000  0.001
  4  0.000  0.001  0.000  0.001
  5  0.000  0.171  0.000  0.171
  6  0.000  0.171  0.000  0.171
  7  0.000  0.171  0.000  0.171
  8  0.000  0.171  0.000  0.171
tot  0.000  0.689  0.000  0.689
 
band  15 # energy   -0.56462578 # occ.  2.00000000
 
ion      s      p      d    tot
  1  0.000  0.001  0.000  0.001
  2  0.000  0.001  0.000  0.001
  3  0.000  0.001  0.000  0.001
  4  0.000  0.001  0.000  0.001
  5  0.000  0.171  0.000  0.171
  6  0.000  0.171  0.000  0.171
  7  0.000  0.171  0.000  0.171
  8  0.000  0.171  0.000  0.171
tot  0.000  0.689  0.000  0.689
 
band  16 # energy   -0.56462578 # occ.  2.00000000
 
ion      s      p      d    tot
  1  0.000  0.001  0.000  0.001
  2  0.000  0.001  0.000  0.001
  3  0.000  0.001  0.000  0.001
  4  0.000  0.001  0.000  0.001
  5  0.000  0.171  0.000  0.171
  6  0.000  0.171  0.000  0.171
  7  0.000  0.171  0.000  0.171
  8  0.000  0.171  0.000  0.171
tot  0.000  0.689  0.000  0.689
 
band  17 # energy    4.50644445 # occ.  0.00000000
 
ion      s      p      d    tot
  1  0.040  0.000  0.000  0.040
  2  0.040  0.000  0.000  0.040
  3  0.040  0.000  0.000  0.040
  4  0.040  0.000  0.000  0.040
  5  0.035  0.000  0.000  0.035
  6  0.035  0.000  0.000  0.035
  7  0.035  0.000  0.000  0.035
  8  0.035  0.000  0.000  0.035
tot  0.302  0.000  0.000  0.302
 
band  18 # energy    6.93412878 # occ.  0.00000000
 
ion      s      p      d    tot
  1  0.124  0.000  0.000  0.124
  2  0.008  0.000  0.000  0.008
  3  0.126  0.000  0.000  0.126
  4  0.013  0.000  0.000  0.013
  5  0.011  0.000  0.000  0.011
  6  0.001  0.000  0.000  0.001
  7  0.011  0.000  0.000  0.011
  8  0.001  0.000  0.000  0.001
tot  0.294  0.000  0.000  0.294
 
band  19 # energy    6.93412878 # occ.  0.00000000
 
ion      s      p      d    tot
  1  0.019  0.000  0.000  0.019
  2  0.180  0.000  0.000  0.180
  3  0.028  0.000  0.000  0.028
  4  0.043  0.000  0.000  0.043
  5  0.002  0.000  0.000  0.002
  6  0.016  0.000  0.000  0.016
  7  0.002  0.000  0.000  0.002
  8  0.004  0.000  0.000  0.004
tot  0.294  0.000  0.000  0.294
 
band  20 # energy    6.93412878 # occ.  0.00000000
 
ion      s      p      d    tot
  1  0.060  0.000  0.000  0.060
  2  0.015  0.000  0.000  0.015
  3  0.049  0.000  0.000  0.049
  4  0.146  0.000  0.000  0.146
  5  0.005  0.000  0.000  0.005
  6  0.001  0.000  0.000  0.001
  7  0.004  0.000  0.000  0.004
  8  0.013  0.000  0.000  0.013
tot  0.294  0.000  0.000  0.294
 
band  21 # energy    7.51974405 # occ.  0.00000000
 
ion      s      p      d    tot
  1  0.000  0.000  0.000  0.000
  2  0.000  0.000  0.000  0.000
  3  0.000  0.000  0.000  0.000
  4  0.000  0.000  0.000  0.000
  5  0.000  0.000  0.000  0.000
  6  0.000  0.000  0.000  0.000
  7  0.000  0.000  0.000  0.000
  8  0.000  0.000  0.000  0.000
tot  0.000  0.000  0.000  0.000
 

 k-point    2 :    0.25000000 0.00000000 0.00000000     weight = 0.09375000

band   1 # energy  -13.14957379 # occ.  2.00000000
 
ion      s      p      d    tot
  1  0.001  0.000  0.000  0.001
  2  0.001  0.000  0.000  0.001
  3  0.001  0.000  0.000  0.001
  4  0.001  0.000  0.000  0.001
  5  0.191  0.000  0.000  0.191
  6  0.191  0.000  0.000  0.191
  7  0.191  0.000  0.000  0.191
  8  0.191  0.000  0.000  0.191
tot  0.768  0.000  0.000  0.769
 
band   2 # energy  -12.88224263 # occ.  2.00000000
 
ion      s      p      d    tot
  1  0.000  0.000  0.000  0.000
  2  0.000  0.000  0.000  0.000
  3  0.000  0.000  0.000  0.000
  4  0.000  0.000  0.000  0.000
  5  0.198  0.000  0.000  0.198
  6  0.198  0.000  0.000  0.198
  7  0.198  0.000  0.000  0.198
  8  0.198  0.000  0.000  0.198
tot  0.795  0.000  0.000  0.795
 
band   3 # energy  -12.82370780 # occ.  2.00000000
 
ion      s      p      d    tot
  1  0.000  0.000  0.000  0.000
  2  0.000  0.000  0.000  0.000
  3  0.000  0.000  0.000  0.000
  4  0.000  0.000  0.000  0.000
  5  0.362  0.000  0.000  0.362
  6  0.362  0.000  0.000  0.362
  7  0.038  0.000  0.000  0.038
  8  0.038  0.000  0.000  0.038
tot  0.801  0.000  0.000  0.801
 
band   4 # energy  -12.82370780 # occ.  2.00000000
 
ion      s      p      d    tot
  1  0.000  0.000  0.000  0.000
  2  0.000  0.000  0.000  0.000
  3  0.000  0.000  0.000  0.000
  4  0.000  0.000  0.000  0.000
  5  0.038  0.000  0.000  0.038
  6  0.038  0.000  0.000  0.038
  7  0.362  0.000  0.000  0.362
  8  0.362  0.000  0.000  0.362
tot  0.801  0.000  0.000  0.801
 
band   5 # energy   -2.09762284 # occ.  2.00000000
 
ion      s      p      d    tot
  1  0.000  0.004  0.000  0.004
  2  0.000  0.004  0.000  0.004
  3  0.000  0.004  0.000  0.004
  4  0.000  0.004  0.000  0.004
  5  0.000  0.132  0.000  0.132
  6  0.000  0.132  0.000  0.132
  7  0.000  0.132  0.000  0.132
  8  0.000  0.132  0.000  0.132
tot  0.000  0.541  0.000  0.541
 
band   6 # energy   -2.09762284 # occ.  2.00000000
 
ion      s      p      d    tot
  1  0.000  0.004  0.000  0.004
  2  0.000  0.004  0.000  0.004
  3  0.000  0.004  0.000  0.004
  4  0.000  0.004  0.000  0.004
  5  0.000  0.132  0.000  0.132
  6  0.000  0.132  0.000  0.132
  7  0.000  0.132  0.000  0.132
  8  0.000  0.132  0.000  0.132
tot  0.000  0.541  0.000  0.541
 
band   7 # energy   -2.07834544 # occ.  2.00000000
 
ion      s      p      d    tot
  1  0.002  0.003  0.000  0.004
  2  0.002  0.003  0.000  0.004
  3  0.002  0.003  0.000  0.004
  4  0.002  0.003  0.000  0.004
  5  0.001  0.131  0.000  0.132
  6  0.001  0.131  0.000  0.132
  7  0.001  0.131  0.000  0.132
  8  0.001  0.131  0.000  0.132
tot  0.010  0.533  0.000  0.544
 
band   8 # energy   -1.35016624 # occ.  2.00000000
 
ion      s      p      d    tot
  1  0.000  0.003  0.000  0.003
  2  0.000  0.003  0.000  0.003
  3  0.000  0.003  0.000  0.003
  4  0.000  0.003  0.000  0.003
  5  0.000  0.150  0.000  0.150
  6  0.000  0.150  0.000  0.150
  7  0.000  0.150  0.000  0.150
  8  0.000  0.150  0.000  0.150
tot  0.000  0.611  0.000  0.611
 
band   9 # energy   -1.35016624 # occ.  2.00000000
 
ion      s      p      d    tot
  1  0.000  0.003  0.000  0.003
  2  0.000  0.003  0.000  0.003
  3  0.000  0.003  0.000  0.003
  4  0.000  0.003  0.000  0.003
  5  0.000  0.150  0.000  0.150
  6  0.000  0.150  0.000  0.150
  7  0.000  0.150  0.000  0.150
  8  0.000  0.150  0.000  0.150
tot  0.000  0.611  0.000  0.611
 
band  10 # energy   -1.23494751 # occ.  2.00000000
 
ion      s      p      d    tot
  1  0.003  0.001  0.000  0.004
  2  0.003  0.001  0.000  0.004
  3  0.002  0.001  0.000  0.003
  4  0.002  0.001  0.000  0.003
  5  0.000  0.184  0.000  0.184
  6  0.000  0.184  0.000  0.184
  7  0.000  0.122  0.000  0.122
  8  0.000  0.122  0.000  0.122
tot  0.008  0.617  0.000  0.625
 
band  11 # energy   -1.23494751 # occ.  2.00000000
 
ion      s      p      d    tot
  1  0.002  0.001  0.000  0.003
  2  0.002  0.001  0.000  0.003
  3  0.003  0.001  0.000  0.004
  4  0.003  0.001  0.000  0.004
  5  0.000  0.122  0.000  0.122
  6  0.000  0.122  0.000  0.122
  7  0.000  0.184  0.000  0.184
  8  0.000  0.184  0.000  0.184
tot  0.008  0.617  0.000  0.625
 
band  12 # energy   -1.08259226 # occ.  2.00000000
 
ion      s      p      d    tot
  1  0.000  0.002  0.000  0.002
  2  0.000  0.002  0.000  0.002
  3  0.000  0.002  0.000  0.002
  4  0.000  0.002  0.000  0.002
  5  0.000  0.158  0.000  0.158
  6  0.000  0.158  0.000  0.158
  7  0.000  0.158  0.000  0.158
  8  0.000  0.158  0.000  0.158
tot  0.000  0.640  0.000  0.640
 
band  13 # energy   -1.08259226 # occ.  2.00000000
 
ion      s      p      d    tot
  1  0.000  0.002  0.000  0.002
  2  0.000  0.002  0.000  0.002
  3  0.000  0.002  0.000  0.002
  4  0.000  0.002  0.000  0.002
  5  0.000  0.158  0.000  0.158
  6  0.000  0.158  0.000  0.158
  7  0.000  0.158  0.000  0.158
  8  0.000  0.158  0.000  0.158
tot  0.000  0.640  0.000  0.640
 
band  14 # energy   -0.94874901 # occ.  2.00000000
 
ion      s      p      d    tot
  1  0.003  0.000  0.000  0.003
  2  0.003  0.000  0.000  0.003
  3  0.003  0.000  0.000  0.003
  4  0.003  0.000  0.000  0.003
  5  0.002  0.156  0.000  0.158
  6  0.002  0.156  0.000  0.158
  7  0.002  0.156  0.000  0.158
  8  0.002  0.156  0.000  0.158
tot  0.018  0.625  0.000  0.644
 
band  15 # energy   -0.66169702 # occ.  2.00000000
 
ion      s      p      d    tot
  1  0.000  0.001  0.000  0.001
  2  0.000  0.001  0.000  0.001
  3  0.000  0.001  0.000  0.001
  4  0.000  0.001  0.000  0.001
  5  0.000  0.168  0.000  0.168
  6  0.000  0.168  0.000  0.168
  7  0.000  0.168  0.000  0.168
  8  0.000  0.168  0.000  0.168
tot  0.000  0.679  0.000  0.679
 
band  16 # energy   -0.66169702 # occ.  2.00000000
 
ion      s      p      d    tot
  1  0.000  0.001  0.000  0.001
  2  0.000  0.001  0.000  0.001
  3  0.000  0.001  0.000  0.001
  4  0.000  0.001  0.000  0.001
  5  0.000  0.168  0.000  0.168
  6  0.000  0.168  0.000  0.168
  7  0.000  0.168  0.000  0.168
  8  0.000  0.168  0.000  0.168
tot  0.000  0.679  0.000  0.679
 
band  17 # energy    5.16081324 # occ.  0.00000000
 
ion      s      p      d    tot
  1  0.037  0.002  0.000  0.038
  2  0.037  0.002  0.000  0.038
  3  0.037  0.002  0.000  0.038
  4  0.037  0.002  0.000  0.038
  5  0.031  0.016  0.000  0.047
  6  0.031  0.016  0.000  0.047
  7  0.031  0.016  0.000  0.047
  8  0.031  0.016  0.000  0.047
tot  0.271  0.070  0.000  0.341
 
band  18 # energy    7.06482354 # occ.  0.00000000
 
ion      s      p      d    tot
  1  0.060  0.000  0.000  0.060
  2  0.060  0.000  0.000  0.060
  3  0.060  0.000  0.000  0.060
  4  0.060  0.000  0.000  0.060
  5  0.010  0.012  0.000  0.022
  6  0.010  0.012  0.000  0.022
  7  0.010  0.012  0.000  0.022
  8  0.010  0.012  0.000  0.022
tot  0.279  0.048  0.000  0.327
 
band  19 # energy    7.44873210 # occ.  0.00000000
 
ion      s      p      d    tot
  1  0.073  0.002  0.000  0.075
  2  0.073  0.002  0.000  0.075
  3  0.058  0.002  0.000  0.060
  4  0.058  0.002  0.000  0.060
  5  0.005  0.008  0.000  0.013
  6  0.005  0.008  0.000  0.013
  7  0.004  0.007  0.000  0.011
  8  0.004  0.007  0.000  0.011
tot  0.278  0.039  0.000  0.317
 
band  20 # energy    7.44873210 # occ.  0.00000000
 
ion      s      p      d    tot
  1  0.058  0.002  0.000  0.060
  2  0.058  0.002  0.000  0.060
  3  0.073  0.002  0.000  0.075
  4  0.073  0.002  0.000  0.075
  5  0.004  0.007  0.000  0.011
  6  0.004  0.007  0.000  0.011
  7  0.005  0.008  0.000  0.013
  8  0.005  0.008  0.000  0.013
tot  0.278  0.039  0.000  0.317
 
band  21 # energy    7.78599367 # occ.  0.00000000
 
ion      s      p      d    tot
  1  0.000  0.000  0.000  0.000
  2  0.000  0.000  0.000  0.000
  3  0.000  0.000  0.000  0.000
  4  0.000  0.000  0.000  0.000
  5  0.000  0.000  0.000  0.000
  6  0.000  0.000  0.000  0.000
  7  0.000  0.000  0.000  0.000
  8  0.000  0.000  0.000  0.000
tot  0.000  0.000  0.000  0.000
 

 k-point    3 :    0.50000000 0.00000000 0.00000000     weight = 0.04687500

band   1 # energy  -13.01548756 # occ.  2.00000000
 
ion      s      p      d    tot
  1  0.000  0.000  0.000  0.001
  2  0.000  0.000  0.000  0.001
  3  0.001  0.000  0.000  0.001
  4  0.001  0.000  0.000  0.001
  5  0.251  0.000  0.000  0.251
  6  0.251  0.000  0.000  0.251
  7  0.139  0.000  0.000  0.139
  8  0.139  0.000  0.000  0.139
tot  0.781  0.001  0.000  0.782
 
band   2 # energy  -13.01548756 # occ.  2.00000000
 
ion      s      p      d    tot
  1  0.001  0.000  0.000  0.001
  2  0.001  0.000  0.000  0.001
  3  0.000  0.000  0.000  0.001
  4  0.000  0.000  0.000  0.001
  5  0.139  0.000  0.000  0.139
  6  0.139  0.000  0.000  0.139
  7  0.251  0.000  0.000  0.251
  8  0.251  0.000  0.000  0.251
tot  0.781  0.001  0.000  0.782
 
band   3 # energy  -12.81991173 # occ.  2.00000000
 
ion      s      p      d    tot
  1  0.000  0.000  0.000  0.000
  2  0.000  0.000  0.000  0.000
  3  0.000  0.000  0.000  0.000
  4  0.000  0.000  0.000  0.000
  5  0.358  0.000  0.000  0.358
  6  0.358  0.000  0.000  0.358
  7  0.042  0.000  0.000  0.042
  8  0.042  0.000  0.000  0.042
tot  0.801  0.000  0.000  0.802
 
band   4 # energy  -12.81991173 # occ.  2.00000000
 
ion      s      p      d    tot
  1  0.000  0.000  0.000  0.000
  2  0.000  0.000  0.000  0.000
  3  0.000  0.000  0.000  0.000
  4  0.000  0.000  0.000  0.000
  5  0.042  0.000  0.000  0.042
  6  0.042  0.000  0.000  0.042
  7  0.358  0.000  0.000  0.358
  8  0.358  0.000  0.000  0.358
tot  0.801  0.000  0.000  0.802
 
band   5 # energy   -1.75174026 # occ.  2.00000000
 
ion      s      p      d    tot
  1  0.000  0.005  0.000  0.005
  2  0.000  0.005  0.000  0.005
  3  0.000  0.001  0.000  0.001
  4  0.000  0.001  0.000  0.001
  5  0.000  0.059  0.000  0.059
  6  0.000  0.059  0.000  0.059
  7  0.000  0.220  0.000  0.220
  8  0.000  0.220  0.000  0.220
tot  0.000  0.570  0.000  0.570
 
band   6 # energy   -1.75174026 # occ.  2.00000000
 
ion      s      p      d    tot
  1  0.000  0.002  0.000  0.002
  2  0.000  0.002  0.000  0.002
  3  0.000  0.005  0.000  0.005
  4  0.000  0.005  0.000  0.005
  5  0.000  0.201  0.000  0.201
  6  0.000  0.201  0.000  0.201
  7  0.000  0.078  0.000  0.078
  8  0.000  0.078  0.000  0.078
tot  0.000  0.570  0.000  0.570
 
band   7 # energy   -1.75174026 # occ.  2.00000000
 
ion      s      p      d    tot
  1  0.000  0.003  0.000  0.003
  2  0.000  0.003  0.000  0.003
  3  0.000  0.004  0.000  0.004
  4  0.000  0.004  0.000  0.004
  5  0.000  0.173  0.000  0.173
  6  0.000  0.173  0.000  0.173
  7  0.000  0.106  0.000  0.106
  8  0.000  0.106  0.000  0.106
tot  0.000  0.570  0.000  0.570
 
band   8 # energy   -1.75174026 # occ.  2.00000000
 
ion      s      p      d    tot
  1  0.000  0.004  0.000  0.004
  2  0.000  0.004  0.000  0.004
  3  0.000  0.003  0.000  0.003
  4  0.000  0.003  0.000  0.003
  5  0.000  0.125  0.000  0.125
  6  0.000  0.125  0.000  0.125
  7  0.000  0.154  0.000  0.154
  8  0.000  0.154  0.000  0.154
tot  0.000  0.570  0.000  0.570
 
band   9 # energy   -1.61675200 # occ.  2.00000000
 
ion      s      p      d    tot
  1  0.005  0.000  0.000  0.005
  2  0.005  0.000  0.000  0.005
  3  0.003  0.001  0.000  0.004
  4  0.003  0.001  0.000  0.004
  5  0.002  0.163  0.000  0.164
  6  0.002  0.163  0.000  0.164
  7  0.003  0.114  0.000  0.117
  8  0.003  0.114  0.000  0.117
tot  0.026  0.556  0.000  0.581
 
band  10 # energy   -1.61675200 # occ.  2.00000000
 
ion      s      p      d    tot
  1  0.003  0.001  0.000  0.004
  2  0.003  0.001  0.000  0.004
  3  0.005  0.000  0.000  0.005
  4  0.005  0.000  0.000  0.005
  5  0.003  0.114  0.000  0.117
  6  0.003  0.114  0.000  0.117
  7  0.002  0.163  0.000  0.164
  8  0.002  0.163  0.000  0.164
tot  0.026  0.556  0.000  0.581
 
band  11 # energy   -1.30566223 # occ.  2.00000000
 
ion      s      p      d    tot
  1  0.003  0.000  0.000  0.003
  2  0.003  0.000  0.000  0.003
  3  0.005  0.000  0.000  0.005
  4  0.005  0.000  0.000  0.005
  5  0.000  0.124  0.000  0.124
  6  0.000  0.124  0.000  0.124
  7  0.000  0.176  0.000  0.176
  8  0.000  0.176  0.000  0.176
tot  0.016  0.601  0.000  0.617
 
band  12 # energy   -1.30566223 # occ.  2.00000000
 
ion      s      p      d    tot
  1  0.005  0.000  0.000  0.005
  2  0.005  0.000  0.000  0.005
  3  0.003  0.000  0.000  0.003
  4  0.003  0.000  0.000  0.003
  5  0.000  0.176  0.000  0.176
  6  0.000  0.176  0.000  0.176
  7  0.000  0.124  0.000  0.124
  8  0.000  0.124  0.000  0.124
tot  0.016  0.601  0.000  0.617
 
band  13 # energy   -0.88114049 # occ.  2.00000000
 
ion      s      p      d    tot
  1  0.000  0.002  0.000  0.002
  2  0.000  0.002  0.000  0.002
  3  0.000  0.001  0.000  0.001
  4  0.000  0.001  0.000  0.001
  5  0.000  0.098  0.000  0.098
  6  0.000  0.098  0.000  0.098
  7  0.000  0.227  0.000  0.227
  8  0.000  0.227  0.000  0.227
tot  0.000  0.657  0.000  0.657
 
band  14 # energy   -0.88114049 # occ.  2.00000000
 
ion      s      p      d    tot
  1  0.000  0.001  0.000  0.001
  2  0.000  0.001  0.000  0.001
  3  0.000  0.003  0.000  0.003
  4  0.000  0.003  0.000  0.003
  5  0.000  0.238  0.000  0.238
  6  0.000  0.238  0.000  0.238
  7  0.000  0.087  0.000  0.087
  8  0.000  0.087  0.000  0.087
tot  0.000  0.657  0.000  0.657
 
band  15 # energy   -0.88114049 # occ.  2.00000000
 
ion      s      p      d    tot
  1  0.000  0.002  0.000  0.002
  2  0.000  0.002  0.000  0.002
  3  0.000  0.001  0.000  0.001
  4  0.000  0.001  0.000  0.001
  5  0.000  0.118  0.000  0.118
  6  0.000  0.118  0.000  0.118
  7  0.000  0.207  0.000  0.207
  8  0.000  0.207  0.000  0.207
tot  0.000  0.657  0.000  0.657
 
band  16 # energy   -0.88114049 # occ.  2.00000000
 
ion      s      p      d    tot
  1  0.000  0.001  0.000  0.001
  2  0.000  0.001  0.000  0.001
  3  0.000  0.002  0.000  0.002
  4  0.000  0.002  0.000  0.002
  5  0.000  0.196  0.000  0.196
  6  0.000  0.196  0.000  0.196
  7  0.000  0.129  0.000  0.129
  8  0.000  0.129  0.000  0.129
tot  0.000  0.657  0.000  0.657
 
band  17 # energy    6.46673746 # occ.  0.00000000
 
ion      s      p      d    tot
  1  0.029  0.002  0.000  0.030
  2  0.029  0.002  0.000  0.030
  3  0.050  0.001  0.000  0.051
  4  0.050  0.001  0.000  0.051
  5  0.028  0.023  0.000  0.051
  6  0.028  0.023  0.000  0.051
  7  0.016  0.040  0.000  0.056
  8  0.016  0.040  0.000  0.056
tot  0.245  0.131  0.000  0.377
 
band  18 # energy    6.46673746 # occ.  0.00000000
 
ion      s      p      d    tot
  1  0.050  0.001  0.000  0.051
  2  0.050  0.001  0.000  0.051
  3  0.029  0.002  0.000  0.030
  4  0.029  0.002  0.000  0.030
  5  0.016  0.040  0.000  0.056
  6  0.016  0.040  0.000  0.056
  7  0.028  0.023  0.000  0.051
  8  0.028  0.023  0.000  0.051
tot  0.245  0.131  0.000  0.377
 
band  19 # energy    8.21754439 # occ.  0.00000000
 
ion      s      p      d    tot
  1  0.069  0.000  0.000  0.069
  2  0.069  0.000  0.000  0.069
  3  0.068  0.000  0.000  0.068
  4  0.068  0.000  0.000  0.068
  5  0.000  0.022  0.000  0.022
  6  0.000  0.022  0.000  0.022
  7  0.000  0.022  0.000  0.022
  8  0.000  0.022  0.000  0.022
tot  0.275  0.087  0.000  0.362
 
band  20 # energy    8.21754442 # occ.  0.00000000
 
ion      s      p      d    tot
  1  0.068  0.000  0.000  0.068
  2  0.068  0.000  0.000  0.068
  3  0.069  0.000  0.000  0.069
  4  0.069  0.000  0.000  0.069
  5  0.000  0.022  0.000  0.022
  6  0.000  0.022  0.000  0.022
  7  0.000  0.022  0.000  0.022
  8  0.000  0.022  0.000  0.022
tot  0.275  0.087  0.000  0.362
 
band  21 # energy    8.56335159 # occ.  0.00000000
 
ion      s      p      d    tot
  1  0.000  0.000  0.000  0.000
  2  0.000  0.000  0.000  0.000
  3  0.000  0.000  0.000  0.000
  4  0.000  0.000  0.000  0.000
  5  0.000  0.000  0.000  0.000
  6  0.000  0.000  0.000  0.000
  7  0.000  0.000  0.000  0.000
  8  0.000  0.000  0.000  0.000
tot  0.000  0.000  0.000  0.000
 

 k-point    4 :    0.25000000 0.25000000 0.00000000     weight = 0.18750000

band   1 # energy  -13.10053269 # occ.  2.00000000
 
ion      s      p      d    tot
  1  0.001  0.000  0.000  0.001
  2  0.001  0.000  0.000  0.001
  3  0.001  0.000  0.000  0.001
  4  0.001  0.000  0.000  0.001
  5  0.192  0.000  0.000  0.192
  6  0.192  0.000  0.000  0.192
  7  0.192  0.000  0.000  0.192
  8  0.192  0.000  0.000  0.192
tot  0.773  0.001  0.000  0.773
 
band   2 # energy  -12.86984381 # occ.  2.00000000
 
ion      s      p      d    tot
  1  0.000  0.000  0.000  0.000
  2  0.000  0.000  0.000  0.000
  3  0.000  0.000  0.000  0.000
  4  0.000  0.000  0.000  0.000
  5  0.033  0.000  0.000  0.033
  6  0.364  0.000  0.000  0.364
  7  0.364  0.000  0.000  0.364
  8  0.033  0.000  0.000  0.033
tot  0.796  0.001  0.000  0.796
 
band   3 # energy  -12.86984381 # occ.  2.00000000
 
ion      s      p      d    tot
  1  0.000  0.000  0.000  0.000
  2  0.000  0.000  0.000  0.000
  3  0.000  0.000  0.000  0.000
  4  0.000  0.000  0.000  0.000
  5  0.364  0.000  0.000  0.364
  6  0.033  0.000  0.000  0.033
  7  0.033  0.000  0.000  0.033
  8  0.364  0.000  0.000  0.364
tot  0.796  0.001  0.000  0.796
 
band   4 # energy  -12.82835502 # occ.  2.00000000
 
ion      s      p      d    tot
  1  0.000  0.000  0.000  0.000
  2  0.000  0.000  0.000  0.000
  3  0.000  0.000  0.000  0.000
  4  0.000  0.000  0.000  0.000
  5  0.200  0.000  0.000  0.200
  6  0.200  0.000  0.000  0.200
  7  0.200  0.000  0.000  0.200
  8  0.200  0.000  0.000  0.200
tot  0.800  0.000  0.000  0.801
 
band   5 # energy   -2.05123104 # occ.  2.00000000
 
ion      s      p      d    tot
  1  0.000  0.002  0.000  0.002
  2  0.005  0.003  0.000  0.008
  3  0.005  0.003  0.000  0.008
  4  0.000  0.002  0.000  0.002
  5  0.000  0.201  0.000  0.201
  6  0.001  0.062  0.000  0.063
  7  0.001  0.062  0.000  0.063
  8  0.000  0.201  0.000  0.201
tot  0.013  0.534  0.000  0.547
 
band   6 # energy   -2.05123104 # occ.  2.00000000
 
ion      s      p      d    tot
  1  0.005  0.003  0.000  0.008
  2  0.000  0.002  0.000  0.002
  3  0.000  0.002  0.000  0.002
  4  0.005  0.003  0.000  0.008
  5  0.001  0.062  0.000  0.063
  6  0.000  0.201  0.000  0.201
  7  0.000  0.201  0.000  0.201
  8  0.001  0.062  0.000  0.063
tot  0.013  0.534  0.000  0.547
 
band   7 # energy   -1.97189859 # occ.  2.00000000
 
ion      s      p      d    tot
  1  0.000  0.004  0.000  0.004
  2  0.000  0.004  0.000  0.004
  3  0.000  0.004  0.000  0.004
  4  0.000  0.004  0.000  0.004
  5  0.000  0.134  0.000  0.134
  6  0.000  0.134  0.000  0.134
  7  0.000  0.134  0.000  0.134
  8  0.000  0.134  0.000  0.134
tot  0.000  0.551  0.000  0.551
 
band   8 # energy   -1.67073558 # occ.  2.00000000
 
ion      s      p      d    tot
  1  0.004  0.001  0.000  0.005
  2  0.004  0.001  0.000  0.005
  3  0.004  0.001  0.000  0.005
  4  0.004  0.001  0.000  0.005
  5  0.000  0.141  0.000  0.141
  6  0.000  0.141  0.000  0.141
  7  0.000  0.141  0.000  0.141
  8  0.000  0.141  0.000  0.141
tot  0.014  0.568  0.000  0.582
 
band   9 # energy   -1.31012780 # occ.  2.00000000
 
ion      s      p      d    tot
  1  0.004  0.000  0.000  0.005
  2  0.004  0.000  0.000  0.005
  3  0.004  0.000  0.000  0.005
  4  0.004  0.000  0.000  0.005
  5  0.002  0.146  0.000  0.148
  6  0.002  0.146  0.000  0.148
  7  0.002  0.146  0.000  0.148
  8  0.002  0.146  0.000  0.148
tot  0.027  0.584  0.000  0.611
 
band  10 # energy   -1.26001667 # occ.  2.00000000
 
ion      s      p      d    tot
  1  0.000  0.002  0.000  0.002
  2  0.000  0.004  0.000  0.004
  3  0.000  0.004  0.000  0.004
  4  0.000  0.002  0.000  0.002
  5  0.000  0.090  0.000  0.090
  6  0.000  0.214  0.000  0.214
  7  0.000  0.214  0.000  0.214
  8  0.000  0.090  0.000  0.090
tot  0.000  0.619  0.000  0.619
 
band  11 # energy   -1.26001667 # occ.  2.00000000
 
ion      s      p      d    tot
  1  0.000  0.004  0.000  0.004
  2  0.000  0.002  0.000  0.002
  3  0.000  0.002  0.000  0.002
  4  0.000  0.004  0.000  0.004
  5  0.000  0.214  0.000  0.214
  6  0.000  0.090  0.000  0.090
  7  0.000  0.090  0.000  0.090
  8  0.000  0.214  0.000  0.214
tot  0.000  0.619  0.000  0.619
 
band  12 # energy   -1.09000861 # occ.  2.00000000
 
ion      s      p      d    tot
  1  0.002  0.000  0.000  0.002
  2  0.000  0.002  0.000  0.002
  3  0.000  0.002  0.000  0.002
  4  0.002  0.000  0.000  0.002
  5  0.000  0.236  0.000  0.236
  6  0.000  0.078  0.000  0.078
  7  0.000  0.078  0.000  0.078
  8  0.000  0.236  0.000  0.236
tot  0.004  0.633  0.000  0.637
 
band  13 # energy   -1.09000861 # occ.  2.00000000
 
ion      s      p      d    tot
  1  0.000  0.002  0.000  0.002
  2  0.002  0.000  0.000  0.002
  3  0.002  0.000  0.000  0.002
  4  0.000  0.002  0.000  0.002
  5  0.000  0.078  0.000  0.078
  6  0.000  0.236  0.000  0.236
  7  0.000  0.236  0.000  0.236
  8  0.000  0.078  0.000  0.078
tot  0.004  0.633  0.000  0.637
 
band  14 # energy   -1.05603028 # occ.  2.00000000
 
ion      s      p      d    tot
  1  0.000  0.002  0.000  0.002
  2  0.000  0.002  0.000  0.002
  3  0.000  0.002  0.000  0.002
  4  0.000  0.002  0.000  0.002
  5  0.000  0.159  0.000  0.159
  6  0.000  0.159  0.000  0.159
  7  0.000  0.159  0.000  0.159
  8  0.000  0.159  0.000  0.159
tot  0.000  0.641  0.000  0.641
 
band  15 # energy   -0.77494706 # occ.  2.00000000
 
ion      s      p      d    tot
  1  0.000  0.002  0.000  0.002
  2  0.000  0.002  0.000  0.002
  3  0.000  0.002  0.000  0.002
  4  0.000  0.002  0.000  0.002
  5  0.000  0.165  0.000  0.165
  6  0.000  0.165  0.000  0.165
  7  0.000  0.165  0.000  0.165
  8  0.000  0.165  0.000  0.165
tot  0.000  0.666  0.000  0.666
 
band  16 # energy   -0.62991976 # occ.  2.00000000
 
ion      s      p      d    tot
  1  0.000  0.000  0.000  0.000
  2  0.000  0.000  0.000  0.000
  3  0.000  0.000  0.000  0.000
  4  0.000  0.000  0.000  0.000
  5  0.000  0.170  0.000  0.170
  6  0.000  0.170  0.000  0.170
  7  0.000  0.170  0.000  0.170
  8  0.000  0.170  0.000  0.170