   2   2   1   0
  0.3405476E+02  0.4583961E-09  0.4583961E-09  0.4583961E-09  0.5000000E-15
  1.000000000000000E-004
  CAR 
 Name                                    
     15.74239858    -10.13488281  301      2.30777666      1.00000000
    -10.135  0.0000E+00  0.0000E+00
    -10.049  0.0000E+00  0.0000E+00
     -9.962  0.0000E+00  0.0000E+00
     -9.876  0.0000E+00  0.0000E+00
     -9.790  0.0000E+00  0.0000E+00
     -9.704  0.0000E+00  0.0000E+00
     -9.617  0.0000E+00  0.0000E+00
     -9.531  0.0000E+00  0.0000E+00
     -9.445  0.0000E+00  0.0000E+00
     -9.359  0.0000E+00  0.0000E+00
     -9.272  0.0000E+00  0.0000E+00
     -9.186  0.0000E+00  0.0000E+00
     -9.100  0.0000E+00  0.0000E+00
     -9.014  0.4469E-15  0.3855E-16
     -8.927  0.1073E+00  0.9259E-02
     -8.841  0.8242E+00  0.8035E-01
     -8.755  0.6436E+00  0.1389E+00
     -8.669  0.1288E+01  0.2500E+00
     -8.582  0.3435E+01  0.5463E+00
     -8.496  0.7578E+01  0.1200E+01
     -8.410  0.6603E+01  0.1875E+01
     -8.323  0.1446E+01  0.2000E+01
     -8.237  0.0000E+00  0.2000E+01
     -8.151  0.0000E+00  0.2000E+01
     -8.065  0.0000E+00  0.2000E+01
     -7.978  0.0000E+00  0.2000E+01
     -7.892  0.0000E+00  0.2000E+01
     -7.806  0.0000E+00  0.2000E+01
     -7.720  0.0000E+00  0.2000E+01
     -7.633  0.0000E+00  0.2000E+01
     -7.547  0.0000E+00  0.2000E+01
     -7.461  0.0000E+00  0.2000E+01
     -7.375  0.0000E+00  0.2000E+01
     -7.288  0.0000E+00  0.2000E+01
     -7.202  0.0000E+00  0.2000E+01
     -7.116  0.0000E+00  0.2000E+01
     -7.030  0.0000E+00  0.2000E+01
     -6.943  0.0000E+00  0.2000E+01
     -6.857  0.0000E+00  0.2000E+01
     -6.771  0.0000E+00  0.2000E+01
     -6.685  0.0000E+00  0.2000E+01
     -6.598  0.0000E+00  0.2000E+01
     -6.512  0.0000E+00  0.2000E+01
     -6.426  0.0000E+00  0.2000E+01
     -6.340  0.0000E+00  0.2000E+01
     -6.253  0.0000E+00  0.2000E+01
     -6.167  0.0000E+00  0.2000E+01
     -6.081  0.0000E+00  0.2000E+01
     -5.995  0.0000E+00  0.2000E+01
     -5.908  0.0000E+00  0.2000E+01
     -5.822  0.3709E+00  0.2032E+01
     -5.736  0.2399E+02  0.4105E+01
     -5.649  0.2271E+02  0.6204E+01
     -5.563  0.1846E+02  0.7815E+01
     -5.477  0.2992E+02  0.1052E+02
     -5.391  0.3044E+00  0.1057E+02
     -5.304  0.2261E-01  0.1060E+02
     -5.218  0.5488E+01  0.1108E+02
     -5.132  0.4860E+01  0.1151E+02
     -5.046  0.4196E+01  0.1189E+02
     -4.959  0.1279E+01  0.1200E+02
     -4.873  0.0000E+00  0.1200E+02
     -4.787  0.0000E+00  0.1200E+02
     -4.701  0.0000E+00  0.1200E+02
     -4.614  0.0000E+00  0.1200E+02
     -4.528  0.0000E+00  0.1200E+02
     -4.442  0.0000E+00  0.1200E+02
     -4.356  0.0000E+00  0.1200E+02
     -4.269  0.0000E+00  0.1200E+02
     -4.183  0.0000E+00  0.1200E+02
     -4.097  0.0000E+00  0.1200E+02
     -4.011  0.0000E+00  0.1200E+02
     -3.924  0.0000E+00  0.1200E+02
     -3.838  0.0000E+00  0.1200E+02
     -3.752  0.0000E+00  0.1200E+02
     -3.666  0.0000E+00  0.1200E+02
     -3.579  0.0000E+00  0.1200E+02
     -3.493  0.0000E+00  0.1200E+02
     -3.407  0.0000E+00  0.1200E+02
     -3.321  0.0000E+00  0.1200E+02
     -3.234  0.0000E+00  0.1200E+02
     -3.148  0.0000E+00  0.1200E+02
     -3.062  0.0000E+00  0.1200E+02
     -2.976  0.0000E+00  0.1200E+02
     -2.889  0.0000E+00  0.1200E+02
     -2.803  0.0000E+00  0.1200E+02
     -2.717  0.0000E+00  0.1200E+02
     -2.630  0.0000E+00  0.1200E+02
     -2.544  0.0000E+00  0.1200E+02
     -2.458  0.0000E+00  0.1200E+02
     -2.372  0.0000E+00  0.1200E+02
     -2.285  0.7549E-09  0.1200E+02
     -2.199  0.4294E+00  0.1204E+02
     -2.113  0.8376E-01  0.1204E+02
     -2.027  0.1513E+01  0.1220E+02
     -1.940  0.3441E+01  0.1269E+02
     -1.854  0.2576E+01  0.1295E+02
     -1.768  0.6954E-01  0.1296E+02
     -1.682  0.2507E+01  0.1318E+02
     -1.595  0.6269E-01  0.1318E+02
     -1.509  0.2514E+01  0.1340E+02
     -1.423  0.3816E-08  0.1340E+02
     -1.337  0.8588E+00  0.1347E+02
     -1.250  0.6317E+00  0.1353E+02
     -1.164  0.0000E+00  0.1353E+02
     -1.078  0.0000E+00  0.1353E+02
     -0.992  0.0000E+00  0.1353E+02
     -0.905  0.2464E+01  0.1374E+02
     -0.819  0.0000E+00  0.1375E+02
     -0.733  0.0000E+00  0.1375E+02
     -0.647  0.0000E+00  0.1375E+02
     -0.560  0.3346E-13  0.1375E+02
     -0.474  0.1288E+01  0.1386E+02
     -0.388  0.1288E+01  0.1397E+02
     -0.302  0.0000E+00  0.1397E+02
     -0.215  0.7171E-05  0.1397E+02
     -0.129  0.2576E+01  0.1419E+02
     -0.043  0.5922E-08  0.1419E+02
      0.044  0.1723E+01  0.1434E+02
      0.130  0.3871E+01  0.1468E+02
      0.216  0.2134E+01  0.1486E+02
      0.302  0.2467E-12  0.1486E+02
      0.389  0.6441E+00  0.1492E+02
      0.475  0.3264E+01  0.1520E+02
      0.561  0.4585E+00  0.1531E+02
      0.647  0.7270E+01  0.1594E+02
      0.734  0.1069E+01  0.1603E+02
      0.820  0.0000E+00  0.1605E+02
      0.906  0.1422E+01  0.1617E+02
      0.992  0.1284E+01  0.1649E+02
      1.079  0.4920E-03  0.1649E+02
      1.165  0.5152E+01  0.1694E+02
      1.251  0.2576E+01  0.1716E+02
      1.337  0.0000E+00  0.1716E+02
      1.424  0.9802E-02  0.1716E+02
      1.510  0.3425E+01  0.1745E+02
      1.596  0.1495E-07  0.1745E+02
      1.682  0.3006E+01  0.1771E+02
      1.769  0.0000E+00  0.1771E+02
      1.855  0.5584E-11  0.1771E+02
      1.941  0.1288E+01  0.1782E+02
      2.027  0.9680E+00  0.1791E+02
      2.114  0.0000E+00  0.1797E+02
      2.200  0.0000E+00  0.1797E+02
      2.286  0.3220E+00  0.1800E+02
      2.372  0.0000E+00  0.1800E+02
      2.459  0.0000E+00  0.1800E+02
      2.545  0.0000E+00  0.1800E+02
      2.631  0.0000E+00  0.1800E+02
      2.718  0.0000E+00  0.1800E+02
      2.804  0.0000E+00  0.1800E+02
      2.890  0.2950E-01  0.1800E+02
      2.976  0.0000E+00  0.1801E+02
      3.063  0.0000E+00  0.1801E+02
      3.149  0.0000E+00  0.1801E+02
      3.235  0.0000E+00  0.1801E+02
      3.321  0.0000E+00  0.1801E+02
      3.408  0.0000E+00  0.1801E+02
      3.494  0.0000E+00  0.1801E+02
      3.580  0.0000E+00  0.1801E+02
      3.666  0.0000E+00  0.1801E+02
      3.753  0.0000E+00  0.1801E+02
      3.839  0.0000E+00  0.1801E+02
      3.925  0.9800E-07  0.1801E+02
      4.011  0.7081E+00  0.1807E+02
      4.098  0.8586E+00  0.1819E+02
      4.184  0.0000E+00  0.1819E+02
      4.270  0.0000E+00  0.1819E+02
      4.356  0.0000E+00  0.1819E+02
      4.443  0.0000E+00  0.1819E+02
      4.529  0.0000E+00  0.1819E+02
      4.615  0.0000E+00  0.1819E+02
      4.701  0.6987E+00  0.1825E+02
      4.788  0.2673E+00  0.1828E+02
      4.874  0.2078E+01  0.1846E+02
      4.960  0.3593E+01  0.1878E+02
      5.046  0.4860E+01  0.1934E+02
      5.133  0.0000E+00  0.1936E+02
      5.219  0.1288E+01  0.1947E+02
      5.305  0.6059E+00  0.1952E+02
      5.391  0.0000E+00  0.1953E+02
      5.478  0.0000E+00  0.1953E+02
      5.564  0.0000E+00  0.1953E+02
      5.650  0.0000E+00  0.1953E+02
      5.737  0.6354E-02  0.1953E+02
      5.823  0.2574E+01  0.1975E+02
      5.909  0.7575E+01  0.2040E+02
      5.995  0.0000E+00  0.2047E+02
      6.082  0.0000E+00  0.2047E+02
      6.168  0.2863E-02  0.2047E+02
      6.254  0.2576E+01  0.2069E+02
      6.340  0.2574E+01  0.2092E+02
      6.427  0.0000E+00  0.2092E+02
      6.513  0.0000E+00  0.2092E+02
      6.599  0.0000E+00  0.2092E+02
      6.685  0.0000E+00  0.2092E+02
      6.772  0.2743E+01  0.2115E+02
      6.858  0.3823E+01  0.2150E+02
      6.944  0.7996E+00  0.2157E+02
      7.030  0.1573E-14  0.2157E+02
      7.117  0.4073E+01  0.2193E+02
      7.203  0.0000E+00  0.2194E+02
      7.289  0.9683E+00  0.2203E+02
      7.375  0.2166E+01  0.2224E+02
      7.462  0.4273E+01  0.2261E+02
      7.548  0.0000E+00  0.2261E+02
      7.634  0.5525E-01  0.2262E+02
      7.720  0.1492E+01  0.2274E+02
      7.807  0.1682E+01  0.2298E+02
      7.893  0.2597E+01  0.2328E+02
      7.979  0.2555E+01  0.2350E+02
      8.065  0.1256E-08  0.2350E+02
      8.152  0.2576E+01  0.2372E+02
      8.238  0.4147E-14  0.2372E+02
      8.324  0.2576E+01  0.2394E+02
      8.411  0.8584E+00  0.2402E+02
      8.497  0.1663E+01  0.2416E+02
      8.583  0.0000E+00  0.2424E+02
      8.669  0.3876E-13  0.2424E+02
      8.756  0.2576E+01  0.2446E+02
      8.842  0.1105E+01  0.2456E+02
      8.928  0.0000E+00  0.2457E+02
      9.014  0.3243E+00  0.2460E+02
      9.101  0.1147E+00  0.2470E+02
      9.187  0.5467E+01  0.2517E+02
      9.273  0.2005E-06  0.2517E+02
      9.359  0.6441E+00  0.2522E+02
      9.446  0.2576E+01  0.2544E+02
      9.532  0.7513E+00  0.2551E+02
      9.618  0.3080E+01  0.2577E+02
      9.704  0.1286E+01  0.2595E+02
      9.791  0.0000E+00  0.2595E+02
      9.877  0.1939E+01  0.2612E+02
      9.963  0.1150E+01  0.2629E+02
     10.049  0.2341E+01  0.2649E+02
     10.136  0.3104E+01  0.2678E+02
     10.222  0.0000E+00  0.2681E+02
     10.308  0.6713E-07  0.2681E+02
     10.394  0.2576E+01  0.2703E+02
     10.481  0.1937E-04  0.2703E+02
     10.567  0.8587E+00  0.2710E+02
     10.653  0.3937E+01  0.2744E+02
     10.739  0.2088E+00  0.2749E+02
     10.826  0.0000E+00  0.2751E+02
     10.912  0.6565E-02  0.2751E+02
     10.998  0.2892E+01  0.2776E+02
     11.084  0.1718E+01  0.2791E+02
     11.171  0.1563E+01  0.2804E+02
     11.257  0.2575E+01  0.2835E+02
     11.343  0.3864E+01  0.2869E+02
     11.430  0.0000E+00  0.2869E+02
     11.516  0.0000E+00  0.2869E+02
     11.602  0.2147E+00  0.2870E+02
     11.688  0.7151E-16  0.2870E+02
     11.775  0.1288E+01  0.2881E+02
     11.861  0.7869E+00  0.2888E+02
     11.947  0.5155E+01  0.2933E+02
     12.033  0.0000E+00  0.2943E+02
     12.120  0.4566E+00  0.2947E+02
     12.206  0.2120E+01  0.2965E+02
     12.292  0.0000E+00  0.2965E+02
     12.378  0.2403E-13  0.2965E+02
     12.465  0.2742E+01  0.2988E+02
     12.551  0.3914E+01  0.3022E+02
     12.637  0.5091E+01  0.3066E+02
     12.723  0.0000E+00  0.3067E+02
     12.810  0.0000E+00  0.3067E+02
     12.896  0.2480E+01  0.3088E+02
     12.982  0.3289E-14  0.3089E+02
     13.068  0.3220E+00  0.3092E+02
     13.155  0.0000E+00  0.3092E+02
     13.241  0.8529E-07  0.3092E+02
     13.327  0.1288E+01  0.3103E+02
     13.413  0.2320E+01  0.3123E+02
     13.500  0.6746E+00  0.3131E+02
     13.586  0.2477E-03  0.3136E+02
     13.672  0.5139E+01  0.3180E+02
     13.758  0.3087E+00  0.3183E+02
     13.845  0.0000E+00  0.3183E+02
     13.931  0.0000E+00  0.3183E+02
     14.017  0.0000E+00  0.3183E+02
     14.104  0.6417E+00  0.3189E+02
     14.190  0.0000E+00  0.3189E+02
     14.276  0.2580E-06  0.3189E+02
     14.362  0.1288E+01  0.3200E+02
     14.449  0.0000E+00  0.3200E+02
     14.535  0.0000E+00  0.3200E+02
     14.621  0.0000E+00  0.3200E+02
     14.707  0.0000E+00  0.3200E+02
     14.794  0.0000E+00  0.3200E+02
     14.880  0.0000E+00  0.3200E+02
     14.966  0.0000E+00  0.3200E+02
     15.052  0.0000E+00  0.3200E+02
     15.139  0.0000E+00  0.3200E+02
     15.225  0.0000E+00  0.3200E+02
     15.311  0.0000E+00  0.3200E+02
     15.397  0.0000E+00  0.3200E+02
     15.484  0.0000E+00  0.3200E+02
     15.570  0.0000E+00  0.3200E+02
     15.656  0.0000E+00  0.3200E+02
     15.742  0.0000E+00  0.3200E+02
     15.74239858    -10.13488281  301      2.30777666      1.00000000
    -10.135  0.0000E+00  0.0000E+00  0.0000E+00
    -10.049  0.0000E+00  0.0000E+00  0.0000E+00
     -9.962  0.0000E+00  0.0000E+00  0.0000E+00
     -9.876  0.0000E+00  0.0000E+00  0.0000E+00
     -9.790  0.0000E+00  0.0000E+00  0.0000E+00
     -9.704  0.0000E+00  0.0000E+00  0.0000E+00
     -9.617  0.0000E+00  0.0000E+00  0.0000E+00
     -9.531  0.0000E+00  0.0000E+00  0.0000E+00
     -9.445  0.0000E+00  0.0000E+00  0.0000E+00
     -9.359  0.0000E+00  0.0000E+00  0.0000E+00
     -9.272  0.0000E+00  0.0000E+00  0.0000E+00
     -9.186  0.0000E+00  0.0000E+00  0.0000E+00
     -9.100  0.0000E+00  0.0000E+00  0.0000E+00
     -9.014  0.2823E-16  0.2492E-27  0.1171E-26
     -8.927  0.6781E-02  0.5985E-13  0.2814E-12
     -8.841  0.4395E-01  0.2074E-02  0.1279E-01
     -8.755  0.3212E-01  0.2181E-02  0.1357E-01
     -8.669  0.4975E-01  0.7707E-02  0.5435E-01
     -8.582  0.1051E+00  0.2659E-01  0.2010E+00
     -8.496  0.1171E+00  0.8200E-01  0.7031E+00
     -8.410  0.2898E-01  0.8631E-01  0.7862E+00
     -8.323  0.1890E-12  0.2018E-01  0.1879E+00
     -8.237  0.0000E+00  0.0000E+00  0.0000E+00
     -8.151  0.0000E+00  0.0000E+00  0.0000E+00
     -8.065  0.0000E+00  0.0000E+00  0.0000E+00
     -7.978  0.0000E+00  0.0000E+00  0.0000E+00
     -7.892  0.0000E+00  0.0000E+00  0.0000E+00
     -7.806  0.0000E+00  0.0000E+00  0.0000E+00
     -7.720  0.0000E+00  0.0000E+00  0.0000E+00
     -7.633  0.0000E+00  0.0000E+00  0.0000E+00
     -7.547  0.0000E+00  0.0000E+00  0.0000E+00
     -7.461  0.0000E+00  0.0000E+00  0.0000E+00
     -7.375  0.0000E+00  0.0000E+00  0.0000E+00
     -7.288  0.0000E+00  0.0000E+00  0.0000E+00
     -7.202  0.0000E+00  0.0000E+00  0.0000E+00
     -7.116  0.0000E+00  0.0000E+00  0.0000E+00
     -7.030  0.0000E+00  0.0000E+00  0.0000E+00
     -6.943  0.0000E+00  0.0000E+00  0.0000E+00
     -6.857  0.0000E+00  0.0000E+00  0.0000E+00
     -6.771  0.0000E+00  0.0000E+00  0.0000E+00
     -6.685  0.0000E+00  0.0000E+00  0.0000E+00
     -6.598  0.0000E+00  0.0000E+00  0.0000E+00
     -6.512  0.0000E+00  0.0000E+00  0.0000E+00
     -6.426  0.0000E+00  0.0000E+00  0.0000E+00
     -6.340  0.0000E+00  0.0000E+00  0.0000E+00
     -6.253  0.0000E+00  0.0000E+00  0.0000E+00
     -6.167  0.0000E+00  0.0000E+00  0.0000E+00
     -6.081  0.0000E+00  0.0000E+00  0.0000E+00
     -5.995  0.0000E+00  0.0000E+00  0.0000E+00
     -5.908  0.0000E+00  0.0000E+00  0.0000E+00
     -5.822  0.1310E-14  0.1587E-03  0.3341E+00
     -5.736  0.1076E-01  0.1179E-01  0.2181E+02
     -5.649  0.5604E-02  0.1262E-01  0.2088E+02
     -5.563  0.2752E-01  0.8630E-03  0.1711E+02
     -5.477  0.3004E-01  0.1775E-02  0.2808E+02
     -5.391  0.3212E-02  0.3856E-03  0.2573E+00
     -5.304  0.2364E-03  0.3183E-04  0.1908E-01
     -5.218  0.5586E-01  0.8781E-02  0.4614E+01
     -5.132  0.3088E-01  0.1291E-01  0.4061E+01
     -5.046  0.1527E-01  0.1360E-01  0.3492E+01
     -4.959  0.5533E-15  0.5562E-02  0.1056E+01
     -4.873  0.0000E+00  0.0000E+00  0.0000E+00
     -4.787  0.0000E+00  0.0000E+00  0.0000E+00
     -4.701  0.0000E+00  0.0000E+00  0.0000E+00
     -4.614  0.0000E+00  0.0000E+00  0.0000E+00
     -4.528  0.0000E+00  0.0000E+00  0.0000E+00
     -4.442  0.0000E+00  0.0000E+00  0.0000E+00
     -4.356  0.0000E+00  0.0000E+00  0.0000E+00
     -4.269  0.0000E+00  0.0000E+00  0.0000E+00
     -4.183  0.0000E+00  0.0000E+00  0.0000E+00
     -4.097  0.0000E+00  0.0000E+00  0.0000E+00
     -4.011  0.0000E+00  0.0000E+00  0.0000E+00
     -3.924  0.0000E+00  0.0000E+00  0.0000E+00
     -3.838  0.0000E+00  0.0000E+00  0.0000E+00
     -3.752  0.0000E+00  0.0000E+00  0.0000E+00
     -3.666  0.0000E+00  0.0000E+00  0.0000E+00
     -3.579  0.0000E+00  0.0000E+00  0.0000E+00
     -3.493  0.0000E+00  0.0000E+00  0.0000E+00
     -3.407  0.0000E+00  0.0000E+00  0.0000E+00
     -3.321  0.0000E+00  0.0000E+00  0.0000E+00
     -3.234  0.0000E+00  0.0000E+00  0.0000E+00
     -3.148  0.0000E+00  0.0000E+00  0.0000E+00
     -3.062  0.0000E+00  0.0000E+00  0.0000E+00
     -2.976  0.0000E+00  0.0000E+00  0.0000E+00
     -2.889  0.0000E+00  0.0000E+00  0.0000E+00
     -2.803  0.0000E+00  0.0000E+00  0.0000E+00
     -2.717  0.0000E+00  0.0000E+00  0.0000E+00
     -2.630  0.0000E+00  0.0000E+00  0.0000E+00
     -2.544  0.0000E+00  0.0000E+00  0.0000E+00
     -2.458  0.0000E+00  0.0000E+00  0.0000E+00
     -2.372  0.0000E+00  0.0000E+00  0.0000E+00
     -2.285  0.1253E-09  0.1983E-10  0.7071E-13
     -2.199  0.7126E-01  0.1128E-01  0.4022E-04
     -2.113  0.2056E-01  0.8650E-14  0.2877E-02
     -2.027  0.3082E+00  0.2367E-01  0.1871E-01
     -1.940  0.8084E+00  0.2919E-01  0.2860E-01
     -1.854  0.6062E+00  0.1041E-01  0.8430E-01
     -1.768  0.1221E-01  0.1534E-02  0.1834E-02
     -1.682  0.4400E+00  0.5531E-01  0.6613E-01
     -1.595  0.1300E-01  0.7205E-03  0.2476E-02
     -1.509  0.5214E+00  0.2889E-01  0.9929E-01
     -1.423  0.5525E-09  0.1071E-09  0.1608E-09
     -1.337  0.1243E+00  0.2410E-01  0.3618E-01
     -1.250  0.1297E+00  0.4030E-02  0.4112E-01
     -1.164  0.0000E+00  0.0000E+00  0.0000E+00
     -1.078  0.0000E+00  0.0000E+00  0.0000E+00
     -0.992  0.0000E+00  0.0000E+00  0.0000E+00
     -0.905  0.4013E+00  0.4892E-01  0.1411E+00
     -0.819  0.0000E+00  0.0000E+00  0.0000E+00
     -0.733  0.0000E+00  0.0000E+00  0.0000E+00
     -0.647  0.0000E+00  0.0000E+00  0.0000E+00
     -0.560  0.5048E-14  0.7274E-15  0.2014E-14
     -0.474  0.1943E+00  0.2800E-01  0.7752E-01
     -0.388  0.6243E-02  0.9258E-01  0.3850E-01
     -0.302  0.0000E+00  0.0000E+00  0.0000E+00
     -0.215  0.1210E-06  0.4875E-06  0.2397E-06
     -0.129  0.4346E-01  0.1751E+00  0.8610E-01
     -0.043  0.1379E-10  0.4062E-09  0.2373E-09
      0.044  0.5739E-02  0.1208E+00  0.6311E-01
      0.130  0.1956E-01  0.3003E+00  0.8401E-01
      0.216  0.2939E-01  0.1498E+00  0.6887E-01
      0.302  0.3202E-28  0.1988E-13  0.4601E-14
      0.389  0.2378E-09  0.5192E-01  0.1201E-01
      0.475  0.1701E+00  0.1741E+00  0.1489E+00
      0.561  0.1623E-01  0.2724E-01  0.1982E-01
      0.647  0.7831E-01  0.5180E+00  0.2469E+00
      0.734  0.5352E-16  0.8020E-01  0.3499E-01
      0.820  0.0000E+00  0.0000E+00  0.0000E+00
      0.906  0.3404E-02  0.1013E+00  0.5519E-01
      0.992  0.1738E-01  0.8073E-01  0.6135E-01
      1.079  0.1116E-04  0.2864E-04  0.2464E-04
      1.165  0.5840E-01  0.3277E+00  0.2383E+00
      1.251  0.1135E-13  0.1697E+00  0.1226E+00
      1.337  0.0000E+00  0.0000E+00  0.0000E+00
      1.424  0.2223E-17  0.6104E-03  0.4993E-03
      1.510  0.1128E-14  0.2131E+00  0.1741E+00
      1.596  0.6128E-23  0.8361E-09  0.8633E-09
      1.682  0.9030E-15  0.1657E+00  0.1780E+00
      1.769  0.0000E+00  0.0000E+00  0.0000E+00
      1.855  0.7152E-27  0.2602E-12  0.3700E-12
      1.941  0.1650E-15  0.6001E-01  0.8534E-01
      2.027  0.2504E-15  0.3858E-01  0.7027E-01
      2.114  0.0000E+00  0.0000E+00  0.0000E+00
      2.200  0.0000E+00  0.0000E+00  0.0000E+00
      2.286  0.4210E-14  0.8782E-02  0.2640E-01
      2.372  0.0000E+00  0.0000E+00  0.0000E+00
      2.459  0.0000E+00  0.0000E+00  0.0000E+00
      2.545  0.0000E+00  0.0000E+00  0.0000E+00
      2.631  0.0000E+00  0.0000E+00  0.0000E+00
      2.718  0.0000E+00  0.0000E+00  0.0000E+00
      2.804  0.0000E+00  0.0000E+00  0.0000E+00
      2.890  0.9019E-02  0.1635E-15  0.2485E-15
      2.976  0.0000E+00  0.0000E+00  0.0000E+00
      3.063  0.0000E+00  0.0000E+00  0.0000E+00
      3.149  0.0000E+00  0.0000E+00  0.0000E+00
      3.235  0.0000E+00  0.0000E+00  0.0000E+00
      3.321  0.0000E+00  0.0000E+00  0.0000E+00
      3.408  0.0000E+00  0.0000E+00  0.0000E+00
      3.494  0.0000E+00  0.0000E+00  0.0000E+00
      3.580  0.0000E+00  0.0000E+00  0.0000E+00
      3.666  0.0000E+00  0.0000E+00  0.0000E+00
      3.753  0.0000E+00  0.0000E+00  0.0000E+00
      3.839  0.0000E+00  0.0000E+00  0.0000E+00
      3.925  0.2395E-07  0.3024E-08  0.9733E-09
      4.011  0.1645E+00  0.2221E-01  0.5775E-02
      4.098  0.2021E+00  0.3339E-01  0.4806E-02
      4.184  0.0000E+00  0.0000E+00  0.0000E+00
      4.270  0.0000E+00  0.0000E+00  0.0000E+00
      4.356  0.0000E+00  0.0000E+00  0.0000E+00
      4.443  0.0000E+00  0.0000E+00  0.0000E+00
      4.529  0.0000E+00  0.0000E+00  0.0000E+00
      4.615  0.0000E+00  0.0000E+00  0.0000E+00
      4.701  0.1294E+00  0.1071E-01  0.1238E-01
      4.788  0.3110E-09  0.2550E-01  0.9861E-02
      4.874  0.4042E+00  0.8368E-01  0.3012E-01
      4.960  0.6076E+00  0.1571E+00  0.7566E-01
      5.046  0.9828E+00  0.1850E+00  0.6324E-01
      5.133  0.0000E+00  0.0000E+00  0.0000E+00
      5.219  0.1751E+00  0.7135E-01  0.3507E-01
      5.305  0.5428E-01  0.3187E-01  0.1715E-01
      5.391  0.0000E+00  0.0000E+00  0.0000E+00
      5.478  0.0000E+00  0.0000E+00  0.0000E+00
      5.564  0.0000E+00  0.0000E+00  0.0000E+00
      5.650  0.0000E+00  0.0000E+00  0.0000E+00
      5.737  0.1510E-02  0.6783E-04  0.1066E-03
      5.823  0.6107E+00  0.2815E-01  0.4315E-01
      5.909  0.1082E+01  0.3489E+00  0.1803E+00
      5.995  0.0000E+00  0.0000E+00  0.0000E+00
      6.082  0.0000E+00  0.0000E+00  0.0000E+00
      6.168  0.1299E-03  0.3640E-03  0.3596E-04
      6.254  0.1168E+00  0.3274E+00  0.3238E-01
      6.340  0.8881E-03  0.2906E+00  0.7126E-01
      6.427  0.0000E+00  0.0000E+00  0.0000E+00
      6.513  0.0000E+00  0.0000E+00  0.0000E+00
      6.599  0.0000E+00  0.0000E+00  0.0000E+00
      6.685  0.0000E+00  0.0000E+00  0.0000E+00
      6.772  0.1797E-02  0.2343E+00  0.9081E-01
      6.858  0.1298E+00  0.3700E+00  0.9855E-01
      6.944  0.3922E-01  0.9717E-01  0.1055E-01
      7.030  0.2302E-16  0.1383E-15  0.4786E-16
      7.117  0.3770E-01  0.5689E+00  0.8809E-01
      7.203  0.0000E+00  0.0000E+00  0.0000E+00
      7.289  0.1054E+00  0.1928E-01  0.1376E-01
      7.375  0.2053E-14  0.4268E+00  0.3886E-01
      7.462  0.2363E-03  0.5443E+00  0.1166E+00
      7.548  0.0000E+00  0.0000E+00  0.0000E+00
      7.634  0.1826E-03  0.6299E-02  0.1121E-02
      7.720  0.4075E-02  0.1950E+00  0.2806E-01
      7.807  0.1259E-13  0.2906E+00  0.3982E-01
      7.893  0.2113E-02  0.2416E+00  0.8769E-01
      7.979  0.1217E+00  0.2568E+00  0.4215E-01
      8.065  0.4309E-23  0.1837E-09  0.4006E-10
      8.152  0.8834E-14  0.3767E+00  0.8215E-01
      8.238  0.6077E-29  0.7331E-15  0.9211E-16
      8.324  0.3775E-14  0.4554E+00  0.5722E-01
      8.411  0.2927E-01  0.4760E-01  0.1341E-01
      8.497  0.5771E-01  0.1060E+00  0.3980E-01
      8.583  0.0000E+00  0.0000E+00  0.0000E+00
      8.669  0.8160E-15  0.3116E-14  0.1174E-14
      8.756  0.5424E-01  0.2072E+00  0.7801E-01
      8.842  0.3030E-14  0.1503E+00  0.2754E-01
      8.928  0.0000E+00  0.0000E+00  0.0000E+00
      9.014  0.1978E-13  0.5056E-01  0.6636E-02
      9.101  0.4518E-02  0.9311E-02  0.2723E-02
      9.187  0.1493E+00  0.4153E+00  0.1583E+00
      9.273  0.9818E-10  0.1401E-08  0.1291E-07
      9.359  0.3153E-03  0.4501E-02  0.4148E-01
      9.446  0.6611E-03  0.2659E+00  0.9854E-01
      9.532  0.5448E-01  0.2868E-02  0.2216E-01
      9.618  0.4348E-02  0.5384E+00  0.8117E-01
      9.704  0.2217E-14  0.2360E+00  0.2447E-01
      9.791  0.0000E+00  0.0000E+00  0.0000E+00
      9.877  0.2895E-14  0.2710E+00  0.5496E-01
      9.963  0.1996E-14  0.1592E-02  0.9056E-01
     10.049  0.2763E-01  0.1670E+00  0.9880E-01
     10.136  0.5462E-01  0.3590E+00  0.1089E+00
     10.222  0.0000E+00  0.0000E+00  0.0000E+00
     10.308  0.8434E-09  0.2322E-08  0.2785E-08
     10.394  0.3237E-01  0.8911E-01  0.1069E+00
     10.481  0.2313E-05  0.1171E-05  0.7555E-07
     10.567  0.1025E+00  0.5191E-01  0.3349E-02
     10.653  0.7175E-09  0.1083E+00  0.2799E+00
     10.739  0.2419E-01  0.1863E-03  0.4181E-04
     10.826  0.0000E+00  0.0000E+00  0.0000E+00
     10.912  0.6091E-04  0.4936E-03  0.1866E-03
     10.998  0.4890E-01  0.1932E+00  0.7483E-01
     11.084  0.3929E-09  0.7001E-01  0.1080E+00
     11.171  0.8775E-03  0.1356E+00  0.7793E-01
     11.257  0.5323E-01  0.2426E+00  0.6277E-01
     11.343  0.1691E+00  0.5014E+00  0.5554E-01
     11.430  0.0000E+00  0.0000E+00  0.0000E+00
     11.516  0.0000E+00  0.0000E+00  0.0000E+00
     11.602  0.1561E-09  0.7666E-09  0.2152E-01
     11.688  0.1521E-18  0.1030E-16  0.2456E-17
     11.775  0.2741E-02  0.1855E+00  0.4424E-01
     11.861  0.9769E-02  0.8214E-02  0.5994E-01
     11.947  0.2728E+00  0.2689E+00  0.1562E+00
     12.033  0.0000E+00  0.0000E+00  0.0000E+00
     12.120  0.2610E-01  0.1485E-01  0.1173E-01
     12.206  0.1212E+00  0.6895E-01  0.5446E-01
     12.292  0.0000E+00  0.0000E+00  0.0000E+00
     12.378  0.2076E-18  0.3192E-14  0.1243E-14
     12.465  0.4159E-02  0.3497E+00  0.1395E+00
     12.551  0.7634E-01  0.1998E+00  0.1408E+00
     12.637  0.5470E-03  0.3223E+00  0.1997E+00
     12.723  0.0000E+00  0.0000E+00  0.0000E+00
     12.810  0.0000E+00  0.0000E+00  0.0000E+00
     12.896  0.3636E-09  0.1927E+00  0.7779E-01
     12.982  0.3491E-24  0.3492E-21  0.1833E-21
     13.068  0.3418E-10  0.3419E-07  0.1794E-07
     13.155  0.0000E+00  0.0000E+00  0.0000E+00
     13.241  0.1193E-14  0.1277E-07  0.3244E-08
     13.327  0.1802E-07  0.1928E+00  0.4899E-01
     13.413  0.4122E-03  0.2550E+00  0.8232E-01
     13.500  0.3704E-02  0.4884E-02  0.4201E-01
     13.586  0.3647E-05  0.2818E-04  0.7741E-05
     13.672  0.4473E-01  0.6842E+00  0.1674E+00
     13.758  0.2329E-08  0.8984E-02  0.1871E-01
     13.845  0.0000E+00  0.0000E+00  0.0000E+00
     13.931  0.0000E+00  0.0000E+00  0.0000E+00
     14.017  0.0000E+00  0.0000E+00  0.0000E+00
     14.104  0.3809E-01  0.1250E+00  0.4111E-02
     14.190  0.0000E+00  0.0000E+00  0.0000E+00
     14.276  0.6532E-08  0.1958E-07  0.6585E-09
     14.362  0.3262E-01  0.9777E-01  0.3288E-02
     14.449  0.0000E+00  0.0000E+00  0.0000E+00
     14.535  0.0000E+00  0.0000E+00  0.0000E+00
     14.621  0.0000E+00  0.0000E+00  0.0000E+00
     14.707  0.0000E+00  0.0000E+00  0.0000E+00
     14.794  0.0000E+00  0.0000E+00  0.0000E+00
     14.880  0.0000E+00  0.0000E+00  0.0000E+00
     14.966  0.0000E+00  0.0000E+00  0.0000E+00
     15.052  0.0000E+00  0.0000E+00  0.0000E+00
     15.139  0.0000E+00  0.0000E+00  0.0000E+00
     15.225  0.0000E+00  0.0000E+00  0.0000E+00
     15.311  0.0000E+00  0.0000E+00  0.0000E+00
     15.397  0.0000E+00  0.0000E+00  0.0000E+00
     15.484  0.0000E+00  0.0000E+00  0.0000E+00
     15.570  0.0000E+00  0.0000E+00  0.0000E+00
     15.656  0.0000E+00  0.0000E+00  0.0000E+00
     15.742  0.0000E+00  0.0000E+00  0.0000E+00
     15.74239858    -10.13488281  301      2.30777666      1.00000000
    -10.135  0.0000E+00  0.0000E+00  0.0000E+00
    -10.049  0.0000E+00  0.0000E+00  0.0000E+00
     -9.962  0.0000E+00  0.0000E+00  0.0000E+00
     -9.876  0.0000E+00  0.0000E+00  0.0000E+00
     -9.790  0.0000E+00  0.0000E+00  0.0000E+00
     -9.704  0.0000E+00  0.0000E+00  0.0000E+00
     -9.617  0.0000E+00  0.0000E+00  0.0000E+00
     -9.531  0.0000E+00  0.0000E+00  0.0000E+00
     -9.445  0.0000E+00  0.0000E+00  0.0000E+00
     -9.359  0.0000E+00  0.0000E+00  0.0000E+00
     -9.272  0.0000E+00  0.0000E+00  0.0000E+00
     -9.186  0.0000E+00  0.0000E+00  0.0000E+00
     -9.100  0.0000E+00  0.0000E+00  0.0000E+00
     -9.014  0.2540E-15  0.3568E-27  0.3675E-27
     -8.927  0.6100E-01  0.8570E-13  0.8826E-13
     -8.841  0.4733E+00  0.1584E-03  0.1134E-05
     -8.755  0.3708E+00  0.1627E-03  0.2121E-06
     -8.669  0.7482E+00  0.3766E-03  0.4700E-05
     -8.582  0.2003E+01  0.9422E-03  0.1609E-04
     -8.496  0.4430E+01  0.1039E-02  0.4643E-04
     -8.410  0.3857E+01  0.2978E-03  0.1418E-04
     -8.323  0.8439E+00  0.2253E-08  0.8439E-06
     -8.237  0.0000E+00  0.0000E+00  0.0000E+00
     -8.151  0.0000E+00  0.0000E+00  0.0000E+00
     -8.065  0.0000E+00  0.0000E+00  0.0000E+00
     -7.978  0.0000E+00  0.0000E+00  0.0000E+00
     -7.892  0.0000E+00  0.0000E+00  0.0000E+00
     -7.806  0.0000E+00  0.0000E+00  0.0000E+00
     -7.720  0.0000E+00  0.0000E+00  0.0000E+00
     -7.633  0.0000E+00  0.0000E+00  0.0000E+00
     -7.547  0.0000E+00  0.0000E+00  0.0000E+00
     -7.461  0.0000E+00  0.0000E+00  0.0000E+00
     -7.375  0.0000E+00  0.0000E+00  0.0000E+00
     -7.288  0.0000E+00  0.0000E+00  0.0000E+00
     -7.202  0.0000E+00  0.0000E+00  0.0000E+00
     -7.116  0.0000E+00  0.0000E+00  0.0000E+00
     -7.030  0.0000E+00  0.0000E+00  0.0000E+00
     -6.943  0.0000E+00  0.0000E+00  0.0000E+00
     -6.857  0.0000E+00  0.0000E+00  0.0000E+00
     -6.771  0.0000E+00  0.0000E+00  0.0000E+00
     -6.685  0.0000E+00  0.0000E+00  0.0000E+00
     -6.598  0.0000E+00  0.0000E+00  0.0000E+00
     -6.512  0.0000E+00  0.0000E+00  0.0000E+00
     -6.426  0.0000E+00  0.0000E+00  0.0000E+00
     -6.340  0.0000E+00  0.0000E+00  0.0000E+00
     -6.253  0.0000E+00  0.0000E+00  0.0000E+00
     -6.167  0.0000E+00  0.0000E+00  0.0000E+00
     -6.081  0.0000E+00  0.0000E+00  0.0000E+00
     -5.995  0.0000E+00  0.0000E+00  0.0000E+00
     -5.908  0.0000E+00  0.0000E+00  0.0000E+00
     -5.822  0.3231E-13  0.8146E-02  0.2726E-03
     -5.736  0.9400E-02  0.4244E+00  0.2238E-01
     -5.649  0.3237E-02  0.2988E+00  0.2383E-01
     -5.563  0.3240E-01  0.7612E-01  0.1777E-01
     -5.477  0.7723E-01  0.3696E-01  0.1846E-01
     -5.391  0.1309E-01  0.2457E-02  0.3920E-03
     -5.304  0.1196E-02  0.1922E-03  0.1546E-04
     -5.218  0.3066E+00  0.4441E-01  0.3869E-02
     -5.132  0.3572E+00  0.1745E-01  0.3510E-02
     -5.046  0.3700E+00  0.7480E-02  0.1648E-02
     -4.959  0.1277E+00  0.7810E-04  0.4200E-03
     -4.873  0.0000E+00  0.0000E+00  0.0000E+00
     -4.787  0.0000E+00  0.0000E+00  0.0000E+00
     -4.701  0.0000E+00  0.0000E+00  0.0000E+00
     -4.614  0.0000E+00  0.0000E+00  0.0000E+00
     -4.528  0.0000E+00  0.0000E+00  0.0000E+00
     -4.442  0.0000E+00  0.0000E+00  0.0000E+00
     -4.356  0.0000E+00  0.0000E+00  0.0000E+00
     -4.269  0.0000E+00  0.0000E+00  0.0000E+00
     -4.183  0.0000E+00  0.0000E+00  0.0000E+00
     -4.097  0.0000E+00  0.0000E+00  0.0000E+00
     -4.011  0.0000E+00  0.0000E+00  0.0000E+00
     -3.924  0.0000E+00  0.0000E+00  0.0000E+00
     -3.838  0.0000E+00  0.0000E+00  0.0000E+00
     -3.752  0.0000E+00  0.0000E+00  0.0000E+00
     -3.666  0.0000E+00  0.0000E+00  0.0000E+00
     -3.579  0.0000E+00  0.0000E+00  0.0000E+00
     -3.493  0.0000E+00  0.0000E+00  0.0000E+00
     -3.407  0.0000E+00  0.0000E+00  0.0000E+00
     -3.321  0.0000E+00  0.0000E+00  0.0000E+00
     -3.234  0.0000E+00  0.0000E+00  0.0000E+00
     -3.148  0.0000E+00  0.0000E+00  0.0000E+00
     -3.062  0.0000E+00  0.0000E+00  0.0000E+00
     -2.976  0.0000E+00  0.0000E+00  0.0000E+00
     -2.889  0.0000E+00  0.0000E+00  0.0000E+00
     -2.803  0.0000E+00  0.0000E+00  0.0000E+00
     -2.717  0.0000E+00  0.0000E+00  0.0000E+00
     -2.630  0.0000E+00  0.0000E+00  0.0000E+00
     -2.544  0.0000E+00  0.0000E+00  0.0000E+00
     -2.458  0.0000E+00  0.0000E+00  0.0000E+00