    2    2    1    1
  0.3405476E+02  0.4583961E-09  0.4583961E-09  0.4583961E-09  0.5000000E-15
  1.000000000000000E-004
  CAR 
 Name                                    
     18    492     16
 
  0.0000000E+00  0.0000000E+00  0.0000000E+00  0.4629630E-02
    1       -8.958643   1.000000
    2       -5.830269   1.000000
    3       -5.830269   1.000000
    4       -5.830269   1.000000
    5       -5.552486   1.000000
    6       -5.552486   1.000000
    7        2.260703   1.000000
    8        2.260703   1.000000
    9        2.260703   1.000000
   10        2.894245   0.000000
   11        6.766274   0.000000
   12        6.766274   0.000000
   13        6.766274   0.000000
   14        9.508640   0.000000
   15       11.575572   0.000000
   16       11.575573   0.000000
 
  0.1666667E+00  0.0000000E+00  0.0000000E+00  0.3703704E-01
    1       -8.853337   1.000000
    2       -5.810451   1.000000
    3       -5.810451   1.000000
    4       -5.751818   1.000000
    5       -5.553843   1.000000
    6       -5.553843   1.000000
    7        0.476580   1.000000
    8        2.026307   1.000000
    9        2.026307   1.000000
   10        4.014582   0.000000
   11        6.868363   0.000000
   12        7.108615   0.000000
   13        7.108615   0.000000
   14       10.509532   0.000000
   15       10.641961   0.000000
   16       10.641961   0.000000
 
  0.3333333E+00  0.0000000E+00  0.0000000E+00  0.3703704E-01
    1       -8.639222   1.000000
    2       -5.776358   1.000000
    3       -5.776358   1.000000
    4       -5.549703   1.000000
    5       -5.549703   1.000000
    6       -5.478808   1.000000
    7       -1.382201   1.000000
    8        1.636124   1.000000
    9        1.636124   1.000000
   10        4.072333   0.000000
   11        7.391447   0.000000
   12        7.391447   0.000000
   13        8.386626   0.000000
   14       10.131086   0.000000
   15       11.051923   0.000000
   16       11.051923   0.000000
 
  0.5000000E+00  0.0000000E+00  0.0000000E+00  0.1851852E-01
    1       -8.532175   1.000000
    2       -5.763135   1.000000
    3       -5.763135   1.000000
    4       -5.543087   1.000000
    5       -5.543087   1.000000
    6       -5.223379   1.000000
    7       -2.243683   1.000000
    8        1.467110   1.000000
    9        1.467110   1.000000
   10        3.960772   0.000000
   11        7.352785   0.000000
   12        7.352785   0.000000
   13        9.144443   0.000000
   14       10.739699   0.000000
   15       12.480181   0.000000
   16       12.480181   0.000000
 
  0.1666667E+00  0.1666667E+00  0.0000000E+00  0.2777778E-01
    1       -8.818483   1.000000
    2       -5.790408   1.000000
    3       -5.790408   1.000000
    4       -5.755202   1.000000
    5       -5.562131   1.000000
    6       -5.544345   1.000000
    7        0.474222   1.000000
    8        1.638462   1.000000
    9        1.638462   1.000000
   10        4.676373   0.000000
   11        5.840217   0.000000
   12        7.726361   0.000000
   13        7.726361   0.000000
   14        9.308321   0.000000
   15       11.286140   0.000000
   16       11.814907   0.000000
 
  0.3333333E+00  0.1666667E+00  0.0000000E+00  0.1111111E+00
    1       -8.641240   1.000000
    2       -5.764427   1.000000
    3       -5.751697   1.000000
    4       -5.615209   1.000000
    5       -5.538207   1.000000
    6       -5.497253   1.000000
    7       -0.917414   1.000000
    8        1.103724   1.000000
    9        1.221403   1.000000
   10        5.037908   0.000000
   11        6.189433   0.000000
   12        7.857383   0.000000
   13        8.293728   0.000000
   14       10.039966   0.000000
   15       11.872965   0.000000
   16       11.946061   0.000000
 
  0.5000000E+00  0.1666667E+00  0.0000000E+00  0.1111111E+00
    1       -8.500138   1.000000
    2       -5.748656   1.000000
    3       -5.735160   1.000000
    4       -5.570911   1.000000
    5       -5.539961   1.000000
    6       -5.202021   1.000000
    7       -2.025385   1.000000
    8        0.567588   1.000000
    9        1.138216   1.000000
   10        4.941010   0.000000
   11        6.845168   0.000000
   12        8.108700   0.000000
   13        8.723000   0.000000
   14       10.931778   0.000000
   15       12.126127   0.000000
   16       12.574908   0.000000
 
 -0.3333333E+00  0.1666667E+00  0.0000000E+00  0.1111111E+00
    1       -8.535037   1.000000
    2       -5.750007   1.000000
    3       -5.749639   1.000000
    4       -5.556563   1.000000
    5       -5.556226   1.000000
    6       -5.287663   1.000000
    7       -1.754270   1.000000
    8        0.429640   1.000000
    9        1.442508   1.000000
   10        4.998080   0.000000
   11        7.086975   0.000000
   12        7.803922   0.000000
   13        8.494120   0.000000
   14       10.644184   0.000000
   15       11.293483   0.000000
   16       12.476145   0.000000
 
 -0.1666667E+00  0.1666667E+00  0.0000000E+00  0.5555556E-01
    1       -8.711722   1.000000
    2       -5.787702   1.000000
    3       -5.772858   1.000000
    4       -5.626074   1.000000
    5       -5.563132   1.000000
    6       -5.532844   1.000000
    7       -0.507065   1.000000
    8        0.973209   1.000000
    9        1.903198   1.000000
   10        4.840382   0.000000
   11        6.839902   0.000000
   12        7.339441   0.000000
   13        7.646332   0.000000
   14        9.885656   0.000000
   15       11.119234   0.000000
   16       11.874626   0.000000
 
  0.3333333E+00  0.3333333E+00  0.0000000E+00  0.2777778E-01
    1       -8.537009   1.000000
    2       -5.703310   1.000000
    3       -5.703310   1.000000
    4       -5.657483   1.000000
    5       -5.528061   1.000000
    6       -5.390230   1.000000
    7       -1.264982   1.000000
    8        0.726822   1.000000
    9        0.726822   1.000000
   10        4.869700   0.000000
   11        5.294187   0.000000
   12        9.473865   0.000000
   13        9.683240   0.000000
   14        9.683240   0.000000
   15       12.477525   0.000000
   16       14.084562   0.000000
 
  0.5000000E+00  0.3333333E+00  0.0000000E+00  0.1111111E+00
    1       -8.433919   1.000000
    2       -5.703752   1.000000
    3       -5.680527   1.000000
    4       -5.625380   1.000000
    5       -5.529249   1.000000
    6       -5.140909   1.000000
    7       -1.901118   1.000000
    8        0.050291   1.000000
    9        0.591051   1.000000
   10        4.962025   0.000000
   11        5.861616   0.000000
   12        9.126870   0.000000
   13        9.873193   0.000000
   14       11.233848   0.000000
   15       12.883302   0.000000
   16       13.654115   0.000000
 
 -0.3333333E+00  0.3333333E+00  0.0000000E+00  0.5555556E-01
    1       -8.434073   1.000000
    2       -5.723945   1.000000
    3       -5.701114   1.000000
    4       -5.582868   1.000000
    5       -5.547822   1.000000
    6       -5.075666   1.000000
    7       -1.943544   1.000000
    8       -0.414034   1.000000
    9        0.906816   1.000000
   10        5.194658   0.000000
   11        7.284346   0.000000
   12        9.019036   0.000000
   13        9.135557   0.000000
   14        9.620061   0.000000
   15       11.176357   0.000000
   16       14.311860   0.000000
 
  0.5000000E+00  0.5000000E+00  0.0000000E+00  0.1388889E-01
    1       -8.399785   1.000000
    2       -5.670131   1.000000
    3       -5.655466   1.000000
    4       -5.655466   1.000000
    5       -5.519883   1.000000
    6       -5.095381   1.000000
    7       -2.108379   1.000000
    8        0.352966   1.000000
    9        0.352966   1.000000
   10        4.708172   0.000000
   11        4.828287   0.000000
   12       10.948273   0.000000
   13       11.298929   0.000000
   14       11.298930   0.000000
   15       13.036232   0.000000
   16       13.746218   0.000000
 
  0.5000000E+00  0.3333333E+00  0.1666667E+00  0.1111111E+00
    1       -8.502026   1.000000
    2       -5.728824   1.000000
    3       -5.721422   1.000000
    4       -5.599170   1.000000
    5       -5.539376   1.000000
    6       -5.265899   1.000000
    7       -1.581439   1.000000
    8        0.136475   1.000000
    9        0.909347   1.000000
   10        5.756396   0.000000
   11        6.276129   0.000000
   12        7.436634   0.000000
   13        9.577958   0.000000
   14       10.346664   0.000000
   15       12.432515   0.000000
   16       13.612326   0.000000
 
 -0.3333333E+00  0.3333333E+00  0.1666667E+00  0.1111111E+00
    1       -8.434072   1.000000
    2       -5.720962   1.000000
    3       -5.705524   1.000000
    4       -5.579472   1.000000
    5       -5.549987   1.000000
    6       -5.074631   1.000000
    7       -1.982056   1.000000
    8       -0.183140   1.000000
    9        0.619846   1.000000
   10        5.886430   0.000000
   11        6.758521   0.000000
   12        7.909971   0.000000
   13        9.421012   0.000000
   14       10.123447   0.000000
   15       12.623100   0.000000
   16       13.404353   0.000000
 
 -0.3333333E+00  0.5000000E+00  0.1666667E+00  0.5555556E-01
    1       -8.400960   1.000000
    2       -5.692749   1.000000
    3       -5.688838   1.000000
    4       -5.604726   1.000000
    5       -5.539380   1.000000
    6       -5.028378   1.000000
    7       -2.023334   1.000000
    8       -0.002120   1.000000
    9        0.081352   1.000000
   10        5.893579   0.000000
   11        5.910825   0.000000
   12        8.834213   0.000000
   13        9.110094   0.000000
   14       11.747068   0.000000
   15       13.278231   0.000000
   16       13.499280   0.000000
 
  0.0000000E+00  0.0000000E+00  0.0000000E+00  0.0000000E+00
    1       -8.958643   1.000000
    2       -5.830269   1.000000
    3       -5.830269   1.000000
    4       -5.830269   1.000000
    5       -5.552486   1.000000
    6       -5.552486   1.000000
    7        2.260703   1.000000
    8        2.260703   1.000000
    9        2.260703   1.000000
   10        2.894245   0.000000
   11        6.766274   0.000000
   12        6.766274   0.000000
   13        6.766274   0.000000
   14        9.508640   0.000000
   15       11.575572   0.000000
   16       11.575603   0.000000
 
  0.1050420E-02  0.0000000E+00  0.1050420E-02  0.0000000E+00
    1       -8.958638   1.000000
    2       -5.830268   1.000000
    3       -5.830267   1.000000
    4       -5.830266   1.000000
    5       -5.552486   1.000000
    6       -5.552485   1.000000
    7        2.260408   1.000000
    8        2.260671   1.000000
    9        2.260671   1.000000
   10        2.894545   0.000000
   11        6.766210   0.000000
   12        6.766319   0.000000
   13        6.766319   0.000000
   14        9.508735   0.000000
   15       11.575085   0.000000
   16       11.575582   0.000000
 
  0.2100840E-02  0.0000000E+00  0.2100840E-02  0.0000000E+00
    1       -8.958620   1.000000
    2       -5.830262   1.000000
    3       -5.830262   1.000000
    4       -5.830258   1.000000
    5       -5.552488   1.000000
    6       -5.552484   1.000000
    7        2.259523   1.000000
    8        2.260576   1.000000
    9        2.260576   1.000000
   10        2.895444   0.000000
   11        6.766016   0.000000
   12        6.766454   0.000000
   13        6.766455   0.000000
   14        9.509021   0.000000
   15       11.573629   0.000000
   16       11.575617   0.000000
 
  0.3151260E-02  0.0000000E+00  0.3151260E-02  0.0000000E+00
    1       -8.958591   1.000000
    2       -5.830254   1.000000
    3       -5.830253   1.000000
    4       -5.830243   1.000000
    5       -5.552491   1.000000
    6       -5.552482   1.000000
    7        2.258053   1.000000
    8        2.260417   1.000000
    9        2.260417   1.000000
   10        2.896935   0.000000
   11        6.765693   0.000000
   12        6.766680   0.000000
   13        6.766680   0.000000
   14        9.509497   0.000000
   15       11.571222   0.000000
   16       11.575662   0.000000
 
  0.4201680E-02  0.0000000E+00  0.4201680E-02  0.0000000E+00
    1       -8.958550   1.000000
    2       -5.830241   1.000000
    3       -5.830241   1.000000
    4       -5.830223   1.000000
    5       -5.552495   1.000000
    6       -5.552480   1.000000
    7        2.256008   1.000000
    8        2.260195   1.000000
    9        2.260195   1.000000
   10        2.899012   0.000000
   11        6.765242   0.000000
   12        6.766995   0.000000
   13        6.766996   0.000000
   14        9.510162   0.000000
   15       11.567887   0.000000
   16       11.575728   0.000000
 
  0.5252100E-02  0.0000000E+00  0.5252100E-02  0.0000000E+00
    1       -8.958496   1.000000
    2       -5.830226   1.000000
    3       -5.830226   1.000000
    4       -5.830198   1.000000
    5       -5.552500   1.000000
    6       -5.552476   1.000000
    7        2.253397   1.000000
    8        2.259910   1.000000
    9        2.259910   1.000000
   10        2.901662   0.000000
   11        6.764662   0.000000
   12        6.767401   0.000000
   13        6.767401   0.000000
   14        9.511018   0.000000
   15       11.563614   0.000000
   16       11.575825   0.000000
 
  0.6302520E-02  0.0000000E+00  0.6302520E-02  0.0000000E+00
    1       -8.958430   1.000000
    2       -5.830207   1.000000
    3       -5.830207   1.000000
    4       -5.830167   1.000000
    5       -5.552507   1.000000
    6       -5.552472   1.000000
    7        2.250235   1.000000
    8        2.259561   1.000000
    9        2.259561   1.000000
   10        2.904872   0.000000
   11        6.763953   0.000000
   12        6.767897   0.000000
   13        6.767897   0.000000
   14        9.512063   0.000000
   15       11.558446   0.000000
   16       11.575918   0.000000
 
  0.7352940E-02  0.0000000E+00  0.7352940E-02  0.0000000E+00
    1       -8.958352   1.000000
    2       -5.830185   1.000000
    3       -5.830185   1.000000
    4       -5.830130   1.000000
    5       -5.552515   1.000000
    6       -5.552468   1.000000
    7        2.246537   1.000000
    8        2.259149   1.000000
    9        2.259149   1.000000
   10        2.908626   0.000000
   11        6.763116   0.000000
   12        6.768483   0.000000
   13        6.768483   0.000000
   14        9.513297   0.000000
   15       11.552463   0.000000
   16       11.576042   0.000000
 
  0.8403360E-02  0.0000000E+00  0.8403360E-02  0.0000000E+00
    1       -8.958263   1.000000
    2       -5.830160   1.000000
    3       -5.830159   1.000000
    4       -5.830087   1.000000
    5       -5.552524   1.000000
    6       -5.552462   1.000000
    7        2.242323   1.000000
    8        2.258672   1.000000
    9        2.258672   1.000000
   10        2.912905   0.000000
   11        6.762151   0.000000
   12        6.769158   0.000000
   13        6.769158   0.000000
   14        9.514719   0.000000
   15       11.545683   0.000000
   16       11.576189   0.000000
 
  0.9453780E-02  0.0000000E+00  0.9453780E-02  0.0000000E+00
    1       -8.958161   1.000000
    2       -5.830131   1.000000
    3       -5.830131   1.000000
    4       -5.830039   1.000000
    5       -5.552535   1.000000
    6       -5.552456   1.000000
    7        2.237611   1.000000
    8        2.258133   1.000000
    9        2.258133   1.000000
   10        2.917691   0.000000
   11        6.761060   0.000000
   12        6.769924   0.000000
   13        6.769924   0.000000
   14        9.516330   0.000000
   15       11.538147   0.000000
   16       11.576350   0.000000
 
  0.1050420E-01  0.0000000E+00  0.1050420E-01  0.0000000E+00
    1       -8.958046   1.000000
    2       -5.830099   1.000000
    3       -5.830098   1.000000
    4       -5.829985   1.000000
    5       -5.552547   1.000000
    6       -5.552449   1.000000
    7        2.232422   1.000000
    8        2.257531   1.000000
    9        2.257531   1.000000
   10        2.922962   0.000000
   11        6.759841   0.000000
   12        6.770779   0.000000
   13        6.770779   0.000000
   14        9.518129   0.000000
   15       11.529921   0.000000
   16       11.576534   0.000000
 
  0.1155462E-01  0.0000000E+00  0.1155462E-01  0.0000000E+00
    1       -8.957920   1.000000
    2       -5.830063   1.000000
    3       -5.830063   1.000000
    4       -5.829925   1.000000
    5       -5.552559   1.000000
    6       -5.552442   1.000000
    7        2.226778   1.000000
    8        2.256866   1.000000
    9        2.256866   1.000000
   10        2.928696   0.000000
   11        6.758497   0.000000
   12        6.771724   0.000000
   13        6.771725   0.000000
   14        9.520115   0.000000
   15       11.520993   0.000000
   16       11.576737   0.000000
 
  0.1260504E-01  0.0000000E+00  0.1260504E-01  0.0000000E+00
    1       -8.957782   1.000000
    2       -5.830024   1.000000
    3       -5.830024   1.000000
    4       -5.829860   1.000000
    5       -5.552573   1.000000
    6       -5.552434   1.000000
    7        2.220702   1.000000
    8        2.256137   1.000000
    9        2.256137   1.000000
   10        2.934871   0.000000
   11        6.757026   0.000000
   12        6.772758   0.000000
   13        6.772758   0.000000
   14        9.522286   0.000000
   15       11.511465   0.000000
   16       11.576955   0.000000
 
  0.1365546E-01  0.0000000E+00  0.1365546E-01  0.0000000E+00
    1       -8.957631   1.000000
    2       -5.829982   1.000000
    3       -5.829982   1.000000
    4       -5.829789   1.000000
    5       -5.552589   1.000000
    6       -5.552425   1.000000
    7        2.214215   1.000000
    8        2.255347   1.000000
    9        2.255347   1.000000
   10        2.941466   0.000000
   11        6.755431   0.000000
   12        6.773883   0.000000
   13        6.773883   0.000000
   14        9.524644   0.000000
   15       11.501361   0.000000
   16       11.577195   0.000000
 
  0.1470588E-01  0.0000000E+00  0.1470588E-01  0.0000000E+00
    1       -8.957469   1.000000
    2       -5.829936   1.000000
    3       -5.829936   1.000000
    4       -5.829712   1.000000
    5       -5.552605   1.000000
    6       -5.552416   1.000000
    7        2.207340   1.000000
    8        2.254493   1.000000
    9        2.254493   1.000000
   10        2.948457   0.000000
   11        6.753711   0.000000
   12        6.775097   0.000000
   13        6.775097   0.000000
   14        9.527187   0.000000
   15       11.490718   0.000000
   16       11.577454   0.000000
 
  0.1575630E-01  0.0000000E+00  0.1575630E-01  0.0000000E+00
    1       -8.957294   1.000000
    2       -5.829887   1.000000
    3       -5.829887   1.000000
    4       -5.829630   1.000000
    5       -5.552623   1.000000
    6       -5.552405   1.000000
    7        2.200098   1.000000
    8        2.253577   1.000000
    9        2.253577   1.000000
   10        2.955824   0.000000
   11        6.751868   0.000000
   12        6.776400   0.000000
   13        6.776400   0.000000
   14        9.529914   0.000000
   15       11.479583   0.000000
   16       11.577732   0.000000
 
  0.1680672E-01  0.0000000E+00  0.1680672E-01  0.0000000E+00
    1       -8.957106   1.000000
    2       -5.829835   1.000000
    3       -5.829834   1.000000
    4       -5.829542   1.000000
    5       -5.552641   1.000000
    6       -5.552394   1.000000
    7        2.192511   1.000000
    8        2.252599   1.000000
    9        2.252599   1.000000
   10        2.963544   0.000000
   11        6.749903   0.000000
   12        6.777792   0.000000
   13        6.777792   0.000000
   14        9.532824   0.000000
   15       11.467997   0.000000
   16       11.578030   0.000000
 
  0.1785714E-01  0.0000000E+00  0.1785714E-01  0.0000000E+00
    1       -8.956907   1.000000
    2       -5.829779   1.000000
    3       -5.829779   1.000000
    4       -5.829448   1.000000
    5       -5.552661   1.000000
    6       -5.552382   1.000000
    7        2.184600   1.000000
    8        2.251558   1.000000
    9        2.251558   1.000000
   10        2.971597   0.000000
   11        6.747815   0.000000
   12        6.779274   0.000000
   13        6.779274   0.000000
   14        9.535916   0.000000
   15       11.455980   0.000000
   16       11.578347   0.000000
 
  0.1890756E-01  0.0000000E+00  0.1890756E-01  0.0000000E+00
    1       -8.956696   1.000000
    2       -5.829720   1.000000
    3       -5.829719   1.000000
    4       -5.829349   1.000000
    5       -5.552683   1.000000
    6       -5.552370   1.000000
    7        2.176383   1.000000
    8        2.250455   1.000000
    9        2.250455   1.000000
   10        2.979963   0.000000
   11        6.745606   0.000000
   12        6.780844   0.000000
   13        6.780844   0.000000
   14        9.539189   0.000000
   15       11.443575   0.000000
   16       11.578683   0.000000
 
  0.1995798E-01  0.0000000E+00  0.1995798E-01  0.0000000E+00
    1       -8.956471   1.000000
    2       -5.829657   1.000000
    3       -5.829657   1.000000
    4       -5.829244   1.000000
    5       -5.552705   1.000000
    6       -5.552357   1.000000
    7        2.167881   1.000000
    8        2.249291   1.000000
    9        2.249291   1.000000
   10        2.988623   0.000000
   11        6.743279   0.000000
   12        6.782504   0.000000
   13        6.782505   0.000000
   14        9.542643   0.000000
   15       11.430812   0.000000
   16       11.579040   0.000000
 
  0.2100840E-01  0.0000000E+00  0.2100840E-01  0.0000000E+00
    1       -8.956236   1.000000
    2       -5.829591   1.000000
    3       -5.829591   1.000000
    4       -5.829133   1.000000
    5       -5.552728   1.000000
    6       -5.552343   1.000000
    7        2.159111   1.000000
    8        2.248065   1.000000
    9        2.248065   1.000000
   10        2.997559   0.000000
   11        6.740831   0.000000
   12        6.784252   0.000000
   13        6.784252   0.000000
   14        9.546275   0.000000
   15       11.417717   0.000000
   16       11.579415   0.000000
 
  0.2205882E-01  0.0000000E+00  0.2205882E-01  0.0000000E+00
    1       -8.955989   1.000000
    2       -5.829522   1.000000
    3       -5.829521   1.000000
    4       -5.829016   1.000000
    5       -5.552753   1.000000
    6       -5.552328   1.000000
    7        2.150090   1.000000
    8        2.246776   1.000000
    9        2.246776   1.000000
   10        3.006754   0.000000
   11        6.738265   0.000000
   12        6.786087   0.000000
   13        6.786088   0.000000
   14        9.550085   0.000000
   15       11.404318   0.000000
   16       11.579807   0.000000
 
  0.2310924E-01  0.0000000E+00  0.2310924E-01  0.0000000E+00
    1       -8.955729   1.000000
    2       -5.829449   1.000000
    3       -5.829449   1.000000
    4       -5.828894   1.000000
    5       -5.552779   1.000000
    6       -5.552313   1.000000
    7        2.140834   1.000000
    8        2.245426   1.000000
    9        2.245426   1.000000
   10        3.016192   0.000000
   11        6.735583   0.000000
   12        6.788011   0.000000
   13        6.788012   0.000000
   14        9.554071   0.000000
   15       11.390638   0.000000
   16       11.580220   0.000000
 
  0.2415966E-01  0.0000000E+00  0.2415966E-01  0.0000000E+00
    1       -8.955457   1.000000
    2       -5.829373   1.000000
    3       -5.829372   1.000000
    4       -5.828766   1.000000
    5       -5.552806   1.000000
    6       -5.552297   1.000000
    7        2.131359   1.000000
    8        2.244015   1.000000
    9        2.244015   1.000000
   10        3.025856   0.000000
   11        6.732784   0.000000
   12        6.790023   0.000000
   13        6.790023   0.000000
   14        9.558232   0.000000
   15       11.376700   0.000000
   16       11.580653   0.000000
 
  0.2521008E-01  0.0000000E+00  0.2521008E-01  0.0000000E+00
    1       -8.955173   1.000000
    2       -5.829293   1.000000
    3       -5.829293   1.000000
    4       -5.828633   1.000000
    5       -5.552834   1.000000
    6       -5.552280   1.000000
    7        2.121680   1.000000
    8        2.242544   1.000000
    9        2.242544   1.000000
   10        3.035734   0.000000
   11        6.729872   0.000000
   12        6.792125   0.000000
   13        6.792125   0.000000
   14        9.562568   0.000000
   15       11.362524   0.000000
   16       11.581109   0.000000
 
  0.2626050E-01  0.0000000E+00  0.2626050E-01  0.0000000E+00
    1       -8.954877   1.000000
    2       -5.829210   1.000000
    3       -5.829210   1.000000
    4       -5.828493   1.000000
    5       -5.552863   1.000000
    6       -5.552263   1.000000
    7        2.111808   1.000000
    8        2.241010   1.000000
    9        2.241010   1.000000
   10        3.045811   0.000000
   11        6.726845   0.000000
   12        6.794312   0.000000
   13        6.794312   0.000000
   14        9.567075   0.000000
   15       11.348129   0.000000
   16       11.581578   0.000000
 
  0.2731092E-01  0.0000000E+00  0.2731092E-01  0.0000000E+00
    1       -8.954569   1.000000
    2       -5.829124   1.000000
    3       -5.829124   1.000000
    4       -5.828348   1.000000
    5       -5.552894   1.000000
    6       -5.552245   1.000000
    7        2.101758   1.000000
    8        2.239416   1.000000
    9        2.239416   1.000000
   10        3.056074   0.000000
   11        6.723706   0.000000
   12        6.796587   0.000000
   13        6.796587   0.000000
   14        9.571754   0.000000
   15       11.333534   0.000000
   16       11.582068   0.000000
 
  0.2836134E-01  0.0000000E+00  0.2836134E-01  0.0000000E+00
    1       -8.954250   1.000000
    2       -5.829035   1.000000
    3       -5.829035   1.000000
    4       -5.828197   1.000000
    5       -5.552926   1.000000
    6       -5.552226   1.000000
    7        2.091540   1.000000
    8        2.237762   1.000000
    9        2.237762   1.000000
   10        3.066512   0.000000
   11        6.720455   0.000000
   12        6.798948   0.000000
   13        6.798949   0.000000
   14        9.576601   0.000000
   15       11.318754   0.000000
   16       11.582576   0.000000
 
  0.2941176E-01  0.0000000E+00  0.2941176E-01  0.0000000E+00
    1       -8.953918   1.000000
    2       -5.828942   1.000000
    3       -5.828942   1.000000
    4       -5.828041   1.000000
    5       -5.552959   1.000000
    6       -5.552207   1.000000
    7        2.081166   1.000000
    8        2.236048   1.000000
    9        2.236048   1.000000
   10        3.077115   0.000000
   11        6.717095   0.000000
   12        6.801397   0.000000
   13        6.801397   0.000000
   14        9.581617   0.000000
   15       11.303804   0.000000
   16       11.583125   0.000000
 
  0.3046218E-01  0.0000000E+00  0.3046218E-01  0.0000000E+00
    1       -8.953575   1.000000
    2       -5.828846   1.000000
    3       -5.828846   1.000000
    4       -5.827879   1.000000
    5       -5.552993   1.000000
    6       -5.552187   1.000000
    7        2.070646   1.000000
    8        2.234273   1.000000
    9        2.234273   1.000000
   10        3.087870   0.000000
   11        6.713627   0.000000
   12        6.803932   0.000000
   13        6.803933   0.000000
   14        9.586799   0.000000
   15       11.288697   0.000000
   16       11.583652   0.000000
 
  0.3151260E-01  0.0000000E+00  0.3151260E-01  0.0000000E+00
    1       -8.953219   1.000000
    2       -5.828747   1.000000
    3       -5.828746   1.000000
    4       -5.827710   1.000000
    5       -5.553028   1.000000
    6       -5.552166   1.000000
    7        2.059989   1.000000
    8        2.232439   1.000000
    9        2.232439   1.000000
   10        3.098770   0.000000
   11        6.710051   0.000000
   12        6.806554   0.000000
   13        6.806554   0.000000
   14        9.592145   0.000000
   15       11.273447   0.000000
   16       11.584217   0.000000
 
  0.3256302E-01  0.0000000E+00  0.3256302E-01  0.0000000E+00
    1       -8.952852   1.000000
    2       -5.828644   1.000000
    3       -5.828644   1.000000
    4       -5.827537   1.000000
    5       -5.553064   1.000000
    6       -5.552144   1.000000
    7        2.049204   1.000000
    8        2.230546   1.000000
    9        2.230546   1.000000
   10        3.109804   0.000000
   11        6.706370   0.000000
   12        6.809262   0.000000
   13        6.809262   0.000000
   14        9.597655   0.000000
   15       11.258065   0.000000
   16       11.584811   0.000000
 
  0.3361344E-01  0.0000000E+00  0.3361344E-01  0.0000000E+00
    1       -8.952472   1.000000
    2       -5.828538   1.000000
    3       -5.828537   1.000000
    4       -5.827357   1.000000
    5       -5.553102   1.000000
    6       -5.552122   1.000000
    7        2.038300   1.000000
    8        2.228593   1.000000
    9        2.228593   1.000000
   10        3.120965   0.000000
   11        6.702584   0.000000
   12        6.812056   0.000000
   13        6.812056   0.000000
   14        9.603326   0.000000
   15       11.242562   0.000000
   16       11.585409   0.000000
 
  0.3466387E-01  0.0000000E+00  0.3466387E-01  0.0000000E+00
    1       -8.952081   1.000000
    2       -5.828428   1.000000
    3       -5.828428   1.000000
    4       -5.827172   1.000000
    5       -5.553140   1.000000
    6       -5.552099   1.000000
    7        2.027283   1.000000
    8        2.226581   1.000000
    9        2.226581   1.000000
   10        3.132246   0.000000
   11        6.698695   0.000000
   12        6.814935   0.000000
   13        6.814936   0.000000
   14        9.609156   0.000000
   15       11.226950   0.000000
   16       11.586032   0.000000
 
  0.3571429E-01  0.0000000E+00  0.3571429E-01  0.0000000E+00
    1       -8.951678   1.000000
    2       -5.828316   1.000000
    3       -5.828315   1.000000
    4       -5.826981   1.000000
    5       -5.553180   1.000000