 vasp.5.4.1 24Jun15 (build Nov 25 2015 16:01:35) complex                        
  
 executed on         CrayXC-Intel date 2016.09.08  17:45:29
 running on   96 total cores
 distrk:  each k-point on   24 cores,    4 groups
 distr:  one band on NCORES_PER_BAND=   6 cores,    4 groups


--------------------------------------------------------------------------------------------------------


 INCAR:
 POTCAR:    PAW_PBE Cd 06Sep2000                  
 POTCAR:    PAW_PBE Te 08Apr2002                  

 ----------------------------------------------------------------------------- 
|                                                                             |
|           W    W    AA    RRRRR   N    N  II  N    N   GGGG   !!!           |
|           W    W   A  A   R    R  NN   N  II  NN   N  G    G  !!!           |
|           W    W  A    A  R    R  N N  N  II  N N  N  G       !!!           |
|           W WW W  AAAAAA  RRRRR   N  N N  II  N  N N  G  GGG   !            |
|           WW  WW  A    A  R   R   N   NN  II  N   NN  G    G                |
|           W    W  A    A  R    R  N    N  II  N    N   GGGG   !!!           |
|                                                                             |
|      You have enabled k-point parallelism (KPAR>1).                         |
|      This developmental code was originally  written by Paul Kent at ORNL,  |
|      and carefully double checked in Vienna.                                |
|      GW as well as linear response parallelism added by Martijn Marsman     |
|      and Georg Kresse.                                                      |
|      Carefully verify results versus KPAR=1.                                |
|      Report problems to Paul Kent and Vienna.                               |
|                                                                             |
 ----------------------------------------------------------------------------- 

 POTCAR:    PAW_PBE Cd 06Sep2000                  
   VRHFIN =Cd : s2 d10                                                          
   LEXCH  = PE                                                                  
   EATOM  =  1293.1815 eV,   95.0462 Ry                                         
                                                                                
   TITEL  = PAW_PBE Cd 06Sep2000                                                
   LULTRA =        F    use ultrasoft PP ?                                      
   IUNSCR =        1    unscreen: 0-lin 1-nonlin 2-no                           
   RPACOR =    2.000    partial core radius                                     
   POMASS =  112.411; ZVAL   =   12.000    mass and valenz                      
   RCORE  =    2.300    outmost cutoff radius                                   
   RWIGS  =    2.980; RWIGS  =    1.577    wigner-seitz radius (au A)           
   ENMAX  =  274.336; ENMIN  =  205.752 eV                                      
   RCLOC  =    2.054    cutoff for local pot                                    
   LCOR   =        T    correct aug charges                                     
   LPAW   =        T    paw PP                                                  
   EAUG   =  456.106                                                            
   DEXC   =    0.000                                                            
   RMAX   =    2.358    core radius for proj-oper                               
   RAUG   =    1.300    factor for augmentation sphere                          
   RDEP   =    2.450    radius for radial grids                                 
   RDEPT  =    1.955    core radius for aug-charge                              
                                                                                
   Atomic configuration                                                         
   12 entries                                                                   
     n  l   j            E        occ.                                          
     1  0  0.50    -26519.7817   2.0000                                         
     2  0  0.50     -3936.9612   2.0000                                         
     2  1  1.50     -3532.2230   6.0000                                         
     3  0  0.50      -733.7908   2.0000                                         
     3  1  1.50      -601.0792   6.0000                                         
     3  2  2.50      -393.5307  10.0000                                         
     4  0  0.50      -105.8977   2.0000                                         
     4  1  1.50       -66.9488   6.0000                                         
     4  2  2.50       -11.7331  10.0000                                         
     5  0  0.50        -5.6592   2.0000                                         
     5  1  0.50        -1.3606   0.0000                                         
     4  3  2.50        -1.3606   0.0000                                         
   Description                                                                  
     l       E           TYP  RCUT    TYP  RCUT                                 
     2    -11.7331479     23  2.300                                             
     2    -13.0937305     23  2.300                                             
     0     -5.6591502     23  2.300                                             
     0     -1.5561433     23  2.300                                             
     1     -2.7211652     23  2.300                                             
     1      8.3548275     23  2.300                                             
  local pseudopotential read in
  partial core-charges read in
  partial kinetic energy density read in
  atomic valenz-charges read in
  non local Contribution for L=           2  read in
    real space projection operators read in
  non local Contribution for L=           2  read in
    real space projection operators read in
  non local Contribution for L=           0  read in
    real space projection operators read in
  non local Contribution for L=           0  read in
    real space projection operators read in
  non local Contribution for L=           1  read in
    real space projection operators read in
  non local Contribution for L=           1  read in
    real space projection operators read in
    PAW grid and wavefunctions read in
 
   number of l-projection  operators is LMAX  =           6
   number of lm-projection operators is LMMAX =          18
 
 POTCAR:    PAW_PBE Te 08Apr2002                  
   VRHFIN =Te: s2p4                                                             
   LEXCH  = PE                                                                  
   EATOM  =   223.2721 eV,   16.4100 Ry                                         
                                                                                
   TITEL  = PAW_PBE Te 08Apr2002                                                
   LULTRA =        F    use ultrasoft PP ?                                      
   IUNSCR =        1    unscreen: 0-lin 1-nonlin 2-no                           
   RPACOR =    2.200    partial core radius                                     
   POMASS =  127.600; ZVAL   =    6.000    mass and valenz                      
   RCORE  =    2.300    outmost cutoff radius                                   
   RWIGS  =    2.900; RWIGS  =    1.535    wigner-seitz radius (au A)           
   ENMAX  =  174.982; ENMIN  =  131.236 eV                                      
   ICORE  =        3    local potential                                         
   LCOR   =        T    correct aug charges                                     
   LPAW   =        T    paw PP                                                  
   EAUG   =  368.792                                                            
   DEXC   =    0.000                                                            
   RMAX   =    2.345    core radius for proj-oper                               
   RAUG   =    1.300    factor for augmentation sphere                          
   RDEP   =    2.397    radius for radial grids                                 
   RDEPT  =    2.174    core radius for aug-charge                              
                                                                                
   Atomic configuration                                                         
   13 entries                                                                   
     n  l   j            E        occ.                                          
     1  0  0.50    -31621.2075   2.0000                                         
     2  0  0.50     -4848.7941   2.0000                                         
     2  1  1.50     -4352.1960   6.0000                                         
     3  0  0.50      -964.9612   2.0000                                         
     3  1  1.50      -803.6179   6.0000                                         
     3  2  2.50      -559.8710  10.0000                                         
     4  0  0.50      -164.3522   2.0000                                         
     4  1  1.50      -114.3756   6.0000                                         
     4  2  2.50       -41.6483  10.0000                                         
     5  0  0.50       -15.1072   2.0000                                         
     5  1  0.50        -5.9526   4.0000                                         
     5  2  1.50        -5.4423   0.0000                                         
     4  3  2.50        -5.4423   0.0000                                         
   Description                                                                  
     l       E           TYP  RCUT    TYP  RCUT                                 
     0    -15.1072389     23  2.300                                             
     0    -16.4678215     23  2.300                                             
     1     -5.9526306     23  2.300                                             
     1     -2.4873968     23  2.300                                             
     2     -5.4423304     23  2.300                                             
     3     -1.3605826     23  2.300                                             
  local pseudopotential read in
  partial core-charges read in
  partial kinetic energy density read in
  atomic valenz-charges read in
  non local Contribution for L=           0  read in
    real space projection operators read in
  non local Contribution for L=           0  read in
    real space projection operators read in
  non local Contribution for L=           1  read in
    real space projection operators read in
  non local Contribution for L=           1  read in
    real space projection operators read in
  non local Contribution for L=           2  read in
    real space projection operators read in
    PAW grid and wavefunctions read in
 
   number of l-projection  operators is LMAX  =           5
   number of lm-projection operators is LMMAX =          13
 

 ----------------------------------------------------------------------------- 
|                                                                             |
|  ADVICE TO THIS USER RUNNING 'VASP/VAMP'   (HEAR YOUR MASTER'S VOICE ...):  |
|                                                                             |
|      You enforced a specific xc-type in the INCAR file,                     |
|      a different type was found on the POTCAR file                          |
|          I HOPE YOU KNOW, WHAT YOU ARE  DOING                               |
|                                                                             |
 ----------------------------------------------------------------------------- 

  PAW_PBE Cd 06Sep2000                  :
 energy of atom  1       EATOM=-1293.1815
 kinetic energy error for atom=    0.0063 (will be added to EATOM!!)
  PAW_PBE Te 08Apr2002                  :
 energy of atom  2       EATOM= -223.2721
 kinetic energy error for atom=    0.0007 (will be added to EATOM!!)
 
 
 POSCAR: CdTe (ICSD, 295K, Rabadanov 2001)       
  positions in direct lattice
  velocities in cartesian coordinates
 exchange correlation table for  LEXCH =       14
   RHO(1)=    0.500       N(1)  =     2000
   RHO(2)=  100.500       N(2)  =     4000
 


--------------------------------------------------------------------------------------------------------


 ion  position               nearest neighbor table
   1  0.000  0.000  0.000-   2 2.81   2 2.81   2 2.81   2 2.81
   2  0.250  0.250  0.250-   1 2.81   1 2.81   1 2.81   1 2.81
 
  LATTYP: Found a face centered cubic cell.
 ALAT       =     6.4827000000
  
  Lattice vectors:
  
 A1 = (   3.2413500000,   3.2413500000,   0.0000000000)
 A2 = (   3.2413500000,   0.0000000000,  -3.2413500000)
 A3 = (   0.0000000000,   3.2413500000,  -3.2413500000)


Analysis of symmetry for initial positions (statically):
=====================================================================
 Subroutine PRICEL returns:
 Original cell was already a primitive cell.
 

 Routine SETGRP: Setting up the symmetry group for a 
 face centered cubic supercell.


 Subroutine GETGRP returns: Found 24 space group operations
 (whereof 24 operations were pure point group operations)
 out of a pool of 48 trial point group operations.


The static configuration has the point symmetry T_d .


Analysis of symmetry for dynamics (positions and initial velocities):
=====================================================================
 Subroutine PRICEL returns:
 Original cell was already a primitive cell.
 

 Routine SETGRP: Setting up the symmetry group for a 
 face centered cubic supercell.


 Subroutine GETGRP returns: Found 24 space group operations
 (whereof 24 operations were pure point group operations)
 out of a pool of 48 trial point group operations.


The dynamic configuration has the point symmetry T_d .


 Subroutine INISYM returns: Found 24 space group operations
 (whereof 24 operations are pure point group operations),
 and found     1 'primitive' translations

 
 
 KPOINTS: Automatically generated mesh SCF: 16 ste
  k-points in reciprocal lattice
Space group operators:
 irot       det(A)        alpha          n_x          n_y          n_z        tau_x        tau_y        tau_z
    1     1.000000     0.000000     1.000000     0.000000     0.000000     0.000000     0.000000     0.000000
    2     1.000000   120.000000    -0.577350    -0.577350     0.577350     0.000000     0.000000     0.000000
    3     1.000000   120.000000     0.577350     0.577350    -0.577350     0.000000     0.000000     0.000000
    4    -1.000000    90.000000    -1.000000     0.000000     0.000000     0.000000     0.000000     0.000000
    5    -1.000000   180.000000     0.707107     0.707107     0.000000     0.000000     0.000000     0.000000
    6    -1.000000    90.000000     0.000000     1.000000     0.000000     0.000000     0.000000     0.000000
    7     1.000000   180.000000     1.000000     0.000000     0.000000     0.000000     0.000000     0.000000
    8     1.000000   120.000000     0.577350     0.577350     0.577350     0.000000     0.000000     0.000000
    9     1.000000   120.000000    -0.577350     0.577350     0.577350     0.000000     0.000000     0.000000
   10    -1.000000    90.000000     1.000000     0.000000     0.000000     0.000000     0.000000     0.000000
   11    -1.000000    90.000000     0.000000     0.000000     1.000000     0.000000     0.000000     0.000000
   12    -1.000000   180.000000     0.707107     0.000000    -0.707107     0.000000     0.000000     0.000000
   13     1.000000   120.000000     0.577350    -0.577350    -0.577350     0.000000     0.000000     0.000000
   14     1.000000   120.000000     0.577350    -0.577350     0.577350     0.000000     0.000000     0.000000
   15     1.000000   180.000000     0.000000     0.000000     1.000000     0.000000     0.000000     0.000000
   16    -1.000000    90.000000     0.000000    -1.000000     0.000000     0.000000     0.000000     0.000000
   17    -1.000000   180.000000     0.000000    -0.707107     0.707107     0.000000     0.000000     0.000000
   18    -1.000000    90.000000     0.000000     0.000000    -1.000000     0.000000     0.000000     0.000000
   19     1.000000   120.000000    -0.577350    -0.577350    -0.577350     0.000000     0.000000     0.000000
   20     1.000000   180.000000     0.000000     1.000000     0.000000     0.000000     0.000000     0.000000
   21     1.000000   120.000000    -0.577350     0.577350    -0.577350     0.000000     0.000000     0.000000
   22    -1.000000   180.000000     0.707107    -0.707107     0.000000     0.000000     0.000000     0.000000
   23    -1.000000   180.000000     0.000000     0.707107     0.707107     0.000000     0.000000     0.000000
   24    -1.000000   180.000000     0.707107     0.000000     0.707107     0.000000     0.000000     0.000000


--------------------------------------------------------------------------------------------------------




 Dimension of arrays:
   k-points           NKPTS =    492   k-points in BZ     NKDIM =    492   number of bands    NBANDS=     16
   number of dos      NEDOS =    301   number of ions     NIONS =      2
   non local maximal  LDIM  =      6   non local SUM 2l+1 LMDIM =     18
   total plane-waves  NPLWV =  46656
   max r-space proj   IRMAX =      1   max aug-charges    IRDMAX=  40037
   dimension x,y,z NGX =    36 NGY =   36 NGZ =   36
   dimension x,y,z NGXF=    72 NGYF=   72 NGZF=   72
   support grid    NGXF=    72 NGYF=   72 NGZF=   72
   ions per type =               1   1
 NGX,Y,Z   is equivalent  to a cutoff of  13.06, 13.06, 13.06 a.u.
 NGXF,Y,Z  is equivalent  to a cutoff of  26.11, 26.11, 26.11 a.u.


 I would recommend the setting:
   dimension x,y,z NGX =    33 NGY =   33 NGZ =   33
 SYSTEM =  Name                                    
 POSCAR =  CdTe (ICSD, 295K, Rabadanov 2001)       

 Startparameter for this run:
   NWRITE =      2    write-flag & timer
   PREC   = accura    normal or accurate (medium, high low for compatibility)
   ISTART =      0    job   : 0-new  1-cont  2-samecut
   ICHARG =     11    charge: 1-file 2-atom 10-const
   ISPIN  =      1    spin polarized calculation?
   LNONCOLLINEAR =      F non collinear calculations
   LSORBIT =      F    spin-orbit coupling
   INIWAV =      1    electr: 0-lowe 1-rand  2-diag
   LASPH  =      F    aspherical Exc in radial PAW
   METAGGA=      F    non-selfconsistent MetaGGA calc.

 Electronic Relaxation 1
   ENCUT  =  500.0 eV  36.75 Ry    6.06 a.u.   8.36  8.36  8.36*2*pi/ulx,y,z
   ENINI  =  500.0     initial cutoff
   ENAUG  =  456.1 eV  augmentation charge cutoff
   NELM   =     60;   NELMIN=  2; NELMDL=  0     # of ELM steps 
   EDIFF  = 0.1E-05   stopping-criterion for ELM
   LREAL  =      F    real-space projection
   NLSPLINE    = F    spline interpolate recip. space projectors
   LCOMPAT=      F    compatible to vasp.4.4
   GGA_COMPAT  = T    GGA compatible to vasp.4.4-vasp.4.6
   LMAXPAW     = -100 max onsite density
   LMAXMIX     =    2 max onsite mixed and CHGCAR
   VOSKOWN=      0    Vosko Wilk Nusair interpolation
   ROPT   =    0.00000   0.00000
 Ionic relaxation
   EDIFFG = -.5E-02   stopping-criterion for IOM
   NSW    =      1    number of steps for IOM
   NBLOCK =      1;   KBLOCK =      1    inner block; outer block 
   IBRION =      2    ionic relax: 0-MD 1-quasi-New 2-CG
   NFREE  =      1    steps in history (QN), initial steepest desc. (CG)
   ISIF   =      3    stress and relaxation
   IWAVPR =     11    prediction:  0-non 1-charg 2-wave 3-comb
   ISYM   =      2    0-nonsym 1-usesym 2-fastsym
   LCORR  =      T    Harris-Foulkes like correction to forces

   POTIM  = 0.5000    time-step for ionic-motion
   TEIN   =    0.0    initial temperature
   TEBEG  =    0.0;   TEEND  =   0.0 temperature during run
   SMASS  =  -3.00    Nose mass-parameter (am)
   estimated Nose-frequenzy (Omega)   =  0.10E-29 period in steps =****** mass=  -0.480E-27a.u.
   SCALEE = 1.0000    scale energy and forces
   NPACO  =    256;   APACO  = 16.0  distance and # of slots for P.C.
   PSTRESS=    0.0 pullay stress

  Mass of Ions in am
   POMASS = 112.41127.60
  Ionic Valenz
   ZVAL   =  12.00  6.00
  Atomic Wigner-Seitz radii
   RWIGS  =  -1.00 -1.00
  virtual crystal weights 
   VCA    =   1.00  1.00
   NELECT =      18.0000    total number of electrons
   NUPDOWN=      -1.0000    fix difference up-down

 DOS related values:
   EMIN   =  10.00;   EMAX   =-10.00  energy-range for DOS
   EFERMI =   0.00
   ISMEAR =     0;   SIGMA  =   0.01  broadening in eV -4-tet -1-fermi 0-gaus

 Electronic relaxation 2 (details)
   IALGO  =     38    algorithm
   LDIAG  =      T    sub-space diagonalisation (order eigenvalues)
   LSUBROT=      F    optimize rotation matrix (better conditioning)
   TURBO    =      0    0=normal 1=particle mesh
   IRESTART =      0    0=no restart 2=restart with 2 vectors
   NREBOOT  =      0    no. of reboots
   NMIN     =      0    reboot dimension
   EREF     =   0.00    reference energy to select bands
   IMIX   =      4    mixing-type and parameters
     AMIX     =   0.40;   BMIX     =  1.00
     AMIX_MAG =   1.60;   BMIX_MAG =  1.00
     AMIN     =   0.01
     WC   =   100.;   INIMIX=   1;  MIXPRE=   1;  MAXMIX= -45

 Intra band minimization:
   WEIMIN = 0.0010     energy-eigenvalue tresh-hold
   EBREAK =  0.16E-07  absolut break condition
   DEPER  =   0.30     relativ break condition  

   TIME   =   0.40     timestep for ELM

  volume/ion in A,a.u.               =      34.05       229.81
  Fermi-wavevector in a.u.,A,eV,Ry     =   1.050581  1.985311 15.017042  1.103721
  Thomas-Fermi vector in A             =   2.185590
 
 Write flags
   LWAVE  =      T    write WAVECAR
   LCHARG =      T    write CHGCAR
   LVTOT  =      F    write LOCPOT, total local potential
   LVHAR  =      F    write LOCPOT, Hartree potential only
   LELF   =      F    write electronic localiz. function (ELF)
   LORBIT =     10    0 simple, 1 ext, 2 COOP (PROOUT)


 Dipole corrections
   LMONO  =      F    monopole corrections only (constant potential shift)
   LDIPOL =      F    correct potential (dipole corrections)
   IDIPOL =      0    1-x, 2-y, 3-z, 4-all directions 
   EPSILON=  1.0000000 bulk dielectric constant

 Core level calculations are selected ICORELEVEL =  1
 Exchange correlation treatment:
   GGA     =    PS    GGA type
   LEXCH   =    14    internal setting for exchange type
   VOSKOWN=      0    Vosko Wilk Nusair interpolation
   LHFCALC =     F    Hartree Fock is set to
   LHFONE  =     F    Hartree Fock one center treatment
   AEXX    =    0.0000 exact exchange contribution

 Linear response parameters
   LEPSILON=     F    determine dielectric tensor
   LRPA    =     F    only Hartree local field effects (RPA)
   LNABLA  =     F    use nabla operator in PAW spheres
   LVEL    =     F    velocity operator in full k-point grid
   LINTERFAST=   F  fast interpolation
   KINTER  =     0    interpolate to denser k-point grid
   CSHIFT  =0.1000    complex shift for real part using Kramers Kronig
   OMEGAMAX=  -1.0    maximum frequency
   DEG_THRESHOLD= 0.2000000E-02 threshold for treating states as degnerate
   RTIME   =    0.100 relaxation time in fs

 Orbital magnetization related:
   ORBITALMAG=     F  switch on orbital magnetization
   LCHIMAG   =     F  perturbation theory with respect to B field
   DQ        =  0.001000  dq finite difference perturbation B field



--------------------------------------------------------------------------------------------------------


 conjugate gradient relaxation of ions
 charge density and potential remain constant during run
 non-spin polarized calculation
 Variant of blocked Davidson
 Davidson routine will perform the subspace rotation
 perform sub-space diagonalisation
    after iterative eigenvector-optimisation
 no mixing
 using additional bands            7
 reciprocal scheme for non local part
 use partial core corrections
 calculate Harris-corrections to forces 
   (improved forces if not selfconsistent)
 use gradient corrections 
 WARNING: stress and forces are not correct
  (second derivative of E(xc) not defined)
 use of overlap-Matrix (Vanderbilt PP)
 Gauss-broadening in eV      SIGMA  =   0.01


--------------------------------------------------------------------------------------------------------


  energy-cutoff  :      500.00
  volume of cell :       68.11
      direct lattice vectors                 reciprocal lattice vectors
     3.241350000  3.241350000  0.000000000     0.154256714  0.154256714  0.154256714
     3.241350000  0.000000000 -3.241350000     0.154256714 -0.154256714 -0.154256714
     0.000000000  3.241350000 -3.241350000    -0.154256714  0.154256714 -0.154256714

  length of vectors
     4.583961130  4.583961130  4.583961130     0.267180466  0.267180466  0.267180466


 
 k-points in units of 2pi/SCALE and weight: Automatically generated mesh SCF: 16 ste
   0.00000000  0.00000000  0.00000000       0.005
   0.16666667  0.16666667  0.16666667       0.037
   0.33333333  0.33333333  0.33333333       0.037
   0.50000000  0.50000000  0.50000000       0.019
   0.33333333  0.00000000  0.00000000       0.028
   0.50000000  0.16666667  0.16666667       0.111
   0.66666667  0.33333333  0.33333333       0.111
  -0.16666667 -0.50000000 -0.50000000       0.111
   0.00000000 -0.33333333 -0.33333333       0.056
   0.66666667  0.00000000  0.00000000       0.028
   0.83333333  0.16666667  0.16666667       0.111
   0.00000000 -0.66666667 -0.66666667       0.056
   1.00000000  0.00000000  0.00000000       0.014
   0.66666667  0.33333333  0.00000000       0.111
  -0.16666667 -0.50000000 -0.83333333       0.111
   0.00000000 -0.66666667 -1.00000000       0.056
   0.00000000  0.00000000  0.00000000       0.000
   0.00000000  0.00210084  0.00000000       0.000
   0.00000000  0.00420168  0.00000000       0.000
   0.00000000  0.00630252  0.00000000       0.000
   0.00000000  0.00840336  0.00000000       0.000
   0.00000000  0.01050420  0.00000000       0.000
   0.00000000  0.01260504  0.00000000       0.000
   0.00000000  0.01470588  0.00000000       0.000
   0.00000000  0.01680672  0.00000000       0.000
   0.00000000  0.01890756  0.00000000       0.000
   0.00000000  0.02100840  0.00000000       0.000
   0.00000000  0.02310924  0.00000000       0.000
   0.00000000  0.02521008  0.00000000       0.000
   0.00000000  0.02731092  0.00000000       0.000
   0.00000000  0.02941176  0.00000000       0.000
   0.00000000  0.03151260  0.00000000       0.000
   0.00000000  0.03361344  0.00000000       0.000
   0.00000000  0.03571428  0.00000000       0.000
   0.00000000  0.03781512  0.00000000       0.000
   0.00000000  0.03991596  0.00000000       0.000
   0.00000000  0.04201680  0.00000000       0.000
   0.00000000  0.04411764  0.00000000       0.000
   0.00000000  0.04621848  0.00000000       0.000
   0.00000000  0.04831932  0.00000000       0.000
   0.00000000  0.05042016  0.00000000       0.000
   0.00000000  0.05252100  0.00000000       0.000
   0.00000000  0.05462184  0.00000000       0.000
   0.00000000  0.05672268  0.00000000       0.000
   0.00000000  0.05882352  0.00000000       0.000
   0.00000000  0.06092436  0.00000000       0.000
   0.00000000  0.06302520  0.00000000       0.000
   0.00000000  0.06512604  0.00000000       0.000
   0.00000000  0.06722688  0.00000000       0.000
   0.00000000  0.06932774  0.00000000       0.000
   0.00000000  0.07142858  0.00000000       0.000
   0.00000000  0.07352940  0.00000000       0.000
   0.00000000  0.07563024  0.00000000       0.000
   0.00000000  0.07773110  0.00000000       0.000
   0.00000000  0.07983194  0.00000000       0.000
   0.00000000  0.08193278  0.00000000       0.000
   0.00000000  0.08403360  0.00000000       0.000
   0.00000000  0.08613444  0.00000000       0.000
   0.00000000  0.08823530  0.00000000       0.000
   0.00000000  0.09033614  0.00000000       0.000
   0.00000000  0.09243698  0.00000000       0.000
   0.00000000  0.09453782  0.00000000       0.000
   0.00000000  0.09663866  0.00000000       0.000
   0.00000000  0.09873950  0.00000000       0.000
   0.00000000  0.10084034  0.00000000       0.000
   0.00000000  0.10294118  0.00000000       0.000
   0.00000000  0.10504202  0.00000000       0.000
   0.00000000  0.10714286  0.00000000       0.000
   0.00000000  0.10924370  0.00000000       0.000
   0.00000000  0.11134454  0.00000000       0.000
   0.00000000  0.11344538  0.00000000       0.000
   0.00000000  0.11554622  0.00000000       0.000
   0.00000000  0.11764706  0.00000000       0.000
   0.00000000  0.11974790  0.00000000       0.000
   0.00000000  0.12184874  0.00000000       0.000
   0.00000000  0.12394958  0.00000000       0.000
   0.00000000  0.12605042  0.00000000       0.000
   0.00000000  0.12815126  0.00000000       0.000
   0.00000000  0.13025210  0.00000000       0.000
   0.00000000  0.13235294  0.00000000       0.000
   0.00000000  0.13445378  0.00000000       0.000
   0.00000000  0.13655462  0.00000000       0.000
   0.00000000  0.13865546  0.00000000       0.000
   0.00000000  0.14075630  0.00000000       0.000
   0.00000000  0.14285714  0.00000000       0.000
   0.00000000  0.14495798  0.00000000       0.000
   0.00000000  0.14705882  0.00000000       0.000
   0.00000000  0.14915966  0.00000000       0.000
   0.00000000  0.15126050  0.00000000       0.000
   0.00000000  0.15336134  0.00000000       0.000
   0.00000000  0.15546220  0.00000000       0.000
   0.00000000  0.15756304  0.00000000       0.000
   0.00000000  0.15966388  0.00000000       0.000
   0.00000000  0.16176472  0.00000000       0.000
   0.00000000  0.16386556  0.00000000       0.000
   0.00000000  0.16596640  0.00000000       0.000
   0.00000000  0.16806722  0.00000000       0.000
   0.00000000  0.17016806  0.00000000       0.000
   0.00000000  0.17226890  0.00000000       0.000
   0.00000000  0.17436974  0.00000000       0.000
   0.00000000  0.17647060  0.00000000       0.000
   0.00000000  0.17857144  0.00000000       0.000
   0.00000000  0.18067228  0.00000000       0.000
   0.00000000  0.18277310  0.00000000       0.000
   0.00000000  0.18487396  0.00000000       0.000
   0.00000000  0.18697478  0.00000000       0.000
   0.00000000  0.18907564  0.00000000       0.000
   0.00000000  0.19117646  0.00000000       0.000
   0.00000000  0.19327732  0.00000000       0.000
   0.00000000  0.19537814  0.00000000       0.000
   0.00000000  0.19747900  0.00000000       0.000
   0.00000000  0.19957984  0.00000000       0.000
   0.00000000  0.20168068  0.00000000       0.000
   0.00000000  0.20378152  0.00000000       0.000
   0.00000000  0.20588234  0.00000000       0.000
   0.00000000  0.20798320  0.00000000       0.000
   0.00000000  0.21008402  0.00000000       0.000
   0.00000000  0.21218488  0.00000000       0.000
   0.00000000  0.21428570  0.00000000       0.000
   0.00000000  0.21638656  0.00000000       0.000
   0.00000000  0.21848740  0.00000000       0.000
   0.00000000  0.22058824  0.00000000       0.000
   0.00000000  0.22268908  0.00000000       0.000
   0.00000000  0.22478990  0.00000000       0.000
   0.00000000  0.22689076  0.00000000       0.000
   0.00000000  0.22899158  0.00000000       0.000
   0.00000000  0.23109244  0.00000000       0.000
   0.00000000  0.23319326  0.00000000       0.000
   0.00000000  0.23529412  0.00000000       0.000
   0.00000000  0.23739496  0.00000000       0.000
   0.00000000  0.23949580  0.00000000       0.000
   0.00000000  0.24159664  0.00000000       0.000
   0.00000000  0.24369748  0.00000000       0.000
   0.00000000  0.24579832  0.00000000       0.000
   0.00000000  0.24789914  0.00000000       0.000
   0.00000000  0.25000000  0.00000000       0.000
   0.00000000  0.25210082  0.00000000       0.000
   0.00000000  0.25420168  0.00000000       0.000
   0.00000000  0.25630250  0.00000000       0.000
   0.00000000  0.25840336  0.00000000       0.000
   0.00000000  0.26050418  0.00000000       0.000
   0.00000000  0.26260504  0.00000000       0.000
   0.00000000  0.26470586  0.00000000       0.000
   0.00000000  0.26680672  0.00000000       0.000
   0.00000000  0.26890754  0.00000000       0.000
   0.00000000  0.27100840  0.00000000       0.000
   0.00000000  0.27310926  0.00000000       0.000
   0.00000000  0.27521008  0.00000000       0.000
   0.00000000  0.27731094  0.00000000       0.000
   0.00000000  0.27941176  0.00000000       0.000
   0.00000000  0.28151262  0.00000000       0.000
   0.00000000  0.28361344  0.00000000       0.000
   0.00000000  0.28571430  0.00000000       0.000
   0.00000000  0.28781512  0.00000000       0.000
   0.00000000  0.28991598  0.00000000       0.000
   0.00000000  0.29201680  0.00000000       0.000
   0.00000000  0.29411762  0.00000000       0.000
   0.00000000  0.29621848  0.00000000       0.000
   0.00000000  0.29831930  0.00000000       0.000
   0.00000000  0.30042016  0.00000000       0.000
   0.00000000  0.30252100  0.00000000       0.000
   0.00000000  0.30462184  0.00000000       0.000
   0.00000000  0.30672268  0.00000000       0.000
   0.00000000  0.30882352  0.00000000       0.000
   0.00000000  0.31092438  0.00000000       0.000
   0.00000000  0.31302520  0.00000000       0.000
   0.00000000  0.31512606  0.00000000       0.000
   0.00000000  0.31722688  0.00000000       0.000
   0.00000000  0.31932774  0.00000000       0.000
   0.00000000  0.32142856  0.00000000       0.000
   0.00000000  0.32352942  0.00000000       0.000
   0.00000000  0.32563024  0.00000000       0.000
   0.00000000  0.32773110  0.00000000       0.000
   0.00000000  0.32983192  0.00000000       0.000
   0.00000000  0.33193278  0.00000000       0.000
   0.00000000  0.33403360  0.00000000       0.000
   0.00000000  0.33613444  0.00000000       0.000
   0.00000000  0.33823528  0.00000000       0.000
   0.00000000  0.34033612  0.00000000       0.000
   0.00000000  0.34243696  0.00000000       0.000
   0.00000000  0.34453780  0.00000000       0.000
   0.00000000  0.34663864  0.00000000       0.000
   0.00000000  0.34873948  0.00000000       0.000
   0.00000000  0.35084034  0.00000000       0.000
   0.00000000  0.35294118  0.00000000       0.000
   0.00000000  0.35504202  0.00000000       0.000
   0.00000000  0.35714286  0.00000000       0.000
   0.00000000  0.35924370  0.00000000       0.000
   0.00000000  0.36134454  0.00000000       0.000
   0.00000000  0.36344540  0.00000000       0.000
   0.00000000  0.36554620  0.00000000       0.000
   0.00000000  0.36764706  0.00000000       0.000
   0.00000000  0.36974790  0.00000000       0.000
   0.00000000  0.37184876  0.00000000       0.000
   0.00000000  0.37394956  0.00000000       0.000
   0.00000000  0.37605042  0.00000000       0.000
   0.00000000  0.37815126  0.00000000       0.000
   0.00000000  0.38025212  0.00000000       0.000
   0.00000000  0.38235292  0.00000000       0.000
   0.00000000  0.38445378  0.00000000       0.000
   0.00000000  0.38655462  0.00000000       0.000
   0.00000000  0.38865546  0.00000000       0.000
   0.00000000  0.39075628  0.00000000       0.000
   0.00000000  0.39285714  0.00000000       0.000
   0.00000000  0.39495798  0.00000000       0.000
   0.00000000  0.39705882  0.00000000       0.000
   0.00000000  0.39915966  0.00000000       0.000
   0.00000000  0.40126052  0.00000000       0.000
   0.00000000  0.40336136  0.00000000       0.000
   0.00000000  0.40546218  0.00000000       0.000
   0.00000000  0.40756304  0.00000000       0.000
   0.00000000  0.40966388  0.00000000       0.000
   0.00000000  0.41176468  0.00000000       0.000
   0.00000000  0.41386554  0.00000000       0.000
   0.00000000  0.41596640  0.00000000       0.000
   0.00000000  0.41806724  0.00000000       0.000
   0.00000000  0.42016804  0.00000000       0.000
   0.00000000  0.42226890  0.00000000       0.000
   0.00000000  0.42436976  0.00000000       0.000
   0.00000000  0.42647058  0.00000000       0.000
   0.00000000  0.42857140  0.00000000       0.000
   0.00000000  0.43067226  0.00000000       0.000
   0.00000000  0.43277312  0.00000000       0.000
   0.00000000  0.43487394  0.00000000       0.000
   0.00000000  0.43697480  0.00000000       0.000
   0.00000000  0.43907562  0.00000000       0.000
   0.00000000  0.44117648  0.00000000       0.000
   0.00000000  0.44327730  0.00000000       0.000
   0.00000000  0.44537816  0.00000000       0.000
   0.00000000  0.44747900  0.00000000       0.000
   0.00000000  0.44957980  0.00000000       0.000
   0.00000000  0.45168066  0.00000000       0.000
   0.00000000  0.45378152  0.00000000       0.000
   0.00000000  0.45588238  0.00000000       0.000
   0.00000000  0.45798316  0.00000000       0.000
   0.00000000  0.46008402  0.00000000       0.000
   0.00000000  0.46218488  0.00000000       0.000
   0.00000000  0.46428574  0.00000000       0.000
   0.00000000  0.46638652  0.00000000       0.000
   0.00000000  0.46848738  0.00000000       0.000
   0.00000000  0.47058824  0.00000000       0.000
   0.00000000  0.47268906  0.00000000       0.000
   0.00000000  0.47478992  0.00000000       0.000
   0.00000000  0.47689074  0.00000000       0.000
   0.00000000  0.47899160  0.00000000       0.000
   0.00000000  0.48109242  0.00000000       0.000
   0.00000000  0.48319328  0.00000000       0.000
   0.00000000  0.48529414  0.00000000       0.000
   0.00000000  0.48739496  0.00000000       0.000
   0.00000000  0.48949578  0.00000000       0.000
   0.00000000  0.49159664  0.00000000       0.000
   0.00000000  0.49369750  0.00000000       0.000
   0.00000000  0.49579828  0.00000000       0.000
   0.00000000  0.49789914  0.00000000       0.000
   0.00000000  0.50000000  0.00000000       0.000
   0.00000000  0.50210082  0.00000000       0.000
   0.00000000  0.50420166  0.00000000       0.000
   0.00000000  0.50630254  0.00000000       0.000
   0.00000000  0.50840336  0.00000000       0.000
   0.00000000  0.51050424  0.00000000       0.000
   0.00000000  0.51260502  0.00000000       0.000
   0.00000000  0.51470590  0.00000000       0.000
   0.00000000  0.51680672  0.00000000       0.000
   0.00000000  0.51890754  0.00000000       0.000
   0.00000000  0.52100838  0.00000000       0.000
   0.00000000  0.52310926  0.00000000       0.000
   0.00000000  0.52521008  0.00000000       0.000
   0.00000000  0.52731090  0.00000000       0.000
   0.00000000  0.52941174  0.00000000       0.000
   0.00000000  0.53151262  0.00000000       0.000
   0.00000000  0.53361344  0.00000000       0.000
   0.00000000  0.53571426  0.00000000       0.000
   0.00000000  0.53781510  0.00000000       0.000
   0.00000000  0.53991598  0.00000000       0.000
   0.00000000  0.54201680  0.00000000       0.000
   0.00000000  0.54411762  0.00000000       0.000
   0.00000000  0.54621852  0.00000000       0.000
   0.00000000  0.54831934  0.00000000       0.000
   0.00000000  0.55042016  0.00000000       0.000
   0.00000000  0.55252100  0.00000000       0.000
   0.00000000  0.55462188  0.00000000       0.000
   0.00000000  0.55672270  0.00000000       0.000
   0.00000000  0.55882352  0.00000000       0.000
   0.00000000  0.56092436  0.00000000       0.000
   0.00000000  0.56302524  0.00000000       0.000
   0.00000000  0.56512600  0.00000000       0.000
   0.00000000  0.56722688  0.00000000       0.000
   0.00000000  0.56932772  0.00000000       0.000
   0.00000000  0.57142860  0.00000000       0.000
   0.00000000  0.57352942  0.00000000       0.000
   0.00000000  0.57563024  0.00000000       0.000
   0.00000000  0.57773108  0.00000000       0.000
   0.00000000  0.57983196  0.00000000       0.000
   0.00000000  0.58193278  0.00000000       0.000
   0.00000000  0.58403360  0.00000000       0.000
   0.00000000  0.58613444  0.00000000       0.000
   0.00000000  0.58823526  0.00000000       0.000
   0.00000000  0.59033614  0.00000000       0.000
   0.00000000  0.59243696  0.00000000       0.000
   0.00000000  0.59453786  0.00000000       0.000
   0.00000000  0.59663862  0.00000000       0.000
   0.00000000  0.59873950  0.00000000       0.000
   0.00000000  0.60084034  0.00000000       0.000
   0.00000000  0.60294122  0.00000000       0.000
   0.00000000  0.60504198  0.00000000       0.000
   0.00000000  0.60714286  0.00000000       0.000
   0.00000000  0.60924370  0.00000000       0.000
   0.00000000  0.61134452  0.00000000       0.000
   0.00000000  0.61344534  0.00000000       0.000
   0.00000000  0.61554622  0.00000000       0.000
   0.00000000  0.61764706  0.00000000       0.000
   0.00000000  0.61974788  0.00000000       0.000
   0.00000000  0.62184876  0.00000000       0.000
   0.00000000  0.62394958  0.00000000       0.000
   0.00000000  0.62605042  0.00000000       0.000
   0.00000000  0.62815124  0.00000000       0.000
   0.00000000  0.63025212  0.00000000       0.000
   0.00000000  0.63235294  0.00000000       0.000
   0.00000000  0.63445378  0.00000000       0.000
   0.00000000  0.63655460  0.00000000       0.000
   0.00000000  0.63865548  0.00000000       0.000
   0.00000000  0.64075630  0.00000000       0.000
   0.00000000  0.64285714  0.00000000       0.000
   0.00000000  0.64495796  0.00000000       0.000
   0.00000000  0.64705884  0.00000000       0.000
   0.00000000  0.64915966  0.00000000       0.000
   0.00000000  0.65126050  0.00000000       0.000
   0.00000000  0.65336132  0.00000000       0.000
   0.00000000  0.65546220  0.00000000       0.000
   0.00000000  0.65756304  0.00000000       0.000
   0.00000000  0.65966386  0.00000000       0.000
   0.00000000  0.66176468  0.00000000       0.000
   0.00000000  0.66386556  0.00000000       0.000
   0.00000000  0.66596640  0.00000000       0.000
   0.00000000  0.66806722  0.00000000       0.000
   0.00000000  0.67016810  0.00000000       0.000
   0.00000000  0.67226886  0.00000000       0.000
   0.00000000  0.67436976  0.00000000       0.000
   0.00000000  0.67647058  0.00000000       0.000
   0.00000000  0.67857146  0.00000000       0.000
   0.00000000  0.68067222  0.00000000       0.000
   0.00000000  0.68277312  0.00000000       0.000
   0.00000000  0.68487394  0.00000000       0.000
   0.00000000  0.68697482  0.00000000       0.000
   0.00000000  0.68907558  0.00000000       0.000
   0.00000000  0.69117648  0.00000000       0.000
   0.00000000  0.69327730  0.00000000       0.000
   0.00000000  0.69537812  0.00000000       0.000
   0.00000000  0.69747896  0.00000000       0.000
   0.00000000  0.69957984  0.00000000       0.000
   0.00000000  0.70168066  0.00000000       0.000
   0.00000000  0.70378148  0.00000000       0.000
   0.00000000  0.70588238  0.00000000       0.000
   0.00000000  0.70798320  0.00000000       0.000
   0.00000000  0.71008402  0.00000000       0.000
   0.00000000  0.71218490  0.00000000       0.000
   0.00000000  0.71428574  0.00000000       0.000
   0.00000000  0.71638650  0.00000000       0.000
   0.00000000  0.71848738  0.00000000       0.000
   0.00000000  0.72058820  0.00000000       0.000
   0.00000000  0.72268910  0.00000000       0.000
   0.00000000  0.72478992  0.00000000       0.000
   0.00000000  0.72689080  0.00000000       0.000
   0.00000000  0.72899162  0.00000000       0.000
   0.00000000  0.73109240  0.00000000       0.000
   0.00000000  0.73319322  0.00000000       0.000
   0.00000000  0.73529410  0.00000000       0.000
   0.00000000  0.73739492  0.00000000       0.000
   0.00000000  0.73949582  0.00000000       0.000
   0.00000000  0.74159664  0.00000000       0.000
   0.00000000  0.74369752  0.00000000       0.000
   0.00000000  0.74579828  0.00000000       0.000
   0.00000000  0.74789912  0.00000000       0.000
   0.00000000  0.75000000  0.00000000       0.000
   0.00000000  0.75210082  0.00000000       0.000
   0.00000000  0.75420172  0.00000000       0.000
   0.00000000  0.75630254  0.00000000       0.000
   0.00000000  0.75840336  0.00000000       0.000
   0.00000000  0.76050424  0.00000000       0.000
   0.00000000  0.76260502  0.00000000       0.000
   0.00000000  0.76470584  0.00000000       0.000
   0.00000000  0.76680672  0.00000000       0.000
   0.00000000  0.76890754  0.00000000       0.000
   0.00000000  0.77100844  0.00000000       0.000
   0.00000000  0.77310926  0.00000000       0.000
   0.00000000  0.77521014  0.00000000       0.000
   0.00000000  0.77731090  0.00000000       0.000
   0.00000000  0.77941174  0.00000000       0.000
   0.00000000  0.78151256  0.00000000       0.000
   0.00000000  0.78361344  0.00000000       0.000
   0.00000000  0.78571426  0.00000000       0.000
   0.00000000  0.78781516  0.00000000       0.000
   0.00000000  0.78991598  0.00000000       0.000
   0.00000000  0.79201674  0.00000000       0.000
   0.00000000  0.79411762  0.00000000       0.000
   0.00000000  0.79621846  0.00000000       0.000
   0.00000000  0.79831934  0.00000000       0.000
   0.00000000  0.80042016  0.00000000       0.000
   0.00000000  0.80252104  0.00000000       0.000
   0.00000000  0.80462188  0.00000000       0.000
   0.00000000  0.80672270  0.00000000       0.000
   0.00000000  0.80882346  0.00000000       0.000
   0.00000000  0.81092436  0.00000000       0.000
   0.00000000  0.81302518  0.00000000       0.000
   0.00000000  0.81512606  0.00000000       0.000
   0.00000000  0.81722688  0.00000000       0.000
   0.00000000  0.81932778  0.00000000       0.000
   0.00000000  0.82142860  0.00000000       0.000
   0.00000000  0.82352936  0.00000000       0.000
   0.00000000  0.82563024  0.00000000       0.000
   0.00000000  0.82773108  0.00000000       0.000
   0.00000000  0.82983190  0.00000000       0.000
   0.00000000  0.83193278  0.00000000       0.000
   0.00000000  0.83403360  0.00000000       0.000
   0.00000000  0.83613450  0.00000000       0.000
   0.00000000  0.83823526  0.00000000       0.000
   0.00000000  0.84033608  0.00000000       0.000
   0.00000000  0.84243696  0.00000000       0.000
   0.00000000  0.84453780  0.00000000       0.000
   0.00000000  0.84663868  0.00000000       0.000
   0.00000000  0.84873950  0.00000000       0.000
   0.00000000  0.85084038  0.00000000       0.000
   0.00000000  0.85294116  0.00000000       0.000
   0.00000000  0.85504198  0.00000000       0.000
   0.00000000  0.85714280  0.00000000       0.000
   0.00000000  0.85924370  0.00000000       0.000
   0.00000000  0.86134452  0.00000000       0.000
   0.00000000  0.86344540  0.00000000       0.000
   0.00000000  0.86554622  0.00000000       0.000
   0.00000000  0.86764712  0.00000000       0.000
   0.00000000  0.86974788  0.00000000       0.000
   0.00000000  0.87184870  0.00000000       0.000
   0.00000000  0.87394958  0.00000000       0.000
   0.00000000  0.87605042  0.00000000       0.000
   0.00000000  0.87815124  0.00000000       0.000
   0.00000000  0.88025212  0.00000000       0.000
   0.00000000  0.88235294  0.00000000       0.000
   0.00000000  0.88445372  0.00000000       0.000
   0.00000000  0.88655460  0.00000000       0.000
   0.00000000  0.88865542  0.00000000       0.000
   0.00000000  0.89075630  0.00000000       0.000
   0.00000000  0.89285714  0.00000000       0.000
   0.00000000  0.89495802  0.00000000       0.000
   0.00000000  0.89705884  0.00000000       0.000
   0.00000000  0.89915962  0.00000000       0.000
   0.00000000  0.90126050  0.00000000       0.000
   0.00000000  0.90336132  0.00000000       0.000
   0.00000000  0.90546214  0.00000000       0.000
   0.00000000  0.90756304  0.00000000       0.000
   0.00000000  0.90966386  0.00000000       0.000
   0.00000000  0.91176474  0.00000000       0.000
   0.00000000  0.91386556  0.00000000       0.000
   0.00000000  0.91596634  0.00000000       0.000
   0.00000000  0.91806722  0.00000000       0.000
   0.00000000  0.92016804  0.00000000       0.000
   0.00000000  0.92226892  0.00000000       0.000
   0.00000000  0.92436976  0.00000000       0.000
   0.00000000  0.92647058  0.00000000       0.000
   0.00000000  0.92857146  0.00000000       0.000
   0.00000000  0.93067222  0.00000000       0.000
   0.00000000  0.93277306  0.00000000       0.000
   0.00000000  0.93487394  0.00000000       0.000
   0.00000000  0.93697476  0.00000000       0.000
   0.00000000  0.93907564  0.00000000       0.000
   0.00000000  0.94117648  0.00000000       0.000
   0.00000000  0.94327736  0.00000000       0.000
   0.00000000  0.94537812  0.00000000       0.000
   0.00000000  0.94747896  0.00000000       0.000
   0.00000000  0.94957984  0.00000000       0.000
   0.00000000  0.95168066  0.00000000       0.000
   0.00000000  0.95378148  0.00000000       0.000
   0.00000000  0.95588238  0.00000000       0.000
   0.00000000  0.95798320  0.00000000       0.000
   0.00000000  0.96008408  0.00000000       0.000
   0.00000000  0.96218484  0.00000000       0.000
   0.00000000  0.96428568  0.00000000       0.000
   0.00000000  0.96638656  0.00000000       0.000
   0.00000000  0.96848738  0.00000000       0.000
   0.00000000  0.97058826  0.00000000       0.000
   0.00000000  0.97268910  0.00000000       0.000
   0.00000000  0.97478992  0.00000000       0.000
   0.00000000  0.97689074  0.00000000       0.000
   0.00000000  0.97899156  0.00000000       0.000
   0.00000000  0.98109240  0.00000000       0.000
   0.00000000  0.98319328  0.00000000       0.000
   0.00000000  0.98529410  0.00000000       0.000
   0.00000000  0.98739498  0.00000000       0.000
   0.00000000  0.98949582  0.00000000       0.000
   0.00000000  0.99159658  0.00000000       0.000
   0.00000000  0.99369746  0.00000000       0.000
   0.00000000  0.99579828  0.00000000       0.000
   0.00000000  0.99789918  0.00000000       0.000
 
 k-points in reciprocal lattice and weights: Automatically generated mesh SCF: 16 ste
   0.00000000  0.00000000  0.00000000       0.005
   0.16666667  0.00000000  0.00000000       0.037
   0.33333333  0.00000000  0.00000000       0.037
   0.50000000  0.00000000  0.00000000       0.019
   0.16666667  0.16666667  0.00000000       0.028
   0.33333333  0.16666667  0.00000000       0.111
   0.50000000  0.16666667  0.00000000       0.111
  -0.33333333  0.16666667  0.00000000       0.111
  -0.16666667  0.16666667  0.00000000       0.056
   0.33333333  0.33333333  0.00000000       0.028
   0.50000000  0.33333333  0.00000000       0.111
  -0.33333333  0.33333333  0.00000000       0.056
   0.50000000  0.50000000  0.00000000       0.014
   0.50000000  0.33333333  0.16666667       0.111
  -0.33333333  0.33333333  0.16666667       0.111
  -0.33333333  0.50000000  0.16666667       0.056
   0.00000000  0.00000000  0.00000000       0.000
   0.00105042  0.00000000  0.00105042       0.000
   0.00210084  0.00000000  0.00210084       0.000
   0.00315126  0.00000000  0.00315126       0.000
   0.00420168  0.00000000  0.00420168       0.000
   0.00525210  0.00000000  0.00525210       0.000
   0.00630252  0.00000000  0.00630252       0.000
   0.00735294  0.00000000  0.00735294       0.000
   0.00840336  0.00000000  0.00840336       0.000
   0.00945378  0.00000000  0.00945378       0.000
   0.01050420  0.00000000  0.01050420       0.000
   0.01155462  0.00000000  0.01155462       0.000
   0.01260504  0.00000000  0.01260504       0.000
   0.01365546  0.00000000  0.01365546       0.000
   0.01470588  0.00000000  0.01470588       0.000
   0.01575630  0.00000000  0.01575630       0.000
   0.01680672  0.00000000  0.01680672       0.000
   0.01785714  0.00000000  0.01785714       0.000
   0.01890756  0.00000000  0.01890756       0.000
   0.01995798  0.00000000  0.01995798       0.000
   0.02100840  0.00000000  0.02100840       0.000
   0.02205882  0.00000000  0.02205882       0.000
   0.02310924  0.00000000  0.02310924       0.000
   0.02415966  0.00000000  0.02415966       0.000
   0.02521008  0.00000000  0.02521008       0.000
   0.02626050  0.00000000  0.02626050       0.000
   0.02731092  0.00000000  0.02731092       0.000
   0.02836134  0.00000000  0.02836134       0.000
   0.02941176  0.00000000  0.02941176       0.000
   0.03046218  0.00000000  0.03046218       0.000
   0.03151260  0.00000000  0.03151260       0.000
   0.03256302  0.00000000  0.03256302       0.000
   0.03361344  0.00000000  0.03361344       0.000
   0.03466387  0.00000000  0.03466387       0.000
   0.03571429  0.00000000  0.03571429       0.000
   0.03676470  0.00000000  0.03676470       0.000
   0.03781512  0.00000000  0.03781512       0.000
   0.03886555  0.00000000  0.03886555       0.000
   0.03991597  0.00000000  0.03991597       0.000
   0.04096639  0.00000000  0.04096639       0.000
   0.04201680  0.00000000  0.04201680       0.000
   0.04306722  0.00000000  0.04306722       0.000
   0.04411765  0.00000000  0.04411765       0.000
   0.04516807  0.00000000  0.04516807       0.000
   0.04621849  0.00000000  0.04621849       0.000
   0.04726891  0.00000000  0.04726891       0.000
   0.04831933  0.00000000  0.04831933       0.000
   0.04936975  0.00000000  0.04936975       0.000
   0.05042017  0.00000000  0.05042017       0.000
   0.05147059  0.00000000  0.05147059       0.000
   0.05252101  0.00000000  0.05252101       0.000
   0.05357143  0.00000000  0.05357143       0.000
   0.05462185  0.00000000  0.05462185       0.000
   0.05567227  0.00000000  0.05567227       0.000
   0.05672269  0.00000000  0.05672269       0.000
   0.05777311  0.00000000  0.05777311       0.000
   0.05882353  0.00000000  0.05882353       0.000
   0.05987395  0.00000000  0.05987395       0.000
   0.06092437  0.00000000  0.06092437       0.000
   0.06197479  0.00000000  0.06197479       0.000
   0.06302521  0.00000000  0.06302521       0.000
   0.06407563  0.00000000  0.06407563       0.000
   0.06512605  0.00000000  0.06512605       0.000
   0.06617647  0.00000000  0.06617647       0.000
   0.06722689  0.00000000  0.06722689       0.000
   0.06827731  0.00000000  0.06827731       0.000
   0.06932773  0.00000000  0.06932773       0.000
   0.07037815  0.00000000  0.07037815       0.000
   0.07142857  0.00000000  0.07142857       0.000
   0.07247899  0.00000000  0.07247899       0.000
   0.07352941  0.00000000  0.07352941       0.000
   0.07457983  0.00000000  0.07457983       0.000
   0.07563025  0.00000000  0.07563025       0.000
   0.07668067  0.00000000  0.07668067       0.000
   0.07773110  0.00000000  0.07773110       0.000
   0.07878152  0.00000000  0.07878152       0.000
   0.07983194  0.00000000  0.07983194       0.000
   0.08088236  0.00000000  0.08088236       0.000
   0.08193278  0.00000000  0.08193278       0.000
   0.08298320  0.00000000  0.08298320       0.000
   0.08403361  0.00000000  0.08403361       0.000
   0.08508403  0.00000000  0.08508403       0.000
   0.08613445  0.00000000  0.08613445       0.000
   0.08718487  0.00000000  0.08718487       0.000
   0.08823530  0.00000000  0.08823530       0.000
   0.08928572  0.00000000  0.08928572       0.000
   0.09033614  0.00000000  0.09033614       0.000
   0.09138655  0.00000000  0.09138655       0.000
   0.09243698  0.00000000  0.09243698       0.000
   0.09348739  0.00000000  0.09348739       0.000
   0.09453782  0.00000000  0.09453782       0.000
   0.09558823  0.00000000  0.09558823       0.000
   0.09663866  0.00000000  0.09663866       0.000
   0.09768907  0.00000000  0.09768907       0.000
   0.09873950  0.00000000  0.09873950       0.000
   0.09978992  0.00000000  0.09978992       0.000
   0.10084034  0.00000000  0.10084034       0.000
   0.10189076  0.00000000  0.10189076       0.000
   0.10294117  0.00000000  0.10294117       0.000
   0.10399160  0.00000000  0.10399160       0.000
   0.10504201  0.00000000  0.10504201       0.000
   0.10609244  0.00000000  0.10609244       0.000
   0.10714285  0.00000000  0.10714285       0.000
   0.10819328  0.00000000  0.10819328       0.000
   0.10924370  0.00000000  0.10924370       0.000
   0.11029412  0.00000000  0.11029412       0.000
   0.11134454  0.00000000  0.11134454       0.000
   0.11239495  0.00000000  0.11239495       0.000
   0.11344538  0.00000000  0.11344538       0.000
   0.11449579  0.00000000  0.11449579       0.000
   0.11554622  0.00000000  0.11554622       0.000
   0.11659663  0.00000000  0.11659663       0.000
   0.11764706  0.00000000  0.11764706       0.000
   0.11869748  0.00000000  0.11869748       0.000
   0.11974790  0.00000000  0.11974790       0.000
   0.12079832  0.00000000  0.12079832       0.000
   0.12184874  0.00000000  0.12184874       0.000
   0.12289916  0.00000000  0.12289916       0.000
   0.12394957  0.00000000  0.12394957       0.000
   0.12500000  0.00000000  0.12500000       0.000
   0.12605041  0.00000000  0.12605041       0.000
   0.12710084  0.00000000  0.12710084       0.000
   0.12815125  0.00000000  0.12815125       0.000
   0.12920168  0.00000000  0.12920168       0.000
   0.13025209  0.00000000  0.13025209       0.000
   0.13130252  0.00000000  0.13130252       0.000
   0.13235293  0.00000000  0.13235293       0.000
   0.13340336  0.00000000  0.13340336       0.000
   0.13445377  0.00000000  0.13445377       0.000
   0.13550420  0.00000000  0.13550420       0.000
   0.13655463  0.00000000  0.13655463       0.000
   0.13760504  0.00000000  0.13760504       0.000
   0.13865547  0.00000000  0.13865547       0.000
   0.13970588  0.00000000  0.13970588       0.000
   0.14075631  0.00000000  0.14075631       0.000
   0.14180672  0.00000000  0.14180672       0.000
   0.14285715  0.00000000  0.14285715       0.000
   0.14390756  0.00000000  0.14390756       0.000
   0.14495799  0.00000000  0.14495799       0.000
   0.14600840  0.00000000  0.14600840       0.000
   0.14705881  0.00000000  0.14705881       0.000
   0.14810924  0.00000000  0.14810924       0.000
   0.14915965  0.00000000  0.14915965       0.000
   0.15021008  0.00000000  0.15021008       0.000
   0.15126050  0.00000000  0.15126050       0.000
   0.15231092  0.00000000  0.15231092       0.000
   0.15336134  0.00000000  0.15336134       0.000
   0.15441176  0.00000000  0.15441176       0.000
   0.15546219  0.00000000  0.15546219       0.000
   0.15651260  0.00000000  0.15651260       0.000
   0.15756303  0.00000000  0.15756303       0.000
   0.15861344  0.00000000  0.15861344       0.000
   0.15966387  0.00000000  0.15966387       0.000
   0.16071428  0.00000000  0.16071428       0.000
   0.16176471  0.00000000  0.16176471       0.000
   0.16281512  0.00000000  0.16281512       0.000
   0.16386555  0.00000000  0.16386555       0.000
   0.16491596  0.00000000  0.16491596       0.000
   0.16596639  0.00000000  0.16596639       0.000
   0.16701680  0.00000000  0.16701680       0.000
   0.16806722  0.00000000  0.16806722       0.000
   0.16911764  0.00000000  0.16911764       0.000
   0.17016806  0.00000000  0.17016806       0.000
   0.17121848  0.00000000  0.17121848       0.000
   0.17226890  0.00000000  0.17226890       0.000
   0.17331932  0.00000000  0.17331932       0.000
   0.17436974  0.00000000  0.17436974       0.000
   0.17542017  0.00000000  0.17542017       0.000
   0.17647059  0.00000000  0.17647059       0.000
   0.17752101  0.00000000  0.17752101       0.000
   0.17857143  0.00000000  0.17857143       0.000
   0.17962185  0.00000000  0.17962185       0.000
   0.18067227  0.00000000  0.18067227       0.000
   0.18172270  0.00000000  0.18172270       0.000
   0.18277310  0.00000000  0.18277310       0.000
   0.18382353  0.00000000  0.18382353       0.000
   0.18487395  0.00000000  0.18487395       0.000
   0.18592438  0.00000000  0.18592438       0.000
   0.18697478  0.00000000  0.18697478       0.000
   0.18802521  0.00000000  0.18802521       0.000
   0.18907563  0.00000000  0.18907563       0.000
   0.19012606  0.00000000  0.19012606       0.000
   0.19117646  0.00000000  0.19117646       0.000
   0.19222689  0.00000000  0.19222689       0.000
   0.19327731  0.00000000  0.19327731       0.000
   0.19432773  0.00000000  0.19432773       0.000
   0.19537814  0.00000000  0.19537814       0.000
   0.19642857  0.00000000  0.19642857       0.000
   0.19747899  0.00000000  0.19747899       0.000
   0.19852941  0.00000000  0.19852941       0.000
   0.19957983  0.00000000  0.19957983       0.000
   0.20063026  0.00000000  0.20063026       0.000
   0.20168068  0.00000000  0.20168068       0.000
   0.20273109  0.00000000  0.20273109       0.000
   0.20378152  0.00000000  0.20378152       0.000
   0.20483194  0.00000000  0.20483194       0.000
   0.20588234  0.00000000  0.20588234       0.000
   0.20693277  0.00000000  0.20693277       0.000
   0.20798320  0.00000000  0.20798320       0.000
   0.20903362  0.00000000  0.20903362       0.000
   0.21008402  0.00000000  0.21008402       0.000
   0.21113445  0.00000000  0.21113445       0.000
   0.21218488  0.00000000  0.21218488       0.000
   0.21323529  0.00000000  0.21323529       0.000
   0.21428570  0.00000000  0.21428570       0.000
   0.21533613  0.00000000  0.21533613       0.000
   0.21638656  0.00000000  0.21638656       0.000
   0.21743697  0.00000000  0.21743697       0.000
   0.21848740  0.00000000  0.21848740       0.000
   0.21953781  0.00000000  0.21953781       0.000
   0.22058824  0.00000000  0.22058824       0.000
   0.22163865  0.00000000  0.22163865       0.000
   0.22268908  0.00000000  0.22268908       0.000
   0.22373950  0.00000000  0.22373950       0.000
   0.22478990  0.00000000  0.22478990       0.000
   0.22584033  0.00000000  0.22584033       0.000
   0.22689076  0.00000000  0.22689076       0.000
   0.22794119  0.00000000  0.22794119       0.000
   0.22899158  0.00000000  0.22899158       0.000
   0.23004201  0.00000000  0.23004201       0.000
   0.23109244  0.00000000  0.23109244       0.000
   0.23214287  0.00000000  0.23214287       0.000
   0.23319326  0.00000000  0.23319326       0.000
   0.23424369  0.00000000  0.23424369       0.000
   0.23529412  0.00000000  0.23529412       0.000
   0.23634453  0.00000000  0.23634453       0.000
   0.23739496  0.00000000  0.23739496       0.000
   0.23844537  0.00000000  0.23844537       0.000
   0.23949580  0.00000000  0.23949580       0.000
   0.24054621  0.00000000  0.24054621       0.000
   0.24159664  0.00000000  0.24159664       0.000
   0.24264707  0.00000000  0.24264707       0.000
   0.24369748  0.00000000  0.24369748       0.000
   0.24474789  0.00000000  0.24474789       0.000
   0.24579832  0.00000000  0.24579832       0.000
   0.24684875  0.00000000  0.24684875       0.000
   0.24789914  0.00000000  0.24789914       0.000
   0.24894957  0.00000000  0.24894957       0.000
   0.25000000  0.00000000  0.25000000       0.000
   0.25105041  0.00000000  0.25105041       0.000
   0.25210083  0.00000000  0.25210083       0.000
   0.25315127  0.00000000  0.25315127       0.000
   0.25420168  0.00000000  0.25420168       0.000
   0.25525212  0.00000000  0.25525212       0.000
   0.25630251  0.00000000  0.25630251       0.000
   0.25735295  0.00000000  0.25735295       0.000
   0.25840336  0.00000000  0.25840336       0.000
   0.25945377  0.00000000  0.25945377       0.000
   0.26050419  0.00000000  0.26050419       0.000
   0.26155463  0.00000000  0.26155463       0.000
   0.26260504  0.00000000  0.26260504       0.000
   0.26365545  0.00000000  0.26365545       0.000
   0.26470587  0.00000000  0.26470587       0.000
   0.26575631  0.00000000  0.26575631       0.000
   0.26680672  0.00000000  0.26680672       0.000
   0.26785713  0.00000000  0.26785713       0.000
   0.26890755  0.00000000  0.26890755       0.000
   0.26995799  0.00000000  0.26995799       0.000
   0.27100840  0.00000000  0.27100840       0.000
   0.27205881  0.00000000  0.27205881       0.000
   0.27310926  0.00000000  0.27310926       0.000
   0.27415967  0.00000000  0.27415967       0.000
   0.27521008  0.00000000  0.27521008       0.000
   0.27626050  0.00000000  0.27626050       0.000
   0.27731094  0.00000000  0.27731094       0.000
   0.27836135  0.00000000  0.27836135       0.000
   0.27941176  0.00000000  0.27941176       0.000
   0.28046218  0.00000000  0.28046218       0.000
   0.28151262  0.00000000  0.28151262       0.000
   0.28256300  0.00000000  0.28256300       0.000
   0.28361344  0.00000000  0.28361344       0.000
   0.28466386  0.00000000  0.28466386       0.000
   0.28571430  0.00000000  0.28571430       0.000
   0.28676471  0.00000000  0.28676471       0.000
   0.28781512  0.00000000  0.28781512       0.000
   0.28886554  0.00000000  0.28886554       0.000
   0.28991598  0.00000000  0.28991598       0.000
   0.29096639  0.00000000  0.29096639       0.000
   0.29201680  0.00000000  0.29201680       0.000
   0.29306722  0.00000000  0.29306722       0.000
   0.29411763  0.00000000  0.29411763       0.000
   0.29516807  0.00000000  0.29516807       0.000
   0.29621848  0.00000000  0.29621848       0.000
   0.29726893  0.00000000  0.29726893       0.000
   0.29831931  0.00000000  0.29831931       0.000
   0.29936975  0.00000000  0.29936975       0.000
   0.30042017  0.00000000  0.30042017       0.000
   0.30147061  0.00000000  0.30147061       0.000
   0.30252099  0.00000000  0.30252099       0.000
   0.30357143  0.00000000  0.30357143       0.000
   0.30462185  0.00000000  0.30462185       0.000
   0.30567226  0.00000000  0.30567226       0.000
   0.30672267  0.00000000  0.30672267       0.000
   0.30777311  0.00000000  0.30777311       0.000
   0.30882353  0.00000000  0.30882353       0.000
   0.30987394  0.00000000  0.30987394       0.000
   0.31092438  0.00000000  0.31092438       0.000
   0.31197479  0.00000000  0.31197479       0.000
   0.31302521  0.00000000  0.31302521       0.000
   0.31407562  0.00000000  0.31407562       0.000
   0.31512606  0.00000000  0.31512606       0.000
   0.31617647  0.00000000  0.31617647       0.000
   0.31722689  0.00000000  0.31722689       0.000
   0.31827730  0.00000000  0.31827730       0.000
   0.31932774  0.00000000  0.31932774       0.000
   0.32037815  0.00000000  0.32037815       0.000
   0.32142857  0.00000000  0.32142857       0.000
   0.32247898  0.00000000  0.32247898       0.000
   0.32352942  0.00000000  0.32352942       0.000
   0.32457983  0.00000000  0.32457983       0.000
   0.32563025  0.00000000  0.32563025       0.000
   0.32668066  0.00000000  0.32668066       0.000
   0.32773110  0.00000000  0.32773110       0.000
   0.32878152  0.00000000  0.32878152       0.000
   0.32983193  0.00000000  0.32983193       0.000
   0.33088234  0.00000000  0.33088234       0.000
   0.33193278  0.00000000  0.33193278       0.000
   0.33298320  0.00000000  0.33298320       0.000
   0.33403361  0.00000000  0.33403361       0.000
   0.33508405  0.00000000  0.33508405       0.000
   0.33613443  0.00000000  0.33613443       0.000
   0.33718488  0.00000000  0.33718488       0.000
   0.33823529  0.00000000  0.33823529       0.000
   0.33928573  0.00000000  0.33928573       0.000
   0.34033611  0.00000000  0.34033611       0.000
   0.34138656  0.00000000  0.34138656       0.000
   0.34243697  0.00000000  0.34243697       0.000
   0.34348741  0.00000000  0.34348741       0.000
   0.34453779  0.00000000  0.34453779       0.000
   0.34558824  0.00000000  0.34558824       0.000
   0.34663865  0.00000000  0.34663865       0.000
   0.34768906  0.00000000  0.34768906       0.000
   0.34873948  0.00000000  0.34873948       0.000
   0.34978992  0.00000000  0.34978992       0.000
   0.35084033  0.00000000  0.35084033       0.000
   0.35189074  0.00000000  0.35189074       0.000
   0.35294119  0.00000000  0.35294119       0.000
   0.35399160  0.00000000  0.35399160       0.000
   0.35504201  0.00000000  0.35504201       0.000
   0.35609245  0.00000000  0.35609245       0.000
   0.35714287  0.00000000  0.35714287       0.000
   0.35819325  0.00000000  0.35819325       0.000
   0.35924369  0.00000000  0.35924369       0.000
   0.36029410  0.00000000  0.36029410       0.000
   0.36134455  0.00000000  0.36134455       0.000
   0.36239496  0.00000000  0.36239496       0.000
   0.36344540  0.00000000  0.36344540       0.000
   0.36449581  0.00000000  0.36449581       0.000
   0.36554620  0.00000000  0.36554620       0.000
   0.36659661  0.00000000  0.36659661       0.000
   0.36764705  0.00000000  0.36764705       0.000
   0.36869746  0.00000000  0.36869746       0.000
   0.36974791  0.00000000  0.36974791       0.000
   0.37079832  0.00000000  0.37079832       0.000
   0.37184876  0.00000000  0.37184876       0.000
   0.37289914  0.00000000  0.37289914       0.000
   0.37394956  0.00000000  0.37394956       0.000
   0.37500000  0.00000000  0.37500000       0.000
   0.37605041  0.00000000  0.37605041       0.000
   0.37710086  0.00000000  0.37710086       0.000
   0.37815127  0.00000000  0.37815127       0.000
   0.37920168  0.00000000  0.37920168       0.000
   0.38025212  0.00000000  0.38025212       0.000
   0.38130251  0.00000000  0.38130251       0.000
   0.38235292  0.00000000  0.38235292       0.000
   0.38340336  0.00000000  0.38340336       0.000
   0.38445377  0.00000000  0.38445377       0.000
   0.38550422  0.00000000  0.38550422       0.000
   0.38655463  0.00000000  0.38655463       0.000
   0.38760507  0.00000000  0.38760507       0.000
   0.38865545  0.00000000  0.38865545       0.000
   0.38970587  0.00000000  0.38970587       0.000
   0.39075628  0.00000000  0.39075628       0.000
   0.39180672  0.00000000  0.39180672       0.000
   0.39285713  0.00000000  0.39285713       0.000
   0.39390758  0.00000000  0.39390758       0.000
   0.39495799  0.00000000  0.39495799       0.000
   0.39600837  0.00000000  0.39600837       0.000
   0.39705881  0.00000000  0.39705881       0.000
   0.39810923  0.00000000  0.39810923       0.000
   0.39915967  0.00000000  0.39915967       0.000
   0.40021008  0.00000000  0.40021008       0.000
   0.40126052  0.00000000  0.40126052       0.000
   0.40231094  0.00000000  0.40231094       0.000
   0.40336135  0.00000000  0.40336135       0.000
   0.40441173  0.00000000  0.40441173       0.000
   0.40546218  0.00000000  0.40546218       0.000
   0.40651259  0.00000000  0.40651259       0.000
   0.40756303  0.00000000  0.40756303       0.000
   0.40861344  0.00000000  0.40861344       0.000
   0.40966389  0.00000000  0.40966389       0.000
   0.41071430  0.00000000  0.41071430       0.000
   0.41176468  0.00000000  0.41176468       0.000
   0.41281512  0.00000000  0.41281512       0.000
   0.41386554  0.00000000  0.41386554       0.000
   0.41491595  0.00000000  0.41491595       0.000
   0.41596639  0.00000000  0.41596639       0.000
   0.41701680  0.00000000  0.41701680       0.000
   0.41806725  0.00000000  0.41806725       0.000
   0.41911763  0.00000000  0.41911763       0.000
   0.42016804  0.00000000  0.42016804       0.000
   0.42121848  0.00000000  0.42121848       0.000
   0.42226890  0.00000000  0.42226890       0.000
   0.42331934  0.00000000  0.42331934       0.000
   0.42436975  0.00000000  0.42436975       0.000
   0.42542019  0.00000000  0.42542019       0.000
   0.42647058  0.00000000  0.42647058       0.000
   0.42752099  0.00000000  0.42752099       0.000
   0.42857140  0.00000000  0.42857140       0.000
   0.42962185  0.00000000  0.42962185       0.000
   0.43067226  0.00000000  0.43067226       0.000
   0.43172270  0.00000000  0.43172270       0.000
   0.43277311  0.00000000  0.43277311       0.000
   0.43382356  0.00000000  0.43382356       0.000
   0.43487394  0.00000000  0.43487394       0.000
   0.43592435  0.00000000  0.43592435       0.000
   0.43697479  0.00000000  0.43697479       0.000
   0.43802521  0.00000000  0.43802521       0.000
   0.43907562  0.00000000  0.43907562       0.000
   0.44012606  0.00000000  0.44012606       0.000
   0.44117647  0.00000000  0.44117647       0.000
   0.44222686  0.00000000  0.44222686       0.000
   0.44327730  0.00000000  0.44327730       0.000
   0.44432771  0.00000000  0.44432771       0.000
   0.44537815  0.00000000  0.44537815       0.000
   0.44642857  0.00000000  0.44642857       0.000
   0.44747901  0.00000000  0.44747901       0.000
   0.44852942  0.00000000  0.44852942       0.000
   0.44957981  0.00000000  0.44957981       0.000
   0.45063025  0.00000000  0.45063025       0.000
   0.45168066  0.00000000  0.45168066       0.000
   0.45273107  0.00000000  0.45273107       0.000
   0.45378152  0.00000000  0.45378152       0.000
   0.45483193  0.00000000  0.45483193       0.000
   0.45588237  0.00000000  0.45588237       0.000
   0.45693278  0.00000000  0.45693278       0.000
   0.45798317  0.00000000  0.45798317       0.000
   0.45903361  0.00000000  0.45903361       0.000
   0.46008402  0.00000000  0.46008402       0.000
   0.46113446  0.00000000  0.46113446       0.000
   0.46218488  0.00000000  0.46218488       0.000
   0.46323529  0.00000000  0.46323529       0.000
   0.46428573  0.00000000  0.46428573       0.000
   0.46533611  0.00000000  0.46533611       0.000
   0.46638653  0.00000000  0.46638653       0.000
   0.46743697  0.00000000  0.46743697       0.000
   0.46848738  0.00000000  0.46848738       0.000
   0.46953782  0.00000000  0.46953782       0.000
   0.47058824  0.00000000  0.47058824       0.000
   0.47163868  0.00000000  0.47163868       0.000
   0.47268906  0.00000000  0.47268906       0.000
   0.47373948  0.00000000  0.47373948       0.000
   0.47478992  0.00000000  0.47478992       0.000
   0.47584033  0.00000000  0.47584033       0.000
   0.47689074  0.00000000  0.47689074       0.000
   0.47794119  0.00000000  0.47794119       0.000
   0.47899160  0.00000000  0.47899160       0.000
   0.48004204  0.00000000  0.48004204       0.000
   0.48109242  0.00000000  0.48109242       0.000
   0.48214284  0.00000000  0.48214284       0.000
   0.48319328  0.00000000  0.48319328       0.000
   0.48424369  0.00000000  0.48424369       0.000
   0.48529413  0.00000000  0.48529413       0.000
   0.48634455  0.00000000  0.48634455       0.000
   0.48739496  0.00000000  0.48739496       0.000
   0.48844537  0.00000000  0.48844537       0.000
   0.48949578  0.00000000  0.48949578       0.000
   0.49054620  0.00000000  0.49054620       0.000
   0.49159664  0.00000000  0.49159664       0.000
   0.49264705  0.00000000  0.49264705       0.000
   0.49369749  0.00000000  0.49369749       0.000
   0.49474791  0.00000000  0.49474791       0.000
   0.49579829  0.00000000  0.49579829       0.000
   0.49684873  0.00000000  0.49684873       0.000
   0.49789914  0.00000000  0.49789914       0.000
   0.49894959  0.00000000  0.49894959       0.000
 
 position of ions in fractional coordinates (direct lattice) 
   0.00000000  0.00000000  0.00000000
   0.25000000  0.25000000  0.25000000
 
 position of ions in cartesian coordinates  (Angst):
   0.00000000  0.00000000  0.00000000
   1.62067500  1.62067500 -1.62067500
 


--------------------------------------------------------------------------------------------------------


 k-point  1 :   0.0000 0.0000 0.0000  plane waves:    1759
 k-point  2 :   0.1667 0.0000 0.0000  plane waves:    1747
 k-point  3 :   0.3333 0.0000 0.0000  plane waves:    1730
 k-point  4 :   0.5000 0.0000 0.0000  plane waves:    1718
 k-point  5 :   0.1667 0.1667 0.0000  plane waves:    1736
 k-point  6 :   0.3333 0.1667 0.0000  plane waves:    1729
 k-point  7 :   0.5000 0.1667 0.0000  plane waves:    1739
 k-point  8 :  -0.3333 0.1667 0.0000  plane waves:    1732
 k-point  9 :  -0.1667 0.1667 0.0000  plane waves:    1735
 k-point 10 :   0.3333 0.3333 0.0000  plane waves:    1728
 k-point 11 :   0.5000 0.3333 0.0000  plane waves:    1723
 k-point 12 :  -0.3333 0.3333 0.0000  plane waves:    1726
 k-point 13 :   0.5000 0.5000 0.0000  plane waves:    1724
 k-point 14 :   0.5000 0.3333 0.1667  plane waves:    1724
 k-point 15 :  -0.3333 0.3333 0.1667  plane waves:    1726
 k-point 16 :  -0.3333 0.5000 0.1667  plane waves:    1722
 k-point 17 :   0.0000 0.0000 0.0000  plane waves:    1759
 k-point 18 :   0.0011 0.0000 0.0011  plane waves:    1759
 k-point 19 :   0.0021 0.0000 0.0021  plane waves:    1759
 k-point 20 :   0.0032 0.0000 0.0032  plane waves:    1759
 k-point 21 :   0.0042 0.0000 0.0042  plane waves:    1759
 k-point 22 :   0.0053 0.0000 0.0053  plane waves:    1759
 k-point 23 :   0.0063 0.0000 0.0063  plane waves:    1759
 k-point 24 :   0.0074 0.0000 0.0074  plane waves:    1759
 k-point 25 :   0.0084 0.0000 0.0084  plane waves:    1767
 k-point 26 :   0.0095 0.0000 0.0095  plane waves:    1767
 k-point 27 :   0.0105 0.0000 0.0105  plane waves:    1767
 k-point 28 :   0.0116 0.0000 0.0116  plane waves:    1767
 k-point 29 :   0.0126 0.0000 0.0126  plane waves:    1775
 k-point 30 :   0.0137 0.0000 0.0137  plane waves:    1775
 k-point 31 :   0.0147 0.0000 0.0147  plane waves:    1775
 k-point 32 :   0.0158 0.0000 0.0158  plane waves:    1775
 k-point 33 :   0.0168 0.0000 0.0168  plane waves:    1771
 k-point 34 :   0.0179 0.0000 0.0179  plane waves:    1771
 k-point 35 :   0.0189 0.0000 0.0189  plane waves:    1771
 k-point 36 :   0.0200 0.0000 0.0200  plane waves:    1763
 k-point 37 :   0.0210 0.0000 0.0210  plane waves:    1763
 k-point 38 :   0.0221 0.0000 0.0221  plane waves:    1763
 k-point 39 :   0.0231 0.0000 0.0231  plane waves:    1763
 k-point 40 :   0.0242 0.0000 0.0242  plane waves:    1763
 k-point 41 :   0.0252 0.0000 0.0252  plane waves:    1755
 k-point 42 :   0.0263 0.0000 0.0263  plane waves:    1755
 k-point 43 :   0.0273 0.0000 0.0273  plane waves:    1755
 k-point 44 :   0.0284 0.0000 0.0284  plane waves:    1755
 k-point 45 :   0.0294 0.0000 0.0294  plane waves:    1755
 k-point 46 :   0.0305 0.0000 0.0305  plane waves:    1755
 k-point 47 :   0.0315 0.0000 0.0315  plane waves:    1755
 k-point 48 :   0.0326 0.0000 0.0326  plane waves:    1755
 k-point 49 :   0.0336 0.0000 0.0336  plane waves:    1755
 k-point 50 :   0.0347 0.0000 0.0347  plane waves:    1755
 k-point 51 :   0.0357 0.0000 0.0357  plane waves:    1755
 k-point 52 :   0.0368 0.0000 0.0368  plane waves:    1755
 k-point 53 :   0.0378 0.0000 0.0378  plane waves:    1755
 k-point 54 :   0.0389 0.0000 0.0389  plane waves:    1763
 k-point 55 :   0.0399 0.0000 0.0399  plane waves:    1763
 k-point 56 :   0.0410 0.0000 0.0410  plane waves:    1763
 k-point 57 :   0.0420 0.0000 0.0420  plane waves:    1763
 k-point 58 :   0.0431 0.0000 0.0431  plane waves:    1763
 k-point 59 :   0.0441 0.0000 0.0441  plane waves:    1763
 k-point 60 :   0.0452 0.0000 0.0452  plane waves:    1763
 k-point 61 :   0.0462 0.0000 0.0462  plane waves:    1763
 k-point 62 :   0.0473 0.0000 0.0473  plane waves:    1763
 k-point 63 :   0.0483 0.0000 0.0483  plane waves:    1763
 k-point 64 :   0.0494 0.0000 0.0494  plane waves:    1763
 k-point 65 :   0.0504 0.0000 0.0504  plane waves:    1763
 k-point 66 :   0.0515 0.0000 0.0515  plane waves:    1763
 k-point 67 :   0.0525 0.0000 0.0525  plane waves:    1763
 k-point 68 :   0.0536 0.0000 0.0536  plane waves:    1763
 k-point 69 :   0.0546 0.0000 0.0546  plane waves:    1763
 k-point 70 :   0.0557 0.0000 0.0557  plane waves:    1763
 k-point 71 :   0.0567 0.0000 0.0567  plane waves:    1763
 k-point 72 :   0.0578 0.0000 0.0578  plane waves:    1747
 k-point 73 :   0.0588 0.0000 0.0588  plane waves:    1747
 k-point 74 :   0.0599 0.0000 0.0599  plane waves:    1747
 k-point 75 :   0.0609 0.0000 0.0609  plane waves:    1747
 k-point 76 :   0.0620 0.0000 0.0620  plane waves:    1747
 k-point 77 :   0.0630 0.0000 0.0630  plane waves:    1747
 k-point 78 :   0.0641 0.0000 0.0641  plane waves:    1747
 k-point 79 :   0.0651 0.0000 0.0651  plane waves:    1747
 k-point 80 :   0.0662 0.0000 0.0662  plane waves:    1747
 k-point 81 :   0.0672 0.0000 0.0672  plane waves:    1747
 k-point 82 :   0.0683 0.0000 0.0683  plane waves:    1747
 k-point 83 :   0.0693 0.0000 0.0693  plane waves:    1747
 k-point 84 :   0.0704 0.0000 0.0704  plane waves:    1747
 k-point 85 :   0.0714 0.0000 0.0714  plane waves:    1747
 k-point 86 :   0.0725 0.0000 0.0725  plane waves:    1747
 k-point 87 :   0.0735 0.0000 0.0735  plane waves:    1747
 k-point 88 :   0.0746 0.0000 0.0746  plane waves:    1747
 k-point 89 :   0.0756 0.0000 0.0756  plane waves:    1747
[...]
      1      -8.4013      2.00000
      2      -5.6699      2.00000
      3      -5.6560      2.00000
      4      -5.6560      2.00000
      5      -5.5200      2.00000
      6      -5.0998      2.00000
      7      -2.0982      2.00000
      8       0.3569      2.00000
      9       0.3569      2.00000
     10       4.7060      0.00000
     11       4.8378      0.00000
     12      10.9226      0.00000
     13      11.2688      0.00000
     14      11.2688      0.00000
     15      13.0279      0.00000
     16      13.7810      0.00000

 k-point   478 :       0.4842    0.0000    0.4842
  band No.  band energies     occupation 
      1      -8.4011      2.00000
      2      -5.6700      2.00000
      3      -5.6560      2.00000
      4      -5.6560      2.00000
      5      -5.5200      2.00000
      6      -5.0993      2.00000
      7      -2.0995      2.00000
      8       0.3565      2.00000
      9       0.3565      2.00000
     10       4.7062      0.00000
     11       4.8367      0.00000
     12      10.9257      0.00000
     13      11.2724      0.00000
     14      11.2724      0.00000
     15      13.0289      0.00000
     16      13.7768      0.00000

 k-point   479 :       0.4853    0.0000    0.4853
  band No.  band energies     occupation 
      1      -8.4009      2.00000
      2      -5.6700      2.00000
      3      -5.6559      2.00000
      4      -5.6559      2.00000
      5      -5.5200      2.00000
      6      -5.0988      2.00000
      7      -2.1006      2.00000
      8       0.3560      2.00000
      9       0.3560      2.00000
     10       4.7065      0.00000
     11       4.8356      0.00000
     12      10.9286      0.00000
     13      11.2758      0.00000
     14      11.2758      0.00000
     15      13.0299      0.00000
     16      13.7729      0.00000

 k-point   480 :       0.4863    0.0000    0.4863
  band No.  band energies     occupation 
      1      -8.4008      2.00000
      2      -5.6700      2.00000
      3      -5.6558      2.00000
      4      -5.6558      2.00000
      5      -5.5199      2.00000
      6      -5.0983      2.00000
      7      -2.1017      2.00000
      8       0.3556      2.00000
      9       0.3556      2.00000
     10       4.7067      0.00000
     11       4.8346      0.00000
     12      10.9313      0.00000
     13      11.2789      0.00000
     14      11.2789      0.00000
     15      13.0307      0.00000
     16      13.7693      0.00000

 k-point   481 :       0.4874    0.0000    0.4874
  band No.  band energies     occupation 
      1      -8.4006      2.00000
      2      -5.6700      2.00000
      3      -5.6558      2.00000
      4      -5.6558      2.00000
      5      -5.5199      2.00000
      6      -5.0979      2.00000
      7      -2.1027      2.00000
      8       0.3552      2.00000
      9       0.3552      2.00000
     10       4.7069      0.00000
     11       4.8337      0.00000
     12      10.9338      0.00000
     13      11.2819      0.00000
     14      11.2819      0.00000
     15      13.0316      0.00000
     16      13.7659      0.00000

 k-point   482 :       0.4884    0.0000    0.4884
  band No.  band energies     occupation 
      1      -8.4005      2.00000
      2      -5.6700      2.00000
      3      -5.6557      2.00000
      4      -5.6557      2.00000
      5      -5.5199      2.00000
      6      -5.0975      2.00000
      7      -2.1036      2.00000
      8       0.3548      2.00000
      9       0.3548      2.00000
     10       4.7071      0.00000
     11       4.8329      0.00000
     12      10.9361      0.00000
     13      11.2846      0.00000
     14      11.2846      0.00000
     15      13.0323      0.00000
     16      13.7627      0.00000

 k-point   483 :       0.4895    0.0000    0.4895
  band No.  band energies     occupation 
      1      -8.4004      2.00000
      2      -5.6701      2.00000
      3      -5.6557      2.00000
      4      -5.6557      2.00000
      5      -5.5199      2.00000
      6      -5.0971      2.00000
      7      -2.1044      2.00000
      8       0.3545      2.00000
      9       0.3545      2.00000
     10       4.7073      0.00000
     11       4.8321      0.00000
     12      10.9382      0.00000
     13      11.2870      0.00000
     14      11.2870      0.00000
     15      13.0330      0.00000
     16      13.7599      0.00000

 k-point   484 :       0.4905    0.0000    0.4905
  band No.  band energies     occupation 
      1      -8.4003      2.00000
      2      -5.6701      2.00000
      3      -5.6556      2.00000
      4      -5.6556      2.00000
      5      -5.5199      2.00000
      6      -5.0968      2.00000
      7      -2.1052      2.00000
      8       0.3542      2.00000
      9       0.3542      2.00000
     10       4.7074      0.00000
     11       4.8314      0.00000
     12      10.9401      0.00000
     13      11.2893      0.00000
     14      11.2893      0.00000
     15      13.0336      0.00000
     16      13.7573      0.00000

 k-point   485 :       0.4916    0.0000    0.4916
  band No.  band energies     occupation 
      1      -8.4002      2.00000
      2      -5.6701      2.00000
      3      -5.6556      2.00000
      4      -5.6556      2.00000
      5      -5.5199      2.00000
      6      -5.0965      2.00000
      7      -2.1058      2.00000
      8       0.3540      2.00000
      9       0.3540      2.00000
     10       4.7076      0.00000
     11       4.8307      0.00000
     12      10.9418      0.00000
     13      11.2913      0.00000
     14      11.2913      0.00000
     15      13.0341      0.00000
     16      13.7549      0.00000

 k-point   486 :       0.4926    0.0000    0.4926
  band No.  band energies     occupation 
      1      -8.4001      2.00000
      2      -5.6701      2.00000
      3      -5.6556      2.00000
      4      -5.6556      2.00000
      5      -5.5199      2.00000
      6      -5.0962      2.00000
      7      -2.1064      2.00000
      8       0.3537      2.00000
      9       0.3537      2.00000
     10       4.7077      0.00000
     11       4.8302      0.00000
     12      10.9433      0.00000
     13      11.2931      0.00000
     14      11.2931      0.00000
     15      13.0347      0.00000
     16      13.7529      0.00000

 k-point   487 :       0.4937    0.0000    0.4937
  band No.  band energies     occupation 
      1      -8.4000      2.00000
      2      -5.6701      2.00000
      3      -5.6555      2.00000
      4      -5.6555      2.00000
      5      -5.5199      2.00000
      6      -5.0960      2.00000
      7      -2.1070      2.00000
      8       0.3535      2.00000
      9       0.3535      2.00000
     10       4.7078      0.00000
     11       4.8297      0.00000
     12      10.9446      0.00000
     13      11.2946      0.00000
     14      11.2946      0.00000
     15      13.0351      0.00000
     16      13.7511      0.00000

 k-point   488 :       0.4947    0.0000    0.4947
  band No.  band energies     occupation 
      1      -8.3999      2.00000
      2      -5.6701      2.00000
      3      -5.6555      2.00000
      4      -5.6555      2.00000
      5      -5.5199      2.00000
      6      -5.0958      2.00000
      7      -2.1074      2.00000
      8       0.3534      2.00000
      9       0.3534      2.00000
     10       4.7079      0.00000
     11       4.8292      0.00000
     12      10.9457      0.00000
     13      11.2959      0.00000
     14      11.2959      0.00000
     15      13.0354      0.00000
     16      13.7496      0.00000

 k-point   489 :       0.4958    0.0000    0.4958
  band No.  band energies     occupation 
      1      -8.3999      2.00000
      2      -5.6701      2.00000
      3      -5.6555      2.00000
      4      -5.6555      2.00000
      5      -5.5199      2.00000
      6      -5.0957      2.00000
      7      -2.1077      2.00000
      8       0.3532      2.00000
      9       0.3532      2.00000
     10       4.7080      0.00000
     11       4.8289      0.00000
     12      10.9467      0.00000
     13      11.2970      0.00000
     14      11.2970      0.00000
     15      13.0357      0.00000
     16      13.7484      0.00000

 k-point   490 :       0.4968    0.0000    0.4968
  band No.  band energies     occupation 
      1      -8.3998      2.00000
      2      -5.6701      2.00000
      3      -5.6555      2.00000
      4      -5.6555      2.00000
      5      -5.5199      2.00000
      6      -5.0955      2.00000
      7      -2.1080      2.00000
      8       0.3531      2.00000
      9       0.3531      2.00000
     10       4.7081      0.00000
     11       4.8286      0.00000
     12      10.9474      0.00000
     13      11.2979      0.00000
     14      11.2979      0.00000
     15      13.0359      0.00000
     16      13.7474      0.00000

 k-point   491 :       0.4979    0.0000    0.4979
  band No.  band energies     occupation 
      1      -8.3998      2.00000
      2      -5.6701      2.00000
      3      -5.6555      2.00000
      4      -5.6555      2.00000
      5      -5.5199      2.00000
      6      -5.0955      2.00000
      7      -2.1082      2.00000
      8       0.3530      2.00000
      9       0.3530      2.00000
     10       4.7081      0.00000
     11       4.8284      0.00000
     12      10.9479      0.00000
     13      11.2985      0.00000
     14      11.2985      0.00000
     15      13.0361      0.00000
     16      13.7467      0.00000

 k-point   492 :       0.4989    0.0000    0.4989
  band No.  band energies     occupation 
      1      -8.3998      2.00000
      2      -5.6701      2.00000
      3      -5.6555      2.00000
      4      -5.6555      2.00000
      5      -5.5199      2.00000
      6      -5.0954      2.00000
      7      -2.1083      2.00000
      8       0.3530      2.00000
      9       0.3530      2.00000
     10       4.7082      0.00000
     11       4.8283      0.00000
     12      10.9482      0.00000
     13      11.2988      0.00000
     14      11.2988      0.00000
     15      13.0362      0.00000
     16      13.7463      0.00000


--------------------------------------------------------------------------------------------------------


 soft charge-density along one line, spin component           1
         0         1         2         3         4         5         6         7         8         9
 total charge-density along one line
 
 pseudopotential strength for first ion, spin component:           1
-17.748   0.000   0.000   0.000   0.000 -17.795   0.000   0.000
  0.000 -17.748   0.000  -0.000  -0.000   0.000 -17.795   0.000
  0.000   0.000 -17.747   0.000  -0.000   0.000   0.000 -17.794
  0.000  -0.000   0.000 -17.748   0.000   0.000  -0.000   0.000
  0.000  -0.000  -0.000   0.000 -17.747   0.000  -0.000  -0.000
-17.795   0.000   0.000   0.000   0.000 -17.822   0.000   0.000
  0.000 -17.795   0.000  -0.000  -0.000   0.000 -17.822   0.000
  0.000   0.000 -17.794   0.000  -0.000   0.000   0.000 -17.821
  0.000  -0.000   0.000 -17.795   0.000   0.000  -0.000   0.000
  0.000  -0.000  -0.000   0.000 -17.794   0.000  -0.000  -0.000
  0.000  -0.000  -0.000  -0.000  -0.000   0.000  -0.000  -0.000
  0.000  -0.000  -0.000  -0.000  -0.000   0.000  -0.000  -0.000
 -0.000   0.000  -0.000  -0.001  -0.000  -0.000   0.000  -0.000
 -0.001  -0.000  -0.000  -0.000  -0.000  -0.001  -0.000  -0.000
 -0.000  -0.001  -0.000   0.000   0.000  -0.000  -0.001  -0.000
 -0.000   0.000  -0.000  -0.001  -0.000  -0.000   0.000  -0.000
 -0.001  -0.000  -0.000  -0.000  -0.000  -0.001  -0.000  -0.000
 -0.000  -0.001  -0.000   0.000   0.000  -0.000  -0.001  -0.000
 total augmentation occupancy for first ion, spin component:           1
  2.000   0.000   0.000   0.000   0.000   0.000   0.000   0.000   0.000   0.000   0.000   0.000   0.000   0.000   0.000   0.000
  0.000   2.000   0.000   0.000   0.000   0.000   0.000   0.000   0.000   0.000   0.000   0.000   0.000   0.000   0.000   0.000
  0.000   0.000   2.000   0.000   0.000   0.000   0.000   0.000   0.000   0.000   0.000   0.000   0.000   0.000   0.000   0.000
  0.000   0.000   0.000   2.000   0.000   0.000   0.000   0.000   0.000   0.000   0.000   0.000   0.000   0.000   0.000   0.000
  0.000   0.000   0.000   0.000   2.000   0.000   0.000   0.000   0.000   0.000   0.000   0.000   0.000   0.000   0.000   0.000
  0.000   0.000   0.000   0.000   0.000   0.000   0.000   0.000   0.000   0.000   0.000   0.000   0.000   0.000   0.000   0.000
  0.000   0.000   0.000   0.000   0.000   0.000   0.000   0.000   0.000   0.000   0.000   0.000   0.000   0.000   0.000   0.000
  0.000   0.000   0.000   0.000   0.000   0.000   0.000   0.000   0.000   0.000   0.000   0.000   0.000   0.000   0.000   0.000
  0.000   0.000   0.000   0.000   0.000   0.000   0.000   0.000   0.000   0.000   0.000   0.000   0.000   0.000   0.000   0.000
  0.000   0.000   0.000   0.000   0.000   0.000   0.000   0.000   0.000   0.000   0.000   0.000   0.000   0.000   0.000   0.000
  0.000   0.000   0.000   0.000   0.000   0.000   0.000   0.000   0.000   0.000   2.000   0.000   0.000   0.000   0.000   0.000
  0.000   0.000   0.000   0.000   0.000   0.000   0.000   0.000   0.000   0.000   0.000   0.000   0.000   0.000   0.000   0.000
  0.000   0.000   0.000   0.000   0.000   0.000   0.000   0.000   0.000   0.000   0.000   0.000   0.000   0.000   0.000   0.000
  0.000   0.000   0.000   0.000   0.000   0.000   0.000   0.000   0.000   0.000   0.000   0.000   0.000   0.000   0.000   0.000
  0.000   0.000   0.000   0.000   0.000   0.000   0.000   0.000   0.000   0.000   0.000   0.000   0.000   0.000   0.000   0.000
  0.000   0.000   0.000   0.000   0.000   0.000   0.000   0.000   0.000   0.000   0.000   0.000   0.000   0.000   0.000   0.000
  0.000   0.000   0.000   0.000   0.000   0.000   0.000   0.000   0.000   0.000   0.000   0.000   0.000   0.000   0.000   0.000
  0.000   0.000   0.000   0.000   0.000   0.000   0.000   0.000   0.000   0.000   0.000   0.000   0.000   0.000   0.000   0.000


------------------------ aborting loop because EDIFF is reached ----------------------------------------


 


 total charge     
 
# of ion     s       p       d       tot
----------------------------------------
  1        0.473   0.320   9.522  10.315
  2        1.351   2.041   0.022   3.414
------------------------------------------------
tot        1.824   2.361   9.544  13.729
 
    CHARGE:  cpu time    0.0080: real time    0.0098
    FORLOC:  cpu time    0.0000: real time    0.0006
    FORNL :  cpu time    0.0560: real time    0.0549
    STRESS:  cpu time    0.6480: real time    0.6505
    FORCOR:  cpu time    0.0080: real time    0.0092
    FORHAR:  cpu time    0.0040: real time    0.0021
    OFIELD:  cpu time    0.0000: real time    0.0001

  FORCE on cell =-STRESS in cart. coord.  units (eV):
  Direction    XX          YY          ZZ          XY          YZ          ZX
  --------------------------------------------------------------------------------------
  Alpha Z    50.17222    50.17222    50.17222
  Ewald    -348.27726  -348.27726  -348.27726     0.00000     0.00000     0.00000
  Hartree   166.39054   166.39054   166.39054     0.00000    -0.00000    -0.00000
  E(xc)     -86.51613   -86.51613   -86.51613    -0.00000     0.00000     0.00000
  Local     -18.13000   -18.13000   -18.13000     0.00001    -0.00001    -0.00001
  n-local    21.77380    27.04899    26.17482    -1.74284    -3.04445    -1.13548
  augment     5.57736     5.57736     5.57736    -0.00001     0.00001     0.00001
  Kinetic   200.21809   203.72155   203.96489    -1.61817    -3.08908    -1.23070
  Fock        0.00000     0.00000     0.00000     0.00000     0.00000     0.00000
  -------------------------------------------------------------------------------------
  Total      -3.14923    -3.14923    -3.14923     0.00000     0.00000    -0.00000
  in kB     -74.08111   -74.08111   -74.08111     0.00000     0.00000    -0.00000
  external pressure =      -74.08 kB  Pullay stress =        0.00 kB


 VOLUME and BASIS-vectors are now :
 -----------------------------------------------------------------------------
  energy-cutoff  :      500.00
  volume of cell :       68.11
      direct lattice vectors                 reciprocal lattice vectors
     3.241350000  3.241350000  0.000000000     0.154256714  0.154256714  0.154256714
     3.241350000  0.000000000 -3.241350000     0.154256714 -0.154256714 -0.154256714
     0.000000000  3.241350000 -3.241350000    -0.154256714  0.154256714 -0.154256714

  length of vectors
     4.583961130  4.583961130  4.583961130     0.267180466  0.267180466  0.267180466


 FORCES acting on ions
    electron-ion (+dipol)            ewald-force                    non-local-force                 convergence-correction
 -----------------------------------------------------------------------------------------------
   -.322E-06 -.323E-06 0.323E-06   -.744E-14 -.454E-14 0.998E-14   0.000E+00 0.000E+00 0.139E-16   0.552E-06 0.552E-06 0.550E-06
   0.157E-06 0.163E-06 -.163E-06   0.759E-14 0.606E-14 -.102E-13   -.179E-15 -.153E-15 0.180E-15   0.131E-06 0.131E-06 0.131E-06
 -----------------------------------------------------------------------------------------------
   -.165E-06 -.160E-06 0.160E-06   0.152E-15 0.152E-14 -.238E-15   -.179E-15 -.153E-15 0.194E-15   0.683E-06 0.683E-06 0.680E-06
 
 
 POSITION                                       TOTAL-FORCE (eV/Angst)
 -----------------------------------------------------------------------------------
      0.00000      0.00000      0.00000        -0.000000      0.000000     -0.000000
      1.62068      1.62068     -1.62068         0.000000     -0.000000      0.000000
 -----------------------------------------------------------------------------------
    total drift:                                0.000001      0.000001      0.000001


--------------------------------------------------------------------------------------------------------



  FREE ENERGIE OF THE ION-ELECTRON SYSTEM (eV)
  ---------------------------------------------------
  free  energy   TOTEN  =        -5.49325799 eV

  energy  without entropy=       -5.49325799  energy(sigma->0) =       -5.49325799
 


--------------------------------------------------------------------------------------------------------


    POTLOK:  cpu time    0.0120: real time    0.0111


--------------------------------------------------------------------------------------------------------




--------------------------------------------------------------------------------------------------------


 writing wavefunctions
     LOOP+:  cpu time    8.8646: real time   12.2571
    4ORBIT:  cpu time    0.0000: real time    0.0000
 


 total charge     
 
# of ion     s       p       d       tot
----------------------------------------
  1        0.473   0.320   9.522  10.315
  2        1.351   2.041   0.022   3.414
------------------------------------------------
tot        1.824   2.361   9.544  13.729
 

 total amount of memory used by VASP on root node    84579. kBytes
========================================================================

   base      :      30000. kBytes
   nonl-proj :      42518. kBytes
   fftplans  :        768. kBytes
   grid      :       1202. kBytes
   one-center:         15. kBytes
   wavefun   :      10076. kBytes
 
  
  
 General timing and accounting informations for this job:
 ========================================================
  
                  Total CPU time used (sec):       14.397
                            User time (sec):       10.837
                          System time (sec):        3.560
                         Elapsed time (sec):       18.731
  
                   Maximum memory used (kb):       79588.
                   Average memory used (kb):           0.
  
                          Minor page faults:        20316
                          Major page faults:            0
                 Voluntary context switches:         1195
