       N       E                     dE             d eps       ncg     rms          rms(c)
DAV:   1     0.841006248370E+02    0.84101E+02   -0.89368E+03 19536   0.179E+03
DAV:   2    -0.633255495875E+00   -0.84734E+02   -0.80647E+02 21160   0.358E+02
DAV:   3    -0.941991839098E+01   -0.87867E+01   -0.87498E+01 23256   0.793E+01
DAV:   4    -0.957444025690E+01   -0.15452E+00   -0.15451E+00 23416   0.113E+01
DAV:   5    -0.957600466648E+01   -0.15644E-02   -0.15644E-02 23840   0.129E+00
DAV:   6    -0.957602770450E+01   -0.23038E-04   -0.23038E-04 23768   0.132E-01
DAV:   7    -0.957602816935E+01   -0.46485E-06   -0.46482E-06 23760   0.196E-02
   1 F= -.95760282E+01 E0= -.95760282E+01  d E =-.957603E+01
