  96  96   0   0
  0.2080188E+02  0.1257760E-08  0.1245754E-08  0.1274818E-08  0.5000000E-15
  1.000000000000000E-004
  CAR 
 MAPbI3-Cubic                            
     10.66408733    -19.57968782  301      1.54054849      1.00000000
    -19.580  0.0000E+00  0.0000E+00
    -19.479  0.0000E+00  0.0000E+00
    -19.378  0.0000E+00  0.0000E+00
    -19.277  0.0000E+00  0.0000E+00
    -19.176  0.0000E+00  0.0000E+00
    -19.076  0.0000E+00  0.0000E+00
    -18.975  0.0000E+00  0.0000E+00
    -18.874  0.0000E+00  0.0000E+00
    -18.773  0.0000E+00  0.0000E+00
    -18.672  0.0000E+00  0.0000E+00
    -18.572  0.0000E+00  0.0000E+00
    -18.471  0.0000E+00  0.0000E+00
    -18.370  0.0000E+00  0.0000E+00
    -18.269  0.0000E+00  0.0000E+00
    -18.168  0.0000E+00  0.1600E+02
    -18.067  0.0000E+00  0.1600E+02
    -17.967  0.0000E+00  0.1600E+02
    -17.866  0.0000E+00  0.1600E+02
    -17.765  0.0000E+00  0.1600E+02
    -17.664  0.0000E+00  0.1600E+02
    -17.563  0.0000E+00  0.1600E+02
    -17.463  0.0000E+00  0.1600E+02
    -17.362  0.0000E+00  0.1600E+02
    -17.261  0.0000E+00  0.1600E+02
    -17.160  0.0000E+00  0.1600E+02
    -17.059  0.0000E+00  0.1600E+02
    -16.959  0.0000E+00  0.1600E+02
    -16.858  0.0000E+00  0.1600E+02
    -16.757  0.0000E+00  0.1600E+02
    -16.656  0.0000E+00  0.1600E+02
    -16.555  0.0000E+00  0.1600E+02
    -16.454  0.0000E+00  0.1600E+02
    -16.354  0.0000E+00  0.4800E+02
    -16.253  0.0000E+00  0.4800E+02
    -16.152  0.0000E+00  0.4800E+02
    -16.051  0.0000E+00  0.4800E+02
    -15.950  0.0000E+00  0.4800E+02
    -15.850  0.0000E+00  0.4800E+02
    -15.749  0.0000E+00  0.4800E+02
    -15.648  0.0000E+00  0.4800E+02
    -15.547  0.0000E+00  0.4800E+02
    -15.446  0.0000E+00  0.4800E+02
    -15.346  0.0000E+00  0.4800E+02
    -15.245  0.0000E+00  0.4800E+02
    -15.144  0.0000E+00  0.4800E+02
    -15.043  0.0000E+00  0.4800E+02
    -14.942  0.0000E+00  0.4800E+02
    -14.841  0.0000E+00  0.4800E+02
    -14.741  0.0000E+00  0.4800E+02
    -14.640  0.0000E+00  0.4800E+02
    -14.539  0.0000E+00  0.4800E+02
    -14.438  0.0000E+00  0.4800E+02
    -14.337  0.0000E+00  0.4800E+02
    -14.237  0.0000E+00  0.4800E+02
    -14.136  0.0000E+00  0.4800E+02
    -14.035  0.0000E+00  0.4800E+02
    -13.934  0.0000E+00  0.4800E+02
    -13.833  0.0000E+00  0.9600E+02
    -13.733  0.0000E+00  0.9600E+02
    -13.632  0.0000E+00  0.9600E+02
    -13.531  0.0000E+00  0.9600E+02
    -13.430  0.0000E+00  0.9600E+02
    -13.329  0.0000E+00  0.9600E+02
    -13.228  0.0000E+00  0.9600E+02
    -13.128  0.0000E+00  0.9600E+02
    -13.027  0.0000E+00  0.9600E+02
    -12.926  0.0000E+00  0.9600E+02
    -12.825  0.0000E+00  0.9600E+02
    -12.724  0.0000E+00  0.9600E+02
    -12.624  0.0000E+00  0.9600E+02
    -12.523  0.0000E+00  0.9600E+02
    -12.422  0.0000E+00  0.9600E+02
    -12.321  0.0000E+00  0.9600E+02
    -12.220  0.0000E+00  0.9600E+02
    -12.120  0.0000E+00  0.9600E+02
    -12.019  0.0000E+00  0.9600E+02
    -11.918  0.0000E+00  0.9600E+02
    -11.817  0.0000E+00  0.9600E+02
    -11.716  0.0000E+00  0.9600E+02
    -11.615  0.0000E+00  0.9600E+02
    -11.515  0.0000E+00  0.9600E+02
    -11.414  0.0000E+00  0.9600E+02
    -11.313  0.0000E+00  0.1040E+03
    -11.212  0.0000E+00  0.1120E+03
    -11.111  0.0000E+00  0.1120E+03
    -11.011  0.0000E+00  0.1120E+03
    -10.910  0.0000E+00  0.1120E+03
    -10.809  0.0000E+00  0.1121E+03
    -10.708  0.4409E+01  0.1141E+03
    -10.607  0.4159E+01  0.1189E+03
    -10.507  0.5181E+01  0.1256E+03
    -10.406  0.1392E+01  0.1290E+03
    -10.305  0.3145E+01  0.1359E+03
    -10.204  0.6882E-02  0.1400E+03
    -10.103  0.2403E+01  0.1445E+03
    -10.002  0.4392E+01  0.1550E+03
     -9.902  0.0000E+00  0.1600E+03
     -9.801  0.0000E+00  0.1600E+03
     -9.700  0.0000E+00  0.1600E+03
     -9.599  0.0000E+00  0.1600E+03
     -9.498  0.0000E+00  0.1600E+03
     -9.398  0.0000E+00  0.1600E+03
     -9.297  0.0000E+00  0.1600E+03
     -9.196  0.0000E+00  0.1600E+03
     -9.095  0.0000E+00  0.1600E+03
     -8.994  0.0000E+00  0.1600E+03
     -8.894  0.0000E+00  0.1600E+03
     -8.793  0.0000E+00  0.1600E+03
     -8.692  0.0000E+00  0.1600E+03
     -8.591  0.0000E+00  0.1600E+03
     -8.490  0.0000E+00  0.1600E+03
     -8.389  0.0000E+00  0.1600E+03
     -8.289  0.0000E+00  0.1600E+03
     -8.188  0.0000E+00  0.1600E+03
     -8.087  0.0000E+00  0.1600E+03
     -7.986  0.0000E+00  0.1600E+03
     -7.885  0.0000E+00  0.1600E+03
     -7.785  0.0000E+00  0.1600E+03
     -7.684  0.0000E+00  0.1680E+03
     -7.583  0.0000E+00  0.1840E+03
     -7.482  0.0000E+00  0.1920E+03
     -7.381  0.0000E+00  0.1920E+03
     -7.281  0.0000E+00  0.1920E+03
     -7.180  0.0000E+00  0.1920E+03
     -7.079  0.0000E+00  0.1920E+03
     -6.978  0.0000E+00  0.1920E+03
     -6.877  0.0000E+00  0.1921E+03
     -6.776  0.0000E+00  0.1925E+03
     -6.676  0.0000E+00  0.1934E+03
     -6.575  0.2932E+01  0.1939E+03
     -6.474  0.0000E+00  0.1944E+03
     -6.373  0.0000E+00  0.1964E+03
     -6.272  0.7348E+00  0.1988E+03
     -6.172  0.0000E+00  0.2000E+03
     -6.071  0.3279E+01  0.2017E+03
     -5.970  0.0000E+00  0.2036E+03
     -5.869  0.3699E-10  0.2058E+03
     -5.768  0.3541E+01  0.2142E+03
     -5.668  0.4409E+01  0.2226E+03
     -5.567  0.0000E+00  0.2235E+03
     -5.466  0.2208E+01  0.2239E+03
     -5.365  0.0000E+00  0.2239E+03
     -5.264  0.0000E+00  0.2240E+03
     -5.163  0.0000E+00  0.2240E+03
     -5.063  0.0000E+00  0.2240E+03
     -4.962  0.0000E+00  0.2240E+03
     -4.861  0.0000E+00  0.2240E+03
     -4.760  0.0000E+00  0.2240E+03
     -4.659  0.0000E+00  0.2240E+03
     -4.559  0.0000E+00  0.2240E+03
     -4.458  0.0000E+00  0.2240E+03
     -4.357  0.0000E+00  0.2240E+03
     -4.256  0.0000E+00  0.2240E+03
     -4.155  0.0000E+00  0.2240E+03
     -4.055  0.0000E+00  0.2240E+03
     -3.954  0.0000E+00  0.2240E+03
     -3.853  0.0000E+00  0.2240E+03
     -3.752  0.0000E+00  0.2240E+03
     -3.651  0.0000E+00  0.2240E+03
     -3.550  0.3051E+02  0.2365E+03
     -3.450  0.0000E+00  0.2560E+03
     -3.349  0.0000E+00  0.2560E+03
     -3.248  0.0000E+00  0.2560E+03
     -3.147  0.0000E+00  0.2560E+03
     -3.046  0.0000E+00  0.2560E+03
     -2.946  0.0000E+00  0.2560E+03
     -2.845  0.0000E+00  0.2560E+03
     -2.744  0.0000E+00  0.2560E+03
     -2.643  0.0000E+00  0.2560E+03
     -2.542  0.0000E+00  0.2560E+03
     -2.442  0.0000E+00  0.2560E+03
     -2.341  0.0000E+00  0.2560E+03
     -2.240  0.0000E+00  0.2560E+03
     -2.139  0.1895E+01  0.2569E+03
     -2.038  0.3071E-09  0.2600E+03
     -1.937  0.2085E+01  0.2626E+03
     -1.837  0.2940E+01  0.2654E+03
     -1.736  0.1637E-01  0.2684E+03
     -1.635  0.5371E+01  0.2728E+03
     -1.534  0.1280E-01  0.2763E+03
     -1.433  0.7348E+00  0.2793E+03
     -1.333  0.0000E+00  0.2800E+03
     -1.232  0.1470E+01  0.2808E+03
     -1.131  0.1486E+01  0.2847E+03
     -1.030  0.6259E+01  0.2880E+03
     -0.929  0.5036E+01  0.2935E+03
     -0.829  0.2331E+01  0.2974E+03
     -0.728  0.2193E+01  0.3013E+03
     -0.627  0.3047E+01  0.3034E+03
     -0.526  0.1468E+01  0.3084E+03
     -0.425  0.5097E+01  0.3147E+03
     -0.324  0.3398E+01  0.3193E+03
     -0.224  0.4550E+01  0.3233E+03
     -0.123  0.5520E+01  0.3298E+03
     -0.022  0.1028E+02  0.3382E+03
      0.079  0.1078E+02  0.3467E+03
      0.180  0.2204E+01  0.3518E+03
      0.280  0.7718E+01  0.3566E+03
      0.381  0.2939E+01  0.3606E+03
      0.482  0.6570E+00  0.3665E+03
      0.583  0.1051E+02  0.3742E+03
      0.684  0.8246E+01  0.3805E+03
      0.784  0.1469E+01  0.3881E+03
      0.885  0.6389E+01  0.3938E+03
      0.986  0.1469E+01  0.3964E+03
      1.087  0.7348E+00  0.3979E+03
      1.188  0.1488E-01  0.3992E+03
      1.289  0.0000E+00  0.3995E+03
      1.389  0.2171E-05  0.3999E+03
      1.490  0.8702E-01  0.3999E+03
      1.591  0.0000E+00  0.4000E+03
      1.692  0.0000E+00  0.4000E+03
      1.793  0.0000E+00  0.4000E+03
      1.893  0.0000E+00  0.4000E+03
      1.994  0.0000E+00  0.4000E+03
      2.095  0.0000E+00  0.4000E+03
      2.196  0.0000E+00  0.4001E+03
      2.297  0.0000E+00  0.4001E+03
      2.397  0.7348E+00  0.4003E+03
      2.498  0.1358E+01  0.4004E+03
      2.599  0.7348E+00  0.4005E+03
      2.700  0.0000E+00  0.4010E+03
      2.801  0.1806E+01  0.4015E+03
      2.902  0.7348E+00  0.4021E+03
      3.002  0.6061E-02  0.4024E+03
      3.103  0.3549E-01  0.4033E+03
      3.204  0.1449E+01  0.4044E+03
      3.305  0.1470E+01  0.4050E+03
      3.406  0.7361E+00  0.4060E+03
      3.506  0.2481E+01  0.4074E+03
      3.607  0.1470E+01  0.4086E+03
      3.708  0.0000E+00  0.4093E+03
      3.809  0.0000E+00  0.4103E+03
      3.910  0.3643E+00  0.4114E+03
      4.010  0.4311E+01  0.4129E+03
      4.111  0.0000E+00  0.4139E+03
      4.212  0.1407E+01  0.4161E+03
      4.313  0.1215E+01  0.4176E+03
      4.414  0.7740E-03  0.4194E+03
      4.515  0.1470E+01  0.4208E+03
      4.615  0.0000E+00  0.4220E+03
      4.716  0.0000E+00  0.4228E+03
      4.817  0.0000E+00  0.4235E+03
      4.918  0.1482E+01  0.4244E+03
      5.019  0.0000E+00  0.4251E+03
      5.119  0.1090E+01  0.4256E+03
      5.220  0.7282E+00  0.4273E+03
      5.321  0.3674E+01  0.4285E+03
      5.422  0.2214E+01  0.4313E+03
      5.523  0.6399E+00  0.4341E+03
      5.623  0.1470E+01  0.4369E+03
      5.724  0.2938E+01  0.4393E+03
      5.825  0.0000E+00  0.4416E+03
      5.926  0.4409E+01  0.4441E+03
      6.027  0.3151E+01  0.4472E+03
      6.128  0.3886E+01  0.4512E+03
      6.228  0.3012E+01  0.4550E+03
      6.329  0.4056E+01  0.4594E+03
      6.430  0.3328E+01  0.4635E+03
      6.531  0.9355E+00  0.4693E+03
      6.632  0.3409E+01  0.4746E+03
      6.732  0.3286E+01  0.4788E+03
      6.833  0.4409E+01  0.4834E+03
      6.934  0.2039E-11  0.4870E+03
      7.035  0.2939E+01  0.4899E+03
      7.136  0.5482E+01  0.4948E+03
      7.236  0.7439E+01  0.5010E+03
      7.337  0.2244E+01  0.5042E+03
      7.438  0.2980E+01  0.5099E+03
      7.539  0.7179E+01  0.5142E+03
      7.640  0.8594E+00  0.5183E+03
      7.741  0.3638E+01  0.5234E+03
      7.841  0.9804E+00  0.5286E+03
      7.942  0.6065E+01  0.5340E+03
      8.043  0.3033E+01  0.5396E+03
      8.144  0.3644E+01  0.5456E+03
      8.245  0.2180E+01  0.5501E+03
      8.345  0.4141E+01  0.5555E+03
      8.446  0.5875E+01  0.5619E+03
      8.547  0.3674E+01  0.5679E+03
      8.648  0.3639E+01  0.5738E+03
      8.749  0.3919E+01  0.5800E+03
      8.849  0.3226E+01  0.5848E+03
      8.950  0.6163E+01  0.5925E+03
      9.051  0.8576E+00  0.5962E+03
      9.152  0.1891E+01  0.5987E+03
      9.253  0.3674E+00  0.5999E+03
      9.354  0.0000E+00  0.6000E+03
      9.454  0.0000E+00  0.6000E+03
      9.555  0.0000E+00  0.6000E+03
      9.656  0.0000E+00  0.6000E+03
      9.757  0.0000E+00  0.6000E+03
      9.858  0.0000E+00  0.6000E+03
      9.958  0.0000E+00  0.6000E+03
     10.059  0.0000E+00  0.6000E+03
     10.160  0.0000E+00  0.6000E+03
     10.261  0.0000E+00  0.6000E+03
     10.362  0.0000E+00  0.6000E+03
     10.462  0.0000E+00  0.6000E+03
     10.563  0.0000E+00  0.6000E+03
     10.664  0.0000E+00  0.6000E+03
